INSANE! Membrane UpperLeaflet>loPI:POPI:DPPI:PYPI:ERGO=30.0:5.0:3.0:2.0:10.0 LowerLeaflet>loPI:POPI:DPPI:PYPI:ERGO=30.0:5.0:3.0:2.0:10.0
48670
    1loPI    C1    1  12.381  17.290  10.352  0.0092 -0.2321 -0.0779
    1loPI    C2    2  12.694  17.407  10.571 -0.1537  0.1924 -0.0621
    1loPI    C3    3  12.635  17.018  10.499  0.0832  0.0684  0.3715
    1loPI   PO4    4  12.167  17.442  10.489 -0.0182 -0.1839  0.3392
    1loPI   GL1    5  12.041  17.839  10.283  0.1931  0.1336 -0.1603
    1loPI   GL2    6  11.743  17.781  10.320  0.0492  0.3464  0.0457
    1loPI   C1A    7  12.019  17.892   9.885 -0.0157  0.2118  0.1156
    1loPI   C2A    8  12.205  17.766   9.426 -0.2988  0.1384 -0.1607
    1loPI   C3A    9  12.549  17.482   9.175 -0.1671 -0.0081 -0.0342
    1loPI   C4A   10  12.734  17.038   9.081  0.1437 -0.2070  0.1505
    1loPI   C5A   11  12.829  16.722   8.919  0.2093  0.4723  0.2555
    1loPI   C6A   12  12.902  16.669   8.507 -0.0066  0.2088  0.0129
    1loPI   C1B   13  11.571  17.927  10.014 -0.0047  0.4547  0.0140
    1loPI   C2B   14  11.379  18.144   9.698 -0.1989 -0.0415 -0.0957
    1loPI   C3B   15  11.354  18.269   9.274  0.0293 -0.0775 -0.3120
    1loPI   C4B   16  11.362  18.323   8.796 -0.1260 -0.0669 -0.1124
    2loPI    C1   17   0.824   9.260  10.733 -0.1709 -0.1160  0.2830
    2loPI    C2   18   1.194   9.202  10.875 -0.1549 -0.1316  0.2354
    2loPI    C3   19   0.920   9.390  11.099  0.0009  0.2533  0.1111
    2loPI   PO4   20   0.742   9.024  10.660  0.1322 -0.0565 -0.0424
    2loPI   GL1   21   0.718   8.890  10.288  0.2714  0.0556  0.1347
    2loPI   GL2   22   0.600   9.172  10.171 -0.2906  0.1829  0.2157
    2loPI   C1A   23   0.911   8.849   9.868 -0.0698  0.0992 -0.2390
    2loPI   C2A   24   1.092   8.915   9.406 -0.2308  0.0941  0.0402
    2loPI   C3A   25   1.165   8.818   8.950 -0.2693 -0.2257  0.0298
    2loPI   C4A   26   0.890   8.705   8.599  0.3012  0.0734 -0.2068
    2loPI   C5A   27   0.599   8.376   8.527  0.0152 -0.2246  0.2826
    2loPI   C6A   28   0.300   8.194   8.357  0.1453  0.6093  0.1647
    2loPI   C1B   29   0.652   9.293   9.708 -0.3109  0.0161  0.0699
    2loPI   C2B   30   0.719   9.322   9.337  0.2188  0.0226 -0.1545
    2loPI   C3B   31   0.692   9.074   8.961 -0.2879 -0.1696  0.1232
    2loPI   C4B   32   0.645   9.182   8.485 -0.0894 -0.0858 -0.2791
    3loPI    C1   33  14.964  16.640  11.068 -0.0343 -0.1430 -0.0634
    3loPI    C2   34  15.044  16.846  11.402 -0.1530  0.1739 -0.2264
    3loPI    C3   35  14.667  16.744  11.314 -0.1070 -0.0232 -0.2003
    3loPI   PO4   36  15.238  16.706  10.953  0.1427 -0.1194 -0.0153
    3loPI   GL1   37  15.343  16.585  10.581 -0.1865 -0.0326  0.1416
    3loPI   GL2   38  15.530  16.915  10.428 -0.0237 -0.2097  0.0799
    3loPI   C1A   39  15.308  16.473  10.182  0.1165  0.3055 -0.1591
    3loPI   C2A   40  15.194  16.644   9.842 -0.4514  0.0094 -0.0042
    3loPI   C3A   41  15.354  16.575   9.486  0.0304  0.2517  0.1004
    3loPI   C4A   42  15.299  16.641   9.187  0.0532  0.4647 -0.2986
    3loPI   C5A   43  15.373  16.684   8.747  0.1411  0.2503  0.2256
    3loPI   C6A   44  15.020  16.632   8.516 -0.1260  0.2112  0.2826
    3loPI   C1B   45  15.144  16.958  10.215 -0.0642  0.0533 -0.1522
    3loPI   C2B   46  14.988  17.147   9.871  0.1282 -0.0276 -0.0843
    3loPI   C3B   47  15.089  17.540   9.952 -0.0688  0.1146 -0.1675
    3loPI   C4B   48  15.225  17.944  10.048  0.2318  0.2255 -0.1048
    4loPI    C1   49  16.925   8.792  11.082  0.0077 -0.0679 -0.0659
    4loPI    C2   50  16.887   8.417  11.216  0.0406 -0.0409  0.0196
    4loPI    C3   51  17.171   8.655  11.366  0.1392 -0.0400 -0.1654
    4loPI   PO4   52  16.896   8.719  10.756 -0.0886 -0.0522  0.2351
    4loPI   GL1   53  17.023   8.926  10.317  0.0630 -0.0840 -0.0421
    4loPI   GL2   54  17.030   9.299  10.263 -0.0914  0.1711  0.0357
    4loPI   C1A   55  16.908   8.722   9.984  0.2664  0.0220 -0.3866
    4loPI   C2A   56  16.856   8.600   9.613  0.2371 -0.1032  0.1285
    4loPI   C3A   57  16.889   8.632   9.085 -0.0504 -0.3489 -0.4066
    4loPI   C4A   58  17.128   8.484   8.745 -0.0802 -0.1923  0.2489
    4loPI   C5A   59  17.240   8.236   8.419 -0.0851 -0.2100 -0.0781
    4loPI   C6A   60  17.561   8.204   8.206  0.0854  0.0174 -0.0609
    4loPI   C1B   61  16.976   9.180   9.761 -0.1654  0.0669 -0.1889
    4loPI   C2B   62  17.047   9.117   9.296 -0.0336 -0.2223 -0.3477
    4loPI   C3B   63  16.933   9.116   8.921 -0.2366 -0.0332 -0.1475
    4loPI   C4B   64  17.180   9.416   8.697 -0.0387 -0.2347 -0.2707
    5loPI    C1   65   2.592  17.041  10.608  0.0838  0.0474 -0.0475
    5loPI    C2   66   2.835  16.727  10.654  0.3597  0.2653  0.0104
    5loPI    C3   67   2.635  16.873  10.968 -0.0603 -0.0771 -0.0869
    5loPI   PO4   68   2.456  16.958  10.400 -0.2373  0.2704  0.0616
    5loPI   GL1   69   2.600  16.979   9.958  0.0936 -0.2642 -0.0397
    5loPI   GL2   70   2.681  17.311  10.130 -0.1853 -0.1332  0.0568
    5loPI   C1A   71   2.542  16.647   9.726 -0.1143 -0.4399  0.0309
    5loPI   C2A   72   2.636  16.608   9.267 -0.3727  0.0562  0.0038
    5loPI   C3A   73   2.758  16.755   8.900 -0.1164 -0.2742  0.0195
    5loPI   C4A   74   3.074  16.872   8.596 -0.0765 -0.0556 -0.0450
    5loPI   C5A   75   3.153  17.026   8.147 -0.1129 -0.0761 -0.0207
    5loPI   C6A   76   2.915  17.305   7.818 -0.0116  0.0071  0.2054
    5loPI   C1B   77   2.544  17.439   9.809  0.0535  0.0850 -0.0271
    5loPI   C2B   78   2.459  17.665   9.441  0.1445  0.0245 -0.0036
    5loPI   C3B   79   2.497  17.808   8.957  0.0657 -0.0519 -0.1885
    5loPI   C4B   80   2.600  17.929   8.571  0.1449  0.1514 -0.0110
    6loPI    C1   81   7.745  10.050  10.812  0.0546  0.0693  0.0112
    6loPI    C2   82   7.591  10.267  11.111  0.1230 -0.0024  0.0989
    6loPI    C3   83   7.787   9.927  11.191  0.0491 -0.0772 -0.0353
    6loPI   PO4   84   7.706  10.248  10.531  0.0644  0.5552  0.1711
    6loPI   GL1   85   7.867  10.439  10.209  0.0081  0.0433  0.1623
    6loPI   GL2   86   8.134  10.671  10.017  0.1604  0.0782 -0.0825
    6loPI   C1A   87   7.696  10.535   9.825 -0.0453  0.2065  0.4430
    6loPI   C2A   88   7.658  10.611   9.342  0.1449  0.0727  0.1403
    6loPI   C3A   89   7.561  10.533   8.875 -0.0112 -0.2517 -0.1703
    6loPI   C4A   90   7.836  10.415   8.524  0.2021  0.2958 -0.1461
    6loPI   C5A   91   8.131  10.664   8.254 -0.2714  0.1078  0.1782
    6loPI   C6A   92   8.061  10.997   8.014 -0.0821  0.1656  0.1085
    6loPI   C1B   93   7.920  10.962   9.735  0.3080 -0.1620  0.1732
    6loPI   C2B   94   8.052  10.997   9.281 -0.1624  0.0418 -0.0060
    6loPI   C3B   95   8.004  10.860   8.789 -0.0855 -0.3102 -0.0739
    6loPI   C4B   96   7.660  10.852   8.446  0.1354  0.0440  0.1981
    7loPI    C1   97   7.529   9.304  10.688 -0.0706  0.0755  0.1337
    7loPI    C2   98   7.893   9.211  10.550 -0.0987 -0.0921  0.1705
    7loPI    C3   99   7.844   9.531  10.784  0.0169 -0.0412  0.1255
    7loPI   PO4  100   7.359   9.237  10.422  0.2958 -0.0912  0.0653
    7loPI   GL1  101   7.325   9.100  10.015  0.1734  0.0459  0.0277
    7loPI   GL2  102   7.720   9.073  10.101 -0.0572 -0.2220  0.1334
    7loPI   C1A  103   7.546   9.410   9.771 -0.0068 -0.3176 -0.0637
    7loPI   C2A  104   7.507   9.566   9.307  0.0465 -0.1666 -0.0609
    7loPI   C3A  105   7.409   9.807   8.887 -0.3002  0.3358 -0.2084
    7loPI   C4A  106   7.409  10.164   8.550 -0.0303 -0.0073  0.2140
    7loPI   C5A  107   7.353  10.417   8.215  0.1155 -0.1677  0.1797
    7loPI   C6A  108   7.697  10.665   8.012 -0.1000 -0.3593  0.1650
    7loPI   C1B  109   7.990   9.081   9.735 -0.0802  0.0857 -0.0171
    7loPI   C2B  110   7.935   9.396   9.403  0.1634  0.1384  0.0924
    7loPI   C3B  111   7.957   9.578   9.057 -0.0861  0.4204  0.1543
    7loPI   C4B  112   7.841   9.642   8.638  0.0726 -0.0407 -0.0076
    8loPI    C1  113  11.348  15.695  10.979 -0.2483 -0.0458  0.1475
    8loPI    C2  114  11.041  15.448  10.909 -0.1238 -0.1635  0.0094
    8loPI    C3  115  11.179  15.494  11.281  0.0111 -0.4955  0.0036
    8loPI   PO4  116  11.463  15.649  10.749 -0.0408 -0.1317 -0.2066
    8loPI   GL1  117  11.524  15.592  10.338 -0.1695 -0.0351  0.0516
    8loPI   GL2  118  11.219  15.541  10.247 -0.3744  0.1798  0.2094
    8loPI   C1A  119  11.617  15.306  10.053  0.0133 -0.2327  0.0923
    8loPI   C2A  120  11.629  15.075   9.617 -0.0772 -0.2437 -0.1614
    8loPI   C3A  121  11.761  15.255   9.245  0.1870  0.0029 -0.0488
    8loPI   C4A  122  12.003  15.344   8.958  0.2658 -0.3014 -0.3240
    8loPI   C5A  123  11.902  15.356   8.552 -0.1055  0.2325  0.2210
    8loPI   C6A  124  11.973  15.307   8.160 -0.3435 -0.1828  0.0036
    8loPI   C1B  125  11.147  15.123   9.912  0.2219  0.1164 -0.2125
    8loPI   C2B  126  11.141  14.748   9.722  0.0702 -0.2419  0.0056
    8loPI   C3B  127  11.384  14.573   9.493 -0.0115 -0.1943 -0.0029
    8loPI   C4B  128  11.512  14.803   9.180 -0.1654  0.0797 -0.0968
    9loPI    C1  129  12.181   9.094  10.863  0.0192 -0.0480 -0.1440
    9loPI    C2  130  12.104   9.349  11.162  0.3729  0.0531 -0.1352
    9loPI    C3  131  12.310   9.014  11.233  0.2122 -0.0634 -0.2137
    9loPI   PO4  132  12.180   9.210  10.624  0.3974 -0.0331 -0.1091
    9loPI   GL1  133  11.943   9.304  10.308 -0.2035  0.4284  0.0065
    9loPI   GL2  134  11.836   9.550  10.255 -0.2699  0.1151  0.2948
    9loPI   C1A  135  12.253   9.229   9.982  0.2197  0.2975 -0.0979
    9loPI   C2A  136  12.385   9.233   9.542 -0.1840  0.1182 -0.0776
    9loPI   C3A  137  12.349   9.358   9.152 -0.0138 -0.2484 -0.0496
    9loPI   C4A  138  12.535   9.367   8.659  0.1302  0.2491 -0.0399
    9loPI   C5A  139  12.868   9.361   8.373 -0.0419  0.1340  0.1538
    9loPI   C6A  140  13.150   9.632   8.165  0.2450 -0.3087  0.0974
    9loPI   C1B  141  11.969   9.722   9.900  0.1589 -0.1110 -0.0903
    9loPI   C2B  142  12.081   9.628   9.464 -0.3041  0.1334 -0.0545
    9loPI   C3B  143  12.100   9.732   8.986 -0.0504 -0.0132  0.0902
    9loPI   C4B  144  12.231   9.723   8.651 -0.2281  0.1682 -0.0210
   10loPI    C1  145   8.433   1.306  10.393  0.0900  0.0283  0.2080
   10loPI    C2  146   8.747   1.405  10.621  0.1741  0.3128 -0.0245
   10loPI    C3  147   8.805   1.275  10.247  0.0234  0.1559  0.0058
   10loPI   PO4  148   8.288   1.186  10.493  0.0978  0.0971 -0.3429
   10loPI   GL1  149   8.147   0.775  10.155 -0.2149  0.1088 -0.1705
   10loPI   GL2  150   8.386   0.831  10.024  0.0996  0.0663  0.1584
   10loPI   C1A  151   7.920   0.911   9.829 -0.1442 -0.3643 -0.2001
   10loPI   C2A  152   7.868   0.850   9.490  0.2707  0.1641  0.1976
   10loPI   C3A  153   7.850   0.870   9.019 -0.0712  0.0466  0.0218
   10loPI   C4A  154   7.808   0.932   8.553  0.0315 -0.2360  0.0611
   10loPI   C5A  155   7.896   1.013   8.146 -0.1975  0.0064  0.0776
   10loPI   C6A  156   7.890   0.866   7.770  0.0822 -0.2241 -0.4008
   10loPI   C1B  157   8.351   0.959   9.607 -0.2551 -0.1813 -0.1553
   10loPI   C2B  158   8.257   1.128   9.268 -0.0790 -0.0678  0.2624
   10loPI   C3B  159   8.206   1.235   8.918 -0.1840  0.2613 -0.2649
   10loPI   C4B  160   8.158   1.366   8.498 -0.1648  0.1962  0.3109
   11loPI    C1  161   1.274  11.817  10.954 -0.0941 -0.0302  0.0845
   11loPI    C2  162   0.943  11.592  10.963 -0.1128 -0.0037  0.0606
   11loPI    C3  163   1.295  11.434  11.068 -0.1119 -0.0680 -0.0384
   11loPI   PO4  164   1.274  11.919  10.714  0.1881  0.0930 -0.2371
   11loPI   GL1  165   1.151  11.872  10.365  0.5095  0.4758  0.1767
   11loPI   GL2  166   1.400  11.997  10.246  0.2337  0.1241 -0.0595
   11loPI   C1A  167   1.014  11.744   9.995  0.1613  0.2177 -0.0459
   11loPI   C2A  168   1.344  11.408   9.720  0.2155 -0.2479 -0.0596
   11loPI   C3A  169   1.210  11.179   9.344 -0.0639 -0.0967 -0.3117
   11loPI   C4A  170   1.265  11.143   8.942  0.3326 -0.0412  0.1224
   11loPI   C5A  171   1.369  11.276   8.544  0.0725  0.1485 -0.2329
   11loPI   C6A  172   1.767  11.051   8.396 -0.2230  0.1947  0.0621
   11loPI   C1B  173   1.460  11.872   9.741 -0.1489  0.2520 -0.1333
   11loPI   C2B  174   1.088  11.741   9.455  0.0800  0.2489  0.0684
   11loPI   C3B  175   1.035  11.995   9.082  0.0292  0.0695  0.1557
   11loPI   C4B  176   1.231  12.170   8.710 -0.3754 -0.0026 -0.0961
   12loPI    C1  177  14.201  17.975  10.869 -0.0808 -0.1927 -0.0293
   12loPI    C2  178  13.964  17.840  11.162 -0.2085 -0.1946 -0.1324
   12loPI    C3  179  14.139  18.198  11.196 -0.0207 -0.3019  0.0574
   12loPI   PO4  180  14.054  17.898  10.652 -0.2784  0.5619 -0.1486
   12loPI   GL1  181  14.048  17.560  10.341  0.1672  0.1176 -0.1794
   12loPI   GL2  182  14.192  17.446  10.166  0.5548  0.1055  0.0639
   12loPI   C1A  183  13.797  17.852  10.103  0.1139  0.1861  0.0820
   12loPI   C2A  184  13.697  17.935   9.738  0.0200  0.0739  0.1940
   12loPI   C3A  185  13.806  17.859   9.250 -0.2987 -0.1767  0.3024
   12loPI   C4A  186  13.560  17.608   8.853  0.3022 -0.2232  0.0116
   12loPI   C5A  187  13.338  17.494   8.450  0.0156  0.0972 -0.0086
   12loPI   C6A  188  13.314  17.404   8.098  0.0349 -0.0031 -0.1150
   12loPI   C1B  189  14.180  17.745   9.747 -0.0439  0.1621  0.3730
   12loPI   C2B  190  14.338  17.817   9.323 -0.1513 -0.0090 -0.0961
   12loPI   C3B  191  14.601  17.909   9.043  0.2233 -0.1460  0.2602
   12loPI   C4B  192  14.666  18.278   8.827  0.3069  0.2987 -0.2433
   13loPI    C1  193   6.721   1.151  10.537 -0.1288  0.0001  0.1127
   13loPI    C2  194   6.647   0.801  10.716 -0.1934 -0.0341  0.0203
   13loPI    C3  195   6.967   1.017  10.823 -0.3027  0.0089  0.2685
   13loPI   PO4  196   6.632   1.007  10.241 -0.0664  0.1401 -0.3290
   13loPI   GL1  197   6.209   0.995   9.917  0.0052 -0.0855  0.1607
   13loPI   GL2  198   6.115   1.271   9.587 -0.0386  0.0440 -0.3690
   13loPI   C1A  199   6.172   0.788   9.497  0.0275 -0.0602 -0.0694
   13loPI   C2A  200   6.036   0.729   9.153 -0.1675  0.1463 -0.3445
   13loPI   C3A  201   5.966   0.695   8.803 -0.0696  0.0288  0.2819
   13loPI   C4A  202   5.974   0.692   8.434 -0.3130 -0.1998  0.2884
   13loPI   C5A  203   6.021   0.643   8.026 -0.1149  0.2647  0.1144
   13loPI   C6A  204   5.938   0.868   7.715 -0.0186 -0.2757  0.0498
   13loPI   C1B  205   6.254   1.186   9.182  0.0884  0.0037  0.1588
   13loPI   C2B  206   6.281   1.072   8.702 -0.0626  0.3449  0.0775
   13loPI   C3B  207   6.269   1.136   8.268 -0.0671  0.0457  0.0563
   13loPI   C4B  208   6.273   1.328   7.860 -0.2248 -0.0524  0.0904
   14loPI    C1  209  13.458  13.786  11.146 -0.1785 -0.3729 -0.0158
   14loPI    C2  210  13.753  13.780  11.417 -0.1300 -0.0853 -0.0595
   14loPI    C3  211  13.382  13.674  11.523 -0.0736 -0.1528  0.0724
   14loPI   PO4  212  13.633  13.643  10.879  0.0020 -0.1243 -0.1388
   14loPI   GL1  213  13.823  13.567  10.496 -0.3094  0.2212 -0.1726
   14loPI   GL2  214  14.166  13.576  10.387  0.1318  0.3692 -0.1020
   14loPI   C1A  215  13.754  13.413  10.021 -0.1248  0.0823 -0.1118
   14loPI   C2A  216  13.732  13.295   9.599 -0.1030 -0.1942  0.1158
   14loPI   C3A  217  13.684  13.146   9.226  0.0852  0.2189  0.0509
   14loPI   C4A  218  13.390  13.128   8.900 -0.0028 -0.1967 -0.0768
   14loPI   C5A  219  13.083  12.840   8.657  0.1549 -0.0619 -0.2246
   14loPI   C6A  220  12.920  12.587   8.310  0.1667  0.1829  0.3178
   14loPI   C1B  221  14.213  13.519  10.003 -0.1325 -0.1899 -0.2903
   14loPI   C2B  222  14.247  13.298   9.630  0.3694 -0.0855 -0.0246
   14loPI   C3B  223  14.216  13.233   9.179  0.3008  0.2881  0.1417
   14loPI   C4B  224  14.073  13.186   8.829 -0.1403  0.1553  0.0338
   15loPI    C1  225  12.611  12.670  11.061  0.0699 -0.0927  0.1835
   15loPI    C2  226  12.787  13.015  11.161  0.1020 -0.0610  0.0195
   15loPI    C3  227  12.825  12.696  11.398  0.2846 -0.0218  0.0438
   15loPI   PO4  228  12.654  12.785  10.771 -0.0225  0.0410  0.0691
   15loPI   GL1  229  12.413  12.984  10.402  0.0988 -0.2905 -0.2142
   15loPI   GL2  230  12.073  12.888  10.515  0.2180 -0.3425 -0.0204
   15loPI   C1A  231  12.463  12.593  10.150  0.1136  0.0264  0.0917
   15loPI   C2A  232  12.580  12.260  10.018  0.0687 -0.0498  0.2188
   15loPI   C3A  233  12.712  12.215   9.582  0.1036 -0.0028  0.1587
   15loPI   C4A  234  12.697  12.073   9.136  0.0663 -0.0914  0.0914
   15loPI   C5A  235  12.842  11.878   8.677 -0.0656 -0.0290 -0.0646
   15loPI   C6A  236  12.728  12.047   8.178  0.2530 -0.3234 -0.3386
   15loPI   C1B  237  11.956  12.862  10.101 -0.2329  0.0548  0.0132
   15loPI   C2B  238  11.851  12.885   9.600  0.1107  0.0568  0.1288
   15loPI   C3B  239  11.912  12.782   9.170  0.1220 -0.1547 -0.0989
   15loPI   C4B  240  12.078  12.683   8.748  0.0639 -0.0310  0.1136
   16loPI    C1  241   9.392   8.391  10.743 -0.1653  0.0518 -0.0268
   16loPI    C2  242   9.579   8.053  10.638 -0.0955  0.0455  0.1148
   16loPI    C3  243   9.576   8.169  11.021  0.2104  0.4026  0.0152
   16loPI   PO4  244   9.169   8.339  10.649  0.1468 -0.4197  0.1918
   16loPI   GL1  245   8.922   8.383  10.292  0.0450  0.5100  0.2937
   16loPI   GL2  246   8.670   8.209  10.212  0.1510 -0.1880  0.0264
   16loPI   C1A  247   9.063   8.094   9.909  0.0029 -0.2402  0.0330
   16loPI   C2A  248   9.079   8.044   9.522  0.1422  0.2939  0.2326
   16loPI   C3A  249   9.038   8.172   9.113 -0.0421 -0.1025  0.1106
   16loPI   C4A  250   9.255   8.067   8.851  0.2363 -0.3234 -0.1835
   16loPI   C5A  251   9.485   8.076   8.428  0.2899 -0.0015 -0.1943
   16loPI   C6A  252   9.661   8.137   8.038 -0.1177  0.0392 -0.1001
   16loPI   C1B  253   8.634   8.329   9.733 -0.1420  0.0649 -0.2348
   16loPI   C2B  254   8.607   8.354   9.235  0.1970 -0.1243 -0.0496
   16loPI   C3B  255   8.696   8.357   8.837 -0.0825 -0.0216  0.2060
   16loPI   C4B  256   8.881   8.506   8.442 -0.0815  0.0421  0.0222
   17loPI    C1  257  15.838   3.870  10.512 -0.0635  0.2093  0.1359
   17loPI    C2  258  15.803   3.572  10.777 -0.1368  0.0826 -0.0144
   17loPI    C3  259  15.859   3.948  10.904  0.2316 -0.0300  0.1714
   17loPI   PO4  260  15.971   3.745  10.314 -0.2951  0.0761 -0.1866
   17loPI   GL1  261  16.451   3.713  10.225 -0.0700 -0.2070  0.1244
   17loPI   GL2  262  16.651   3.500  10.071 -0.1318  0.1218  0.1819
   17loPI   C1A  263  16.417   3.858   9.740 -0.0254  0.3401 -0.1265
   17loPI   C2A  264  16.349   3.746   9.283  0.0524 -0.2459  0.1520
   17loPI   C3A  265  16.577   3.561   8.901 -0.0245 -0.0243 -0.1811
   17loPI   C4A  266  16.720   3.310   8.616 -0.1945 -0.1308 -0.2187
   17loPI   C5A  267  16.875   3.126   8.264 -0.0373  0.0111  0.0953
   17loPI   C6A  268  16.832   3.392   7.936 -0.1531 -0.0410  0.2982
   17loPI   C1B  269  16.925   3.524   9.693 -0.1529  0.0167 -0.1562
   17loPI   C2B  270  16.951   3.463   9.271  0.0559 -0.1856 -0.2595
   17loPI   C3B  271  17.152   3.555   8.845  0.2425  0.1247  0.2722
   17loPI   C4B  272  17.208   3.552   8.404  0.1082 -0.0767  0.1288
   18loPI    C1  273   3.225  14.137  10.686  0.2643 -0.2327 -0.0384
   18loPI    C2  274   3.344  13.802  10.871  0.2516 -0.2625 -0.0839
   18loPI    C3  275   3.484  14.158  10.990  0.0898 -0.2638  0.1145
   18loPI   PO4  276   3.193  14.110  10.403 -0.0414  0.1761 -0.0952
   18loPI   GL1  277   3.321  13.859  10.012  0.0337  0.1581 -0.2320
   18loPI   GL2  278   3.461  13.606   9.998 -0.0412 -0.0346  0.2218
   18loPI   C1A  279   3.251  14.036   9.710 -0.0532  0.2466  0.0260
   18loPI   C2A  280   3.449  14.110   9.312  0.0539 -0.0501  0.0431
   18loPI   C3A  281   3.323  14.286   8.930  0.1544  0.1958 -0.0213
   18loPI   C4A  282   3.391  14.235   8.430  0.1655  0.1362  0.0004
   18loPI   C5A  283   3.194  14.372   8.125 -0.2230 -0.1314  0.2419
   18loPI   C6A  284   3.000  14.646   7.892 -0.2028  0.2163 -0.0852
   18loPI   C1B  285   3.519  13.630   9.513  0.3711  0.0272 -0.0736
   18loPI   C2B  286   3.478  13.715   9.093  0.0586  0.0705 -0.1080
   18loPI   C3B  287   3.496  13.676   8.711  0.1571 -0.0020  0.1446
   18loPI   C4B  288   3.641  13.858   8.289 -0.2299 -0.0217  0.0295
   19loPI    C1  289   8.037   6.736  10.711 -0.0856 -0.0513  0.2515
   19loPI    C2  290   8.090   6.956  11.041 -0.1745  0.0569  0.1943
   19loPI    C3  291   7.743   6.973  10.843 -0.1011  0.0359  0.0629
   19loPI   PO4  292   8.273   6.842  10.519  0.0213  0.1260  0.1201
   19loPI   GL1  293   8.325   7.040  10.222  0.1112  0.1794 -0.2368
   19loPI   GL2  294   8.250   7.241  10.066  0.3590 -0.1191 -0.0015
   19loPI   C1A  295   8.672   7.034  10.112 -0.3799 -0.1736  0.1423
   19loPI   C2A  296   9.048   7.013   9.785 -0.1708  0.2734 -0.1218
   19loPI   C3A  297   9.159   7.106   9.414  0.3017  0.0569  0.0125
   19loPI   C4A  298   9.184   7.105   8.970 -0.4800 -0.0065  0.0179
   19loPI   C5A  299   9.269   7.073   8.501 -0.1476  0.1587  0.1269
   19loPI   C6A  300   9.290   6.790   8.191  0.3779 -0.2209 -0.1392
   19loPI   C1B  301   8.471   7.305   9.733  0.1097 -0.1676 -0.0379
   19loPI   C2B  302   8.375   7.422   9.367 -0.0958 -0.1358 -0.1097
   19loPI   C3B  303   8.353   7.538   8.906 -0.3287  0.0221 -0.1978
   19loPI   C4B  304   8.364   7.395   8.497 -0.0248  0.2533 -0.3815
   20loPI    C1  305  15.538   6.697  10.317  0.0738 -0.0738 -0.0946
   20loPI    C2  306  15.659   6.498  10.643 -0.0471 -0.1374 -0.0880
   20loPI    C3  307  15.558   6.885  10.669  0.0258 -0.1197 -0.0674
   20loPI   PO4  308  15.369   6.561  10.240 -0.1299 -0.2205  0.1883
   20loPI   GL1  309  15.406   6.553   9.794 -0.1703 -0.0427 -0.0805
   20loPI   GL2  310  15.668   6.412   9.708 -0.0724 -0.1394 -0.3709
   20loPI   C1A  311  15.359   6.537   9.306 -0.1939 -0.0549 -0.0744
   20loPI   C2A  312  15.476   6.578   8.963  0.1418 -0.3049 -0.2099
   20loPI   C3A  313  15.632   6.573   8.494  0.1479 -0.0511 -0.2944
   20loPI   C4A  314  15.731   6.877   8.241  0.2312  0.0555 -0.1272
   20loPI   C5A  315  16.136   6.751   8.088 -0.0829  0.0205  0.0825
   20loPI   C6A  316  16.194   6.492   7.760  0.0191 -0.1008 -0.1172
   20loPI   C1B  317  15.917   6.350   9.419 -0.0285  0.1146  0.1841
   20loPI   C2B  318  15.888   6.310   9.019  0.2480  0.0244  0.0930
   20loPI   C3B  319  15.933   6.215   8.669 -0.5566  0.0575  0.0011
   20loPI   C4B  320  15.909   6.270   8.229  0.1969 -0.1190  0.1656
   21loPI    C1  321  11.130   5.479  10.800 -0.1734  0.1036  0.0771
   21loPI    C2  322  11.353   5.754  10.986  0.2983 -0.2520  0.0543
   21loPI    C3  323  11.283   5.401  11.162 -0.1241 -0.2030 -0.0072
   21loPI   PO4  324  11.182   5.354  10.596  0.0819 -0.4694  0.0583
   21loPI   GL1  325  11.434   4.985  10.301  0.2242 -0.1143 -0.0776
   21loPI   GL2  326  11.567   5.274  10.200  0.1233  0.1014 -0.2740
   21loPI   C1A  327  11.192   4.936   9.911  0.3193 -0.0184  0.3346
   21loPI   C2A  328  11.178   5.027   9.500  0.2414  0.0734 -0.2920
   21loPI   C3A  329  11.232   4.950   9.025 -0.3224 -0.2199  0.1970
   21loPI   C4A  330  11.359   5.102   8.638  0.3202  0.1310 -0.1045
   21loPI   C5A  331  11.626   5.366   8.361  0.2362  0.2544  0.1227
   21loPI   C6A  332  11.931   5.620   8.298  0.2090  0.1400  0.2159
   21loPI   C1B  333  11.603   5.108   9.834 -0.1210  0.1408 -0.0727
   21loPI   C2B  334  11.653   4.961   9.445  0.2101 -0.2129 -0.1470
   21loPI   C3B  335  11.746   5.070   8.988  0.1257 -0.0421  0.0956
   21loPI   C4B  336  12.010   4.911   8.621 -0.0363 -0.1197  0.0501
   22loPI    C1  337  12.475  17.522  11.019  0.1359 -0.1722  0.1331
   22loPI    C2  338  12.118  17.352  10.959  0.1383 -0.0456 -0.2683
   22loPI    C3  339  12.439  17.124  11.026  0.0002 -0.1630  0.0112
   22loPI   PO4  340  12.466  17.719  10.920 -0.0528 -0.0410  0.2008
   22loPI   GL1  341  12.450  17.826  10.536  0.1192 -0.2147  0.1192
   22loPI   GL2  342  12.500  18.039  10.510 -0.0421 -0.2417  0.1143
   22loPI   C1A  343  12.676  17.723  10.125 -0.2257  0.0002 -0.1286
   22loPI   C2A  344  12.709  17.736   9.744  0.5097  0.1418 -0.1349
   22loPI   C3A  345  12.800  17.831   9.357 -0.2756  0.0858 -0.2036
   22loPI   C4A  346  12.698  17.948   8.893 -0.1377 -0.1697 -0.0606
   22loPI   C5A  347  12.528  17.991   8.506 -0.1031  0.1281  0.1575
   22loPI   C6A  348  12.683  18.233   8.206 -0.0500  0.0804 -0.3680
   22loPI   C1B  349  12.403  18.179  10.141  0.1000 -0.3597  0.0944
   22loPI   C2B  350  12.409  18.171   9.660 -0.0074 -0.1288  0.2432
   22loPI   C3B  351  12.466  18.202   9.269 -0.1237 -0.0361  0.0998
   22loPI   C4B  352  12.281  18.293   8.863  0.2969 -0.2086 -0.2345
   23loPI    C1  353   5.517  10.904  10.941  0.0660  0.2367 -0.0588
   23loPI    C2  354   5.818  10.656  11.029  0.1569  0.4185  0.1524
   23loPI    C3  355   5.451  10.580  11.167  0.1446  0.3010  0.0573
   23loPI   PO4  356   5.633  10.958  10.610  0.0174  0.1104  0.1018
   23loPI   GL1  357   5.461  10.998  10.142  0.0580  0.0906 -0.0237
   23loPI   GL2  358   5.659  11.315  10.042 -0.3203  0.0423  0.1828
   23loPI   C1A  359   5.376  10.904   9.744  0.0422  0.0440  0.0396
   23loPI   C2A  360   5.245  11.006   9.284 -0.1028 -0.2148  0.1600
   23loPI   C3A  361   5.223  11.012   8.833 -0.2969  0.1565 -0.1928
   23loPI   C4A  362   5.336  11.096   8.380 -0.1875  0.1364 -0.1205
   23loPI   C5A  363   5.192  11.396   8.056 -0.0327 -0.2564 -0.2856
   23loPI   C6A  364   5.165  11.419   7.670  0.1616  0.2784  0.0358
   23loPI   C1B  365   5.528  11.394   9.594 -0.2500 -0.1103 -0.0894
   23loPI   C2B  366   5.407  11.505   9.275  0.0760 -0.0722 -0.0430
   23loPI   C3B  367   5.406  11.500   8.856  0.0600 -0.2026 -0.1373
   23loPI   C4B  368   5.318  11.782   8.511  0.2279 -0.0401  0.2274
   24loPI    C1  369  14.987   7.421  10.695  0.2703  0.1612  0.3377
   24loPI    C2  370  15.005   7.769  10.499  0.1855 -0.0179  0.0047
   24loPI    C3  371  14.751   7.725  10.804  0.1120  0.1742 -0.0271
   24loPI   PO4  372  15.194   7.311  10.654  0.0641 -0.0907 -0.1585
   24loPI   GL1  373  15.273   7.174  10.205 -0.1797 -0.0712 -0.1962
   24loPI   GL2  374  14.996   7.369  10.226  0.1574  0.1832 -0.0418
   24loPI   C1A  375  15.599   7.289   9.905  0.3708  0.0151  0.1804
   24loPI   C2A  376  15.874   7.338   9.459  0.2150 -0.0153  0.1547
   24loPI   C3A  377  16.078   7.439   9.004 -0.1865  0.0838  0.0148
   24loPI   C4A  378  16.151   7.737   8.690 -0.2316 -0.2389  0.1283
   24loPI   C5A  379  16.291   7.796   8.238 -0.0102  0.0004 -0.0513
   24loPI   C6A  380  16.166   7.646   7.931 -0.0184  0.0773 -0.2483
   24loPI   C1B  381  14.942   7.499   9.857 -0.1549 -0.0910  0.2359
   24loPI   C2B  382  14.964   7.522   9.375  0.0931  0.0738  0.0226
   24loPI   C3B  383  15.050   7.546   8.992  0.1773  0.1202 -0.2143
   24loPI   C4B  384  15.149   7.472   8.526  0.2425  0.2082 -0.2590
   25loPI    C1  385   9.979   4.580  10.519  0.0881 -0.0725  0.1732
   25loPI    C2  386  10.110   4.881  10.748 -0.2130  0.2913 -0.1192
   25loPI    C3  387   9.779   4.680  10.851 -0.0811  0.1380  0.0108
   25loPI   PO4  388  10.234   4.551  10.395 -0.3337 -0.0808 -0.1395
   25loPI   GL1  389  10.290   5.017  10.283 -0.1206  0.1912 -0.0900
   25loPI   GL2  390  10.047   4.995  10.088 -0.0710  0.0216 -0.0454
   25loPI   C1A  391  10.598   5.021   9.916  0.1873 -0.1235  0.0939
   25loPI   C2A  392  10.729   4.847   9.612 -0.2204 -0.1290  0.0229
   25loPI   C3A  393  10.769   4.900   9.230  0.1155  0.4284 -0.0264
   25loPI   C4A  394  10.867   4.707   8.768  0.3115 -0.0280 -0.0427
   25loPI   C5A  395  11.090   4.807   8.362 -0.1038 -0.0240 -0.0575
   25loPI   C6A  396  11.367   5.049   8.055 -0.0778 -0.0862  0.0712
   25loPI   C1B  397  10.188   5.232   9.757 -0.0409 -0.0347  0.0597
   25loPI   C2B  398  10.338   5.148   9.401 -0.0553  0.3225  0.0947
   25loPI   C3B  399  10.289   5.163   9.007  0.2088  0.1799 -0.2628
   25loPI   C4B  400  10.092   4.792   8.661  0.0328 -0.1549  0.0153
   26loPI    C1  401   8.780  15.615  10.746  0.0443  0.1650 -0.1590
   26loPI    C2  402   8.824  15.248  10.592  0.3628  0.2084 -0.1786
   26loPI    C3  403   8.613  15.300  10.929  0.2600  0.0179 -0.2120
   26loPI   PO4  404   8.780  15.786  10.555 -0.0485  0.1512  0.0702
   26loPI   GL1  405   8.842  15.948  10.180  0.0685  0.3195  0.1191
   26loPI   GL2  406   8.749  16.281  10.216  0.2484 -0.4245  0.2516
   26loPI   C1A  407   8.575  15.861   9.851  0.1637 -0.0476  0.1458
   26loPI   C2A  408   8.725  15.739   9.331 -0.1764  0.0382  0.0674
   26loPI   C3A  409   8.717  15.788   8.811  0.1713 -0.1777 -0.0132
   26loPI   C4A  410   8.788  15.644   8.404 -0.1161 -0.4293  0.0923
   26loPI   C5A  411   8.971  15.399   8.123  0.2830  0.2271  0.0922
   26loPI   C6A  412   9.232  15.178   7.971  0.2177 -0.3343  0.4063
   26loPI   C1B  413   9.065  16.226   9.834 -0.3780  0.3933 -0.2300
   26loPI   C2B  414   9.083  16.073   9.440 -0.0768  0.1582  0.0695
   26loPI   C3B  415   9.144  16.041   9.029  0.5105 -0.0431  0.0016
   26loPI   C4B  416   9.482  15.871   8.912 -0.0993 -0.3118  0.1621
   27loPI    C1  417   1.741   9.087  10.960 -0.0301  0.0632  0.2759
   27loPI    C2  418   1.457   8.884  11.155 -0.0021 -0.0743  0.1751
   27loPI    C3  419   1.830   8.895  11.300  0.0544 -0.3041  0.0525
   27loPI   PO4  420   1.591   9.032  10.654  0.1446 -0.0253  0.2800
   27loPI   GL1  421   1.516   9.309  10.235  0.1411 -0.0516 -0.2302
   27loPI   GL2  422   1.758   8.991  10.071  0.0248  0.3159  0.0210
   27loPI   C1A  423   1.289   9.199   9.769  0.2021  0.2813  0.1226
   27loPI   C2A  424   1.586   9.038   9.433  0.2129  0.5082  0.1184
   27loPI   C3A  425   1.632   8.993   8.998 -0.3417 -0.1034  0.1248
   27loPI   C4A  426   1.455   8.936   8.559 -0.0806  0.2503 -0.0352
   27loPI   C5A  427   1.182   8.856   8.250  0.1200 -0.1436  0.1655
   27loPI   C6A  428   0.840   8.755   8.085 -0.1581 -0.1160  0.2723
   27loPI   C1B  429   1.754   9.417   9.799 -0.1757  0.1972 -0.1460
   27loPI   C2B  430   1.838   9.580   9.403 -0.2703  0.2433  0.0737
   27loPI   C3B  431   1.648   9.437   9.083 -0.0599 -0.0047  0.1201
   27loPI   C4B  432   1.605   9.370   8.712  0.1943 -0.0127  0.2140
   28loPI    C1  433  10.496   0.779  10.752 -0.1936 -0.0483 -0.0056
   28loPI    C2  434  10.891   0.742  10.703 -0.1134  0.2570  0.3631
   28loPI    C3  435  10.691   0.473  10.920 -0.1295  0.0469  0.0941
   28loPI   PO4  436  10.428   0.753  10.465  0.4108 -0.2019 -0.4691
   28loPI   GL1  437  10.676   0.751  10.124 -0.1100 -0.0708 -0.3273
   28loPI   GL2  438  10.892   0.930  10.201  0.0779  0.0843 -0.0349
   28loPI   C1A  439  10.763   0.776   9.679 -0.0843  0.3252 -0.0372
   28loPI   C2A  440  10.768   0.953   9.275 -0.0705  0.0782 -0.0863
   28loPI   C3A  441  10.692   0.953   8.945 -0.0645 -0.1060  0.0041
   28loPI   C4A  442  10.536   1.161   8.589  0.0725  0.0143  0.3993
   28loPI   C5A  443  10.855   1.191   8.064  0.1444 -0.0851 -0.1287
   28loPI   C6A  444  10.804   1.305   7.624  0.1473 -0.5436 -0.0269
   28loPI   C1B  445  11.165   0.997   9.985  0.2934 -0.1556 -0.1731
   28loPI   C2B  446  11.203   0.993   9.523 -0.1148  0.1864  0.1112
   28loPI   C3B  447  11.287   1.036   9.022  0.0394  0.1654 -0.1564
   28loPI   C4B  448  11.300   0.802   8.636 -0.0226 -0.0390  0.3056
   29loPI    C1  449  17.605  16.326  10.696  0.0593  0.1524  0.0705
   29loPI    C2  450  17.526  16.329  11.088 -0.2640 -0.0422  0.0109
   29loPI    C3  451  17.887  16.216  10.956 -0.1835 -0.0646  0.2464
   29loPI   PO4  452  17.510  16.518  10.539  0.0403 -0.1281 -0.0254
   29loPI   GL1  453  17.459  16.601  10.151  0.0730 -0.1084  0.3014
   29loPI   GL2  454  17.757  16.568  10.060  0.1598  0.0532  0.0638
   29loPI   C1A  455  17.277  16.648   9.807  0.0079 -0.0279  0.2042
   29loPI   C2A  456  17.030  16.591   9.461  0.2012  0.1600 -0.0178
   29loPI   C3A  457  17.074  16.627   8.998 -0.4108 -0.2371 -0.0284
   29loPI   C4A  458  17.082  16.742   8.563 -0.0221 -0.2672  0.1508
   29loPI   C5A  459  16.796  16.882   8.131 -0.2458 -0.1454 -0.1470
   29loPI   C6A  460  16.568  16.824   7.740  0.3542  0.3855  0.3011
   29loPI   C1B  461  17.700  16.500   9.590  0.2094 -0.0428 -0.0682
   29loPI   C2B  462  17.498  16.371   9.237  0.5150 -0.3684 -0.1374
   29loPI   C3B  463  17.391  16.157   8.919  0.0693 -0.2363  0.0806
   29loPI   C4B  464  17.249  16.097   8.575  0.0246  0.0725  0.0413
   30loPI    C1  465   4.777   3.404  10.410 -0.0836  0.0960  0.1462
   30loPI    C2  466   4.966   3.589  10.710 -0.1208 -0.0007  0.2301
   30loPI    C3  467   4.995   3.192  10.670  0.0572  0.0349 -0.0196
   30loPI   PO4  468   4.829   3.581  10.225  0.0081 -0.0353  0.1958
   30loPI   GL1  469   5.128   3.556   9.817 -0.3949 -0.2377  0.1036
   30loPI   GL2  470   5.027   3.850   9.872 -0.2004  0.0211 -0.1954
   30loPI   C1A  471   5.219   3.418   9.361 -0.0685 -0.3116  0.1627
   30loPI   C2A  472   5.261   3.424   9.011  0.0805 -0.0700  0.4320
   30loPI   C3A  473   5.183   3.310   8.613 -0.1354  0.1710 -0.1302
   30loPI   C4A  474   5.167   3.125   8.324 -0.0917  0.0580  0.1327
   30loPI   C5A  475   5.240   3.207   7.891  0.0851 -0.2942  0.0780
   30loPI   C6A  476   5.559   3.271   7.628  0.0693 -0.1014  0.3413
   30loPI   C1B  477   4.903   4.044   9.429  0.0787  0.0701 -0.0200
   30loPI   C2B  478   4.657   4.068   9.095 -0.0659 -0.0835  0.2784
   30loPI   C3B  479   4.630   4.196   8.676 -0.2647 -0.1765 -0.2158
   30loPI   C4B  480   4.639   4.330   8.137  0.2189  0.0457  0.0009
   31loPI    C1  481  14.491  10.800  10.979  0.2056 -0.0045  0.0008
   31loPI    C2  482  14.123  10.945  10.919  0.1831 -0.0875 -0.0634
   31loPI    C3  483  14.325  11.044  11.249  0.1328  0.0184 -0.0640
   31loPI   PO4  484  14.595  10.852  10.761  0.0743  0.1414  0.0065
   31loPI   GL1  485  14.407  11.045  10.470  0.1150 -0.0459 -0.0385
   31loPI   GL2  486  14.078  11.125  10.245  0.2908  0.1267  0.0621
   31loPI   C1A  487  14.485  11.359  10.083  0.0232 -0.0409 -0.0676
   31loPI   C2A  488  14.395  11.425   9.631  0.0316  0.1670 -0.2424
   31loPI   C3A  489  14.387  11.373   9.272  0.0368  0.3096 -0.0899
   31loPI   C4A  490  14.399  11.294   8.814 -0.2134  0.0171  0.2405
   31loPI   C5A  491  14.433  11.139   8.376 -0.3196 -0.0403 -0.1510
   31loPI   C6A  492  14.220  10.892   8.079 -0.0819 -0.2131  0.0096
   31loPI   C1B  493  14.186  11.002   9.824 -0.5787  0.2223 -0.0652
   31loPI   C2B  494  14.125  10.980   9.397  0.0396 -0.1196  0.1150
   31loPI   C3B  495  14.156  10.811   9.114  0.2227  0.0567 -0.1583
   31loPI   C4B  496  14.083  10.875   8.607  0.0311 -0.1417 -0.0333
   32loPI    C1  497   4.132   3.953  10.599  0.1042 -0.1457 -0.0132
   32loPI    C2  498   4.512   3.831  10.587  0.1047 -0.1349 -0.1176
   32loPI    C3  499   4.218   3.577  10.493  0.0861 -0.1419 -0.0412
   32loPI   PO4  500   4.058   4.211  10.458  0.1680 -0.0647  0.0804
   32loPI   GL1  501   4.072   4.386  10.029  0.1515  0.2538  0.0663
   32loPI   GL2  502   3.912   4.543   9.758 -0.1034 -0.2348 -0.0400
   32loPI   C1A  503   4.189   4.055   9.634  0.1122 -0.2340 -0.0031
   32loPI   C2A  504   3.814   3.852   9.443 -0.1700 -0.1203 -0.1307
   32loPI   C3A  505   3.835   3.838   8.961  0.2915 -0.0258  0.1212
   32loPI   C4A  506   3.852   3.561   8.577 -0.1704  0.5835  0.2380
   32loPI   C5A  507   3.913   3.651   8.130 -0.1013 -0.0258  0.2660
   32loPI   C6A  508   4.293   3.934   8.034 -0.1162 -0.1028  0.0864
   32loPI   C1B  509   3.834   4.307   9.395 -0.2159 -0.1675 -0.0134
   32loPI   C2B  510   3.768   4.413   8.940 -0.2596 -0.1958 -0.0051
   32loPI   C3B  511   3.670   4.431   8.495  0.0153  0.1081 -0.3462
   32loPI   C4B  512   3.915   4.553   8.068  0.0683  0.2176  0.0041
   33loPI    C1  513   2.534  15.366  10.908  0.1695  0.1275  0.2421
   33loPI    C2  514   2.406  15.054  11.123  0.0032  0.0041 -0.0304
   33loPI    C3  515   2.500  15.398  11.305  0.3208 -0.2446  0.2886
   33loPI   PO4  516   2.416  15.363  10.708  0.0003 -0.0092  0.0020
   33loPI   GL1  517   2.586  15.550  10.362  0.0659 -0.0486 -0.0750
   33loPI   GL2  518   2.889  15.767  10.304  0.2478  0.1294  0.1124
   33loPI   C1A  519   2.532  15.358   9.969  0.0880  0.0709 -0.0241
   33loPI   C2A  520   2.490  15.243   9.543 -0.2565 -0.1563  0.0170
   33loPI   C3A  521   2.547  15.327   9.082  0.1796  0.2042 -0.2282
   33loPI   C4A  522   2.256  15.142   8.698 -0.1662  0.0669 -0.3286
   33loPI   C5A  523   1.830  15.050   8.516  0.0971 -0.0853  0.1116
   33loPI   C6A  524   1.669  15.429   8.295 -0.0102  0.2074  0.0951
   33loPI   C1B  525   2.865  15.699   9.860 -0.0524  0.0553 -0.0950
   33loPI   C2B  526   2.854  15.616   9.477 -0.0706  0.2933 -0.3678
   33loPI   C3B  527   2.897  15.702   9.119  0.1248 -0.2695 -0.3521
   33loPI   C4B  528   3.047  15.749   8.690 -0.0955 -0.0399  0.1429
   34loPI    C1  529   2.349   0.144  10.626 -0.0011  0.4471 -0.1290
   34loPI    C2  530   2.559   0.045  10.952 -0.2541  0.1509 -0.0511
   34loPI    C3  531   2.748   0.159  10.619  0.0245  0.0013  0.0531
   34loPI   PO4  532   2.199  -0.096  10.584 -0.0254  0.0713  0.2755
   34loPI   GL1  533   2.034  -0.008  10.123 -0.0030  0.2094  0.0963
   34loPI   GL2  534   1.739   0.022  10.137  0.1613  0.1252 -0.0447
   34loPI   C1A  535   2.170  -0.335   9.830  0.1587 -0.0536  0.2656
   34loPI   C2A  536   2.073  -0.209   9.308 -0.1657 -0.0233 -0.0121
   34loPI   C3A  537   2.053  -0.231   8.884 -0.2265  0.1495  0.1942
   34loPI   C4A  538   2.103  -0.202   8.417 -0.0010 -0.0244  0.0326
   34loPI   C5A  539   2.387  -0.327   8.106 -0.2027  0.2885  0.1030
   34loPI   C6A  540   2.579  -0.461   7.677  0.0674  0.4033  0.0884
   34loPI   C1B  541   1.643  -0.203   9.840 -0.1655  0.0403  0.0169
   34loPI   C2B  542   1.370  -0.450   9.979  0.1296  0.3800  0.2162
   34loPI   C3B  543   1.122  -0.397   9.567 -0.2331  0.0373  0.0270
   34loPI   C4B  544   0.686  -0.235   9.408 -0.0637  0.3691 -0.1365
   35loPI    C1  545   7.474  13.576  10.445 -0.2019  0.2450 -0.2508
   35loPI    C2  546   7.315  13.798  10.737 -0.0524  0.1606 -0.1030
   35loPI    C3  547   7.706  13.825  10.656 -0.0162 -0.1091 -0.0266
   35loPI   PO4  548   7.349  13.544  10.320  0.0096  0.0229 -0.1103
   35loPI   GL1  549   7.098  13.491   9.986 -0.1964 -0.0282  0.0798
   35loPI   GL2  550   6.841  13.426   9.939  0.0100  0.0431  0.0391
   35loPI   C1A  551   7.154  13.468   9.539 -0.0857  0.0366  0.0358
   35loPI   C2A  552   7.047  13.318   9.146  0.3597  0.2611 -0.0266
   35loPI   C3A  553   6.941  13.435   8.739 -0.0147 -0.2672  0.3448
   35loPI   C4A  554   6.697  13.687   8.547 -0.0623 -0.0340  0.0827
   35loPI   C5A  555   6.486  13.668   8.108  0.2972  0.1805  0.2620
   35loPI   C6A  556   6.515  13.429   7.830 -0.0902  0.2920  0.0787
   35loPI   C1B  557   6.626  13.392   9.520 -0.2243  0.4880 -0.0412
   35loPI   C2B  558   6.561  13.309   9.131  0.0611 -0.1721 -0.0146
   35loPI   C3B  559   6.496  13.210   8.686  0.5093  0.3673  0.1051
   35loPI   C4B  560   6.420  12.902   8.257 -0.0014 -0.0585  0.1548
   36loPI    C1  561  15.727   8.850  11.130 -0.1620  0.0177  0.0196
   36loPI    C2  562  15.662   8.756  11.513 -0.2270  0.2558  0.0691
   36loPI    C3  563  16.036   8.769  11.371 -0.2154 -0.0620  0.0617
   36loPI   PO4  564  15.594   8.779  10.921 -0.1937 -0.0200 -0.1168
   36loPI   GL1  565  15.696   8.640  10.520  0.0173  0.1269  0.0379
   36loPI   GL2  566  15.904   8.770  10.168 -0.0013  0.1278  0.2206
   36loPI   C1A  567  15.455   8.614  10.115 -0.0959 -0.2462  0.0438
   36loPI   C2A  568  15.579   8.549   9.812 -0.0999 -0.1191  0.1003
   36loPI   C3A  569  15.640   8.545   9.297  0.1930 -0.0475 -0.1581
   36loPI   C4A  570  15.716   8.494   8.898  0.1332 -0.1806 -0.1963
   36loPI   C5A  571  15.652   8.346   8.574 -0.0760 -0.1028  0.2878
   36loPI   C6A  572  15.776   8.469   8.233 -0.1199  0.0173  0.0452
   36loPI   C1B  573  15.955   8.875   9.674 -0.1589 -0.3637  0.3752
   36loPI   C2B  574  15.951   8.917   9.133  0.1647  0.0766 -0.1238
   36loPI   C3B  575  15.944   8.924   8.743  0.1598  0.0804  0.2497
   36loPI   C4B  576  15.819   8.975   8.261  0.0236  0.4101 -0.1472
   37loPI    C1  577   6.240  12.801  10.664  0.1608 -0.1978  0.1675
   37loPI    C2  578   5.945  12.997  10.850 -0.0511 -0.0643 -0.2950
   37loPI    C3  579   6.183  12.751  11.057 -0.3013  0.0477  0.1386
   37loPI   PO4  580   6.187  12.766  10.449  0.1303 -0.2423 -0.0731
   37loPI   GL1  581   6.218  12.997   9.961  0.0149 -0.0725 -0.1835
   37loPI   GL2  582   6.568  12.945   9.825 -0.2879  0.1193 -0.0748
   37loPI   C1A  583   6.110  13.100   9.546  0.2430  0.4354 -0.1114
   37loPI   C2A  584   6.068  12.993   9.073 -0.1732  0.1007 -0.1895
   37loPI   C3A  585   5.948  13.035   8.781  0.0427  0.0070 -0.0611
   37loPI   C4A  586   5.699  13.205   8.444  0.2837 -0.0229 -0.2629
   37loPI   C5A  587   5.454  13.349   8.096  0.0877  0.2224  0.0527
   37loPI   C6A  588   5.709  13.635   7.890 -0.0934 -0.1249 -0.1305
   37loPI   C1B  589   6.459  12.724   9.389  0.1815 -0.3684 -0.1372
   37loPI   C2B  590   6.456  12.654   8.947  0.0757 -0.2640  0.1766
   37loPI   C3B  591   6.253  12.693   8.627 -0.1637  0.1307  0.2543
   37loPI   C4B  592   5.877  12.530   8.489  0.0229 -0.2030  0.2337
   38loPI    C1  593   7.872  12.692  10.406  0.3506 -0.0696  0.0282
   38loPI    C2  594   7.935  12.779  10.791 -0.0148  0.0114  0.0737
   38loPI    C3  595   7.755  12.436  10.690  0.0264  0.0175 -0.0222
   38loPI   PO4  596   8.088  12.698  10.145  0.2128  0.2032 -0.1296
   38loPI   GL1  597   7.953  12.639   9.780 -0.0062  0.0798  0.0156
   38loPI   GL2  598   7.786  12.860   9.731 -0.0591 -0.0299  0.0305
   38loPI   C1A  599   8.298  12.893   9.633 -0.1814 -0.3357 -0.0670
   38loPI   C2A  600   8.377  12.884   9.098  0.0024 -0.0848 -0.3070
   38loPI   C3A  601   8.437  13.076   8.749  0.0367  0.0058 -0.2615
   38loPI   C4A  602   8.241  13.149   8.341 -0.0175  0.0980 -0.1719
   38loPI   C5A  603   8.103  12.842   8.126 -0.1449  0.3009  0.0274
   38loPI   C6A  604   7.718  12.617   8.072  0.2101 -0.2543 -0.0408
   38loPI   C1B  605   7.930  12.962   9.295  0.3023  0.3533  0.5347
   38loPI   C2B  606   7.930  12.904   8.923  0.1901 -0.2475  0.0179
   38loPI   C3B  607   7.734  13.060   8.532  0.0002  0.0164  0.0780
   38loPI   C4B  608   7.865  13.520   8.277 -0.1324  0.3094 -0.1659
   39loPI    C1  609  17.485  15.028  11.096 -0.0623  0.1156  0.1387
   39loPI    C2  610  17.318  14.717  11.284 -0.1448  0.1082  0.0539
   39loPI    C3  611  17.625  14.911  11.452 -0.0958 -0.0160  0.1092
   39loPI   PO4  612  17.530  14.902  10.790  0.3153  0.1390  0.0401
   39loPI   GL1  613  17.526  14.763  10.401  0.0575 -0.0661  0.2064
   39loPI   GL2  614  17.297  14.520  10.287  0.0885  0.2804 -0.1124
   39loPI   C1A  615  17.574  15.039  10.019 -0.2429  0.0712 -0.0137
   39loPI   C2A  616  17.610  15.239   9.605 -0.0995 -0.1302 -0.1003
   39loPI   C3A  617  17.453  15.451   9.259  0.2269 -0.1058 -0.2347
   39loPI   C4A  618  17.476  15.673   8.848  0.2044  0.0722 -0.1357
   39loPI   C5A  619  17.797  15.442   8.524  0.0959 -0.2007 -0.3420
   39loPI   C6A  620  18.019  15.746   8.235 -0.0062  0.1172  0.0387
   39loPI   C1B  621  17.434  14.632   9.895  0.2191 -0.0496 -0.0284
   39loPI   C2B  622  17.492  14.791   9.468 -0.0152  0.0031  0.1167
   39loPI   C3B  623  17.516  14.998   9.178 -0.1902  0.2292  0.4357
   39loPI   C4B  624  17.614  15.170   8.877 -0.2188  0.0940 -0.2026
   40loPI    C1  625  11.926  13.212  11.142  0.0331 -0.0294 -0.0432
   40loPI    C2  626  11.752  12.996  11.430  0.0242 -0.0239 -0.0445
   40loPI    C3  627  11.765  13.395  11.459 -0.2568 -0.0002 -0.2036
   40loPI   PO4  628  11.825  13.171  10.860  0.2108 -0.0278  0.2014
   40loPI   GL1  629  11.691  13.255  10.416  0.1220  0.2110  0.1192
   40loPI   GL2  630  11.867  13.374  10.187 -0.2923 -0.0481  0.2435
   40loPI   C1A  631  11.500  13.083  10.024 -0.1155 -0.1156  0.0373
   40loPI   C2A  632  11.367  12.967   9.547 -0.0488  0.0043 -0.0707
   40loPI   C3A  633  11.417  12.775   9.205  0.1772 -0.2809  0.2041
   40loPI   C4A  634  11.275  12.451   8.872 -0.0464 -0.1177  0.0253
   40loPI   C5A  635  10.999  12.336   8.434 -0.2622  0.0218 -0.0835
   40loPI   C6A  636  11.013  11.977   8.219 -0.2516  0.0896 -0.1270
   40loPI   C1B  637  11.893  13.396   9.800  0.1132  0.0349  0.0883
   40loPI   C2B  638  12.037  13.282   9.406 -0.2240  0.1701 -0.0312
   40loPI   C3B  639  12.047  13.168   8.892  0.2049 -0.0546  0.0323
   40loPI   C4B  640  12.238  13.126   8.529 -0.1605 -0.2717  0.0124
   41loPI    C1  641   1.202  16.306  10.830 -0.0726 -0.0947  0.1777
   41loPI    C2  642   1.413  16.001  10.980  0.0735  0.0339  0.2364
   41loPI    C3  643   1.404  16.351  11.173 -0.1771  0.0367  0.2229
   41loPI   PO4  644   1.308  16.376  10.564  0.2583 -0.2219 -0.1279
   41loPI   GL1  645   1.218  16.253  10.135 -0.2134  0.0064 -0.0991
   41loPI   GL2  646   1.510  16.260  10.113 -0.0213 -0.0963  0.3641
   41loPI   C1A  647   0.911  16.207   9.799 -0.1252  0.0062  0.0677
   41loPI   C2A  648   0.887  16.185   9.447 -0.2544 -0.0812  0.0690
   41loPI   C3A  649   0.701  16.052   9.085 -0.2236  0.1197 -0.1596
   41loPI   C4A  650   0.804  15.897   8.621  0.0991  0.4167  0.0096
   41loPI   C5A  651   1.161  15.730   8.461 -0.0960 -0.2466 -0.2363
   41loPI   C6A  652   1.530  15.681   8.659 -0.3644 -0.1610 -0.0350
   41loPI   C1B  653   1.762  16.363   9.769 -0.0229  0.0773  0.2025
   41loPI   C2B  654   1.716  16.447   9.323  0.1358 -0.0391 -0.3663
   41loPI   C3B  655   1.830  16.573   8.952  0.0912  0.1775 -0.0742
   41loPI   C4B  656   1.649  16.500   8.469  0.0845 -0.2511 -0.2809
   42loPI    C1  657   1.501  16.837  10.669  0.0085 -0.1547 -0.0225
   42loPI    C2  658   1.431  17.135  10.927 -0.0245  0.1627 -0.3883
   42loPI    C3  659   1.198  16.810  10.929  0.0161  0.1313  0.0197
   42loPI   PO4  660   1.504  16.931  10.429  0.0757 -0.0475  0.2455
   42loPI   GL1  661   1.487  16.838  10.058 -0.1828  0.1225  0.0015
   42loPI   GL2  662   1.365  17.145   9.966  0.0946  0.3564 -0.1762
   42loPI   C1A  663   1.590  16.872   9.582 -0.1394  0.2981 -0.0559
   42loPI   C2A  664   1.711  17.022   9.092  0.1088 -0.1586 -0.1538
   42loPI   C3A  665   1.761  16.983   8.646  0.0600  0.1800  0.1661
   42loPI   C4A  666   1.925  16.874   8.263  0.0512 -0.1804 -0.1652
   42loPI   C5A  667   1.919  17.117   7.985  0.3592  0.0460  0.2363
   42loPI   C6A  668   2.355  17.298   7.846  0.0902  0.0833  0.2217
   42loPI   C1B  669   1.183  17.263   9.672  0.2596  0.2442 -0.0783
   42loPI   C2B  670   1.252  17.151   9.238  0.2030  0.3101  0.0966
   42loPI   C3B  671   1.265  17.226   8.781  0.2013  0.0545 -0.1230
   42loPI   C4B  672   1.219  17.470   8.404  0.0617  0.1468  0.2121
   43loPI    C1  673  13.073  16.217  10.944 -0.1330  0.0276 -0.0887
   43loPI    C2  674  12.674  16.189  10.925 -0.1307 -0.1590  0.0984
   43loPI    C3  675  12.848  16.360  11.242 -0.0656  0.0655 -0.0557
   43loPI   PO4  676  13.275  15.936  10.777  0.0661 -0.0774  0.2493
   43loPI   GL1  677  13.327  15.646  10.428 -0.1770 -0.0640 -0.0519
   43loPI   GL2  678  13.011  15.516  10.368  0.2833  0.1735 -0.4218
   43loPI   C1A  679  13.431  15.598  10.046  0.0397  0.1061  0.2701
   43loPI   C2A  680  13.369  15.563   9.527 -0.1303  0.0170 -0.2870
   43loPI   C3A  681  13.298  15.701   9.163 -0.3208 -0.2848  0.1325
   43loPI   C4A  682  13.558  15.846   8.868 -0.2749  0.0292 -0.1402
   43loPI   C5A  683  13.770  16.193   8.681 -0.0104 -0.3492  0.1167
   43loPI   C6A  684  14.158  16.309   8.432 -0.1681 -0.1264 -0.1443
   43loPI   C1B  685  12.930  15.577   9.894  0.5647  0.1322 -0.0626
   43loPI   C2B  686  12.816  15.464   9.504  0.0753  0.1801 -0.0042
   43loPI   C3B  687  12.532  15.419   9.094 -0.4708  0.1578 -0.1000
   43loPI   C4B  688  12.385  15.123   8.719 -0.2302  0.0828 -0.0363
   44loPI    C1  689  11.296  12.947  10.757 -0.2128 -0.2147  0.1237
   44loPI    C2  690  11.522  12.722  10.515  0.0051  0.1726 -0.0411
   44loPI    C3  691  11.606  12.741  10.905  0.1488  0.1724 -0.0715
   44loPI   PO4  692  11.239  13.246  10.692 -0.0691 -0.0015  0.2564
   44loPI   GL1  693  11.078  13.419  10.314  0.3086  0.1290  0.1186
   44loPI   GL2  694  11.268  13.642  10.423  0.2060 -0.1792  0.0030
   44loPI   C1A  695  11.076  13.320   9.796 -0.1299 -0.1783 -0.0632
   44loPI   C2A  696  10.895  13.156   9.412 -0.0364  0.4349  0.0527
   44loPI   C3A  697  10.707  13.116   8.987  0.0756 -0.2151 -0.0906
   44loPI   C4A  698  10.561  13.029   8.565 -0.0734 -0.0388  0.1079
   44loPI   C5A  699  10.614  12.880   8.175 -0.1177 -0.2704  0.2639
   44loPI   C6A  700  10.922  12.796   7.976  0.1018  0.0102  0.1380
   44loPI   C1B  701  11.473  13.621   9.958  0.0028 -0.1414  0.1210
   44loPI   C2B  702  11.464  13.466   9.522 -0.1003 -0.0078 -0.3119
   44loPI   C3B  703  11.600  13.363   9.087  0.2267 -0.0963  0.1070
   44loPI   C4B  704  11.576  13.495   8.711  0.0914  0.0046 -0.0992
   45loPI    C1  705  13.414   2.188  10.883 -0.1103  0.1589 -0.0893
   45loPI    C2  706  13.190   1.913  11.067 -0.0110 -0.0586 -0.2895
   45loPI    C3  707  13.022   2.167  10.808 -0.0977  0.0527 -0.1261
   45loPI   PO4  708  13.628   1.988  10.801 -0.1140  0.2445 -0.1593
   45loPI   GL1  709  13.766   1.942  10.391  0.1750 -0.2457 -0.1750
   45loPI   GL2  710  13.649   1.646  10.308  0.0584  0.1241 -0.1384
   45loPI   C1A  711  13.625   2.130   9.953  0.3275  0.0950 -0.1185
   45loPI   C2A  712  13.524   2.371   9.569  0.1497 -0.2257  0.0076
   45loPI   C3A  713  13.616   2.619   9.234 -0.0805 -0.0467 -0.2644
   45loPI   C4A  714  13.642   2.682   8.813 -0.3502  0.3630  0.0838
   45loPI   C5A  715  13.560   2.876   8.453 -0.1515 -0.1317 -0.0752
   45loPI   C6A  716  13.602   2.638   8.015  0.1195 -0.0170 -0.0164
   45loPI   C1B  717  13.466   1.551   9.947 -0.0933  0.1949  0.3019
   45loPI   C2B  718  13.495   1.488   9.578  0.1491 -0.1774  0.0125
   45loPI   C3B  719  13.406   1.689   9.241 -0.3048  0.0704  0.0129
   45loPI   C4B  720  13.383   1.771   8.790 -0.2157 -0.0068  0.0429
   46loPI    C1  721   0.619  11.135  10.553  0.0540  0.1944 -0.0320
   46loPI    C2  722   0.393  10.824  10.441  0.2114 -0.0373  0.2751
   46loPI    C3  723   0.222  11.154  10.590  0.0492 -0.0116  0.0362
   46loPI   PO4  724   0.822  11.095  10.316  0.0840 -0.0542  0.0093
   46loPI   GL1  725   1.122  11.078   9.993 -0.0048 -0.1684  0.0391
   46loPI   GL2  726   1.116  10.904   9.784 -0.2101 -0.0209 -0.0136
   46loPI   C1A  727   0.805  11.378   9.696 -0.0560 -0.1153  0.1286
   46loPI   C2A  728   0.862  11.496   9.119 -0.1231  0.2075 -0.1310
   46loPI   C3A  729   1.082  11.585   8.757  0.2292  0.0729  0.0835
   46loPI   C4A  730   1.122  11.656   8.315  0.2760 -0.0357 -0.2691
   46loPI   C5A  731   1.228  12.042   8.207  0.0928  0.1280  0.1018
   46loPI   C6A  732   1.110  12.385   8.314 -0.0442 -0.1965  0.2295
   46loPI   C1B  733   1.118  10.691   9.385 -0.3420 -0.2367  0.0102
   46loPI   C2B  734   1.189  10.668   8.949 -0.0693  0.0190  0.0894
   46loPI   C3B  735   1.136  10.810   8.575 -0.1106  0.2811 -0.0544
   46loPI   C4B  736   1.298  10.934   8.186 -0.2108  0.3111  0.0215
   47loPI    C1  737  14.096   0.522  10.990 -0.0115 -0.2924  0.1401
   47loPI    C2  738  13.788   0.465  11.238 -0.2048 -0.1471 -0.0631
   47loPI    C3  739  13.936   0.833  11.185  0.0041 -0.2162  0.0327
   47loPI   PO4  740  13.873   0.218  10.795  0.0015  0.2854 -0.0035
   47loPI   GL1  741  13.685   0.328  10.371  0.2168 -0.1093 -0.0088
   47loPI   GL2  742  13.444   0.100  10.300  0.1613 -0.1137  0.1842
   47loPI   C1A  743  13.871   0.225   9.957  0.0454 -0.0878  0.2113
   47loPI   C2A  744  14.166   0.078   9.677 -0.0588  0.0027  0.0214
   47loPI   C3A  745  14.612  -0.055   9.746 -0.1305 -0.2001  0.0390
   47loPI   C4A  746  14.984  -0.144   9.616  0.0766 -0.0304  0.0756
   47loPI   C5A  747  15.341   0.006   9.590 -0.1974  0.1759 -0.1972
   47loPI   C6A  748  15.613   0.091   9.900  0.0850  0.5308 -0.1739
   47loPI   C1B  749  13.371   0.267   9.873  0.1893 -0.4016 -0.0188
   47loPI   C2B  750  13.497   0.147   9.448  0.0815  0.0205  0.0173
   47loPI   C3B  751  13.386   0.301   9.102  0.2319 -0.0814 -0.1290
   47loPI   C4B  752  13.323   0.350   8.733  0.2023 -0.1817  0.0790
   48loPI    C1  753   5.937   7.414  10.425  0.0091  0.3765 -0.0112
   48loPI    C2  754   5.841   7.363  10.810 -0.0435  0.0228 -0.0680
   48loPI    C3  755   6.223   7.418  10.705 -0.0054 -0.0759  0.0169
   48loPI   PO4  756   5.832   7.495  10.343  0.0753 -0.0551 -0.0762
   48loPI   GL1  757   5.485   7.508   9.985 -0.2269  0.0036  0.2704
   48loPI   GL2  758   5.169   7.526   9.977  0.4143  0.3400 -0.0661
   48loPI   C1A  759   5.743   7.513   9.638 -0.1383  0.0437 -0.1787
   48loPI   C2A  760   5.772   7.316   9.236  0.2684  0.1684 -0.0992
   48loPI   C3A  761   5.859   7.491   8.931  0.0682 -0.0370  0.0591
   48loPI   C4A  762   6.012   7.482   8.560  0.1115 -0.1011 -0.0639
   48loPI   C5A  763   6.306   7.399   8.124  0.1571 -0.1202  0.0211
   48loPI   C6A  764   6.576   7.352   7.709 -0.1727  0.2104  0.1507
   48loPI   C1B  765   5.250   7.529   9.457  0.2415 -0.0379  0.0551
   48loPI   C2B  766   5.321   7.413   9.015 -0.1941 -0.0677 -0.0057
   48loPI   C3B  767   5.483   7.530   8.558  0.0570 -0.1186  0.1045
   48loPI   C4B  768   5.493   7.202   8.225 -0.2157  0.0754  0.2663
   49loPI    C1  769  17.247  10.091  10.524 -0.0431 -0.1103  0.0477
   49loPI    C2  770  17.554  10.345  10.564 -0.2214  0.1227 -0.0393
   49loPI    C3  771  17.514  10.037  10.817  0.1588  0.0085 -0.1120
   49loPI   PO4  772  17.286   9.927  10.248 -0.1328 -0.3844 -0.2137
   49loPI   GL1  773  17.397  10.110   9.893 -0.0551  0.3118 -0.1643
   49loPI   GL2  774  17.600  10.028   9.848  0.1257 -0.2743 -0.0492
   49loPI   C1A  775  17.292  10.216   9.455  0.1379 -0.0324 -0.1270
   49loPI   C2A  776  17.279  10.301   8.987  0.2469  0.0346 -0.0168
   49loPI   C3A  777  16.953  10.349   8.683 -0.2974 -0.1679 -0.0208
   49loPI   C4A  778  16.462  10.442   8.770  0.0145 -0.1217 -0.1022
   49loPI   C5A  779  16.133  10.462   8.467  0.1486  0.1091 -0.0039
   49loPI   C6A  780  15.732  10.383   8.226 -0.1644  0.1523 -0.3240
   49loPI   C1B  781  17.666   9.914   9.448  0.0765 -0.2838  0.1165
   49loPI   C2B  782  17.531   9.795   9.104 -0.1071 -0.1880  0.1108
   49loPI   C3B  783  17.491   9.845   8.660 -0.2277  0.2640  0.0888
   49loPI   C4B  784  17.486   9.664   8.230 -0.1386 -0.2171 -0.0408
   50loPI    C1  785   7.111  18.102  10.813 -0.1220 -0.0059 -0.3080
   50loPI    C2  786   7.010  18.482  10.743  0.0328  0.0870 -0.0416
   50loPI    C3  787   6.865  18.292  11.064  0.1046 -0.0189 -0.0713
   50loPI   PO4  788   7.124  17.981  10.615 -0.4962  0.3295  0.1638
   50loPI   GL1  789   6.948  18.074  10.071  0.0381  0.2065 -0.2672
   50loPI   GL2  790   7.374  18.106  10.038  0.0751 -0.0997  0.1039
   50loPI   C1A  791   6.869  18.242   9.674 -0.1749  0.1866 -0.1797
   50loPI   C2A  792   6.759  18.332   9.260 -0.2868 -0.0202  0.2228
   50loPI   C3A  793   6.779  18.245   8.859 -0.0962  0.2871 -0.0695
   50loPI   C4A  794   6.571  18.244   8.487 -0.0200 -0.0524 -0.0946
   50loPI   C5A  795   6.407  18.309   8.043  0.1991  0.0460  0.2539
   50loPI   C6A  796   6.264  17.955   7.822  0.0242  0.0511 -0.0645
   50loPI   C1B  797   7.337  18.135   9.565  0.0478 -0.0542  0.0623
   50loPI   C2B  798   7.242  18.190   9.182  0.1703 -0.3078  0.0269
   50loPI   C3B  799   7.249  18.190   8.826  0.2151  0.0660 -0.1605
   50loPI   C4B  800   7.045  18.081   8.469 -0.1535  0.0733 -0.1497
   51loPI    C1  801  10.767  14.511  10.660 -0.1790  0.0964  0.2219
   51loPI    C2  802  10.847  14.186  10.879  0.3358  0.0717  0.0122
   51loPI    C3  803  10.786  14.538  11.058 -0.3468 -0.1501  0.2489
   51loPI   PO4  804  10.585  14.342  10.484 -0.1159  0.0172 -0.2882
   51loPI   GL1  805  10.635  14.150  10.024 -0.0827  0.1866  0.1210
   51loPI   GL2  806  10.635  14.460   9.796 -0.0347 -0.0620 -0.2508
   51loPI   C1A  807  10.572  14.037   9.571  0.3004  0.0879 -0.0392
   51loPI   C2A  808  10.560  14.195   9.174  0.1867 -0.1307 -0.3031
   51loPI   C3A  809  10.611  14.021   8.739  0.2409 -0.1864  0.2048
   51loPI   C4A  810  10.825  13.963   8.386  0.1450 -0.2625 -0.2930
   51loPI   C5A  811  11.194  13.654   8.458 -0.0062  0.0519 -0.0333
   51loPI   C6A  812  11.234  13.217   8.365  0.2254 -0.0261  0.0794
   51loPI   C1B  813  10.958  14.391   9.479 -0.0129 -0.4333 -0.1396
   51loPI   C2B  814  11.058  14.357   9.034 -0.0372  0.0583 -0.0610
   51loPI   C3B  815  11.164  14.826   8.755 -0.2335  0.2198  0.1511
   51loPI   C4B  816  10.937  15.221   8.918 -0.1331 -0.1426 -0.0666
   52loPI    C1  817  10.819  12.280  10.947 -0.0122 -0.1103 -0.0060
   52loPI    C2  818  10.514  12.197  10.702 -0.1862  0.1462  0.1204
   52loPI    C3  819  10.457  12.203  11.098 -0.0616  0.3727  0.1366
   52loPI   PO4  820  10.978  12.504  10.751  0.2746  0.0798  0.2858
   52loPI   GL1  821  11.160  12.423  10.372  0.0534 -0.1960 -0.3195
   52loPI   GL2  822  10.910  12.253  10.353  0.1330 -0.1543 -0.1838
   52loPI   C1A  823  11.033  12.599   9.975  0.0850 -0.0116  0.0236
   52loPI   C2A  824  10.748  12.764   9.709 -0.2097 -0.1667  0.0266
   52loPI   C3A  825  10.455  12.905   9.435 -0.3147  0.0686  0.0111
   52loPI   C4A  826  10.401  12.726   8.917 -0.0122  0.1200 -0.1489
   52loPI   C5A  827  10.423  12.550   8.480  0.2010  0.1925 -0.1068
   52loPI   C6A  828  10.176  12.621   8.032  0.1085 -0.0508 -0.2512
   52loPI   C1B  829  11.166  12.124   9.995  0.0491  0.0128 -0.0569
   52loPI   C2B  830  11.324  11.974   9.543  0.1587 -0.2841  0.1996
   52loPI   C3B  831  11.420  12.013   9.173 -0.0744  0.0234  0.3786
   52loPI   C4B  832  11.435  12.025   8.660 -0.0278  0.3588  0.0624
   53loPI    C1  833  12.389  11.174  11.029  0.4360  0.3470  0.1612
   53loPI    C2  834  12.180  11.405  11.281 -0.1373  0.1166 -0.0857
   53loPI    C3  835  12.143  11.007  11.296  0.1369  0.0809 -0.2680
   53loPI   PO4  836  12.296  11.312  10.820 -0.1103  0.1244  0.3525
   53loPI   GL1  837  12.288  11.535  10.390 -0.0731  0.2732  0.1787
   53loPI   GL2  838  12.394  11.241  10.293  0.0786  0.0001 -0.1119
   53loPI   C1A  839  12.288  11.733  10.116  0.1203 -0.0569  0.0129
   53loPI   C2A  840  12.280  11.905   9.772  0.0390 -0.1066  0.1355
   53loPI   C3A  841  12.165  12.030   9.500 -0.0133 -0.1085  0.2421
   53loPI   C4A  842  12.174  11.941   9.004  0.1639 -0.1369  0.0688
   53loPI   C5A  843  12.007  12.006   8.574  0.1883  0.1590 -0.1429
   53loPI   C6A  844  11.788  11.631   8.256 -0.0511  0.3372  0.0007
   53loPI   C1B  845  12.235  11.002   9.935 -0.0465 -0.3039  0.0694
   53loPI   C2B  846  12.250  11.115   9.513 -0.0085  0.0870  0.0896
   53loPI   C3B  847  12.318  11.120   9.080  0.1845  0.2479 -0.3326
   53loPI   C4B  848  12.506  11.211   8.635  0.3771 -0.3042 -0.0988
   54loPI    C1  849  18.088   6.849  10.519 -0.2018  0.0868 -0.0587
   54loPI    C2  850  18.086   7.220  10.668 -0.1764  0.1172 -0.1340
   54loPI    C3  851  17.853   6.939  10.831  0.0921  0.0666  0.1728
   54loPI   PO4  852  18.010   7.001  10.221 -0.2851 -0.2316  0.0409
   54loPI   GL1  853  18.137   6.682   9.927  0.1873  0.0642 -0.0456
   54loPI   GL2  854  18.066   6.334   9.934 -0.0677  0.0791 -0.0547
   54loPI   C1A  855  18.139   6.569   9.453  0.0930  0.0203  0.0252
   54loPI   C2A  856  18.088   6.586   9.044  0.2409 -0.0129  0.1320
   54loPI   C3A  857  18.218   6.512   8.604 -0.2961  0.1530 -0.2989
   54loPI   C4A  858  18.199   6.818   8.157  0.0061  0.0658  0.2496
   54loPI   C5A  859  18.527   6.775   7.934 -0.0117  0.2070 -0.0216
   54loPI   C6A  860  18.755   6.716   7.537 -0.3410 -0.0033  0.0770
   54loPI   C1B  861  17.778   5.999   9.647  0.0679 -0.0254 -0.0441
   54loPI   C2B  862  17.873   5.753   9.249  0.0036  0.0129  0.3478
   54loPI   C3B  863  17.956   5.920   8.870 -0.0331 -0.1207 -0.1388
   54loPI   C4B  864  17.925   5.747   8.425  0.2848 -0.1308 -0.1100
   55loPI    C1  865  12.551   2.903  10.704  0.1792  0.1119 -0.0085
   55loPI    C2  866  12.399   3.093  11.021  0.1746 -0.0608  0.0946
   55loPI    C3  867  12.252   2.737  10.912  0.1815 -0.0059 -0.0978
   55loPI   PO4  868  12.589   3.172  10.529 -0.0003  0.0930  0.2468
   55loPI   GL1  869  12.822   3.185  10.161 -0.0327  0.1991 -0.1641
   55loPI   GL2  870  12.685   2.853  10.208  0.1266 -0.1019 -0.0505
   55loPI   C1A  871  13.028   2.951   9.826  0.0137  0.1643 -0.1909
   55loPI   C2A  872  13.233   2.971   9.428 -0.0175 -0.1355  0.2959
   55loPI   C3A  873  13.306   3.079   8.993  0.0469  0.0584  0.1862
   55loPI   C4A  874  13.219   3.234   8.606  0.2703  0.0762 -0.0625
   55loPI   C5A  875  12.942   3.531   8.425 -0.1026  0.0584  0.0756
   55loPI   C6A  876  12.786   3.488   8.071  0.0116  0.1589  0.1333
   55loPI   C1B  877  12.620   2.731   9.742 -0.1380 -0.2160 -0.4104
   55loPI   C2B  878  12.427   2.946   9.371 -0.2109 -0.1651 -0.2099
   55loPI   C3B  879  12.319   3.166   9.001 -0.2936  0.0610  0.1828
   55loPI   C4B  880  12.234   3.394   8.709 -0.2441  0.4397  0.0530
   56loPI    C1  881  11.026   3.350  10.578 -0.0132 -0.0846  0.1018
   56loPI    C2  882  11.125   3.691  10.763 -0.0644 -0.0554  0.0756
   56loPI    C3  883  10.798   3.676  10.533 -0.1382 -0.1595  0.1858
   56loPI   PO4  884  11.194   3.261  10.431  0.0832 -0.0128  0.0248
   56loPI   GL1  885  11.362   2.932  10.205  0.1189  0.0430 -0.0905
   56loPI   GL2  886  11.678   2.932  10.166  0.1748  0.0772 -0.0749
   56loPI   C1A  887  11.138   2.728   9.882 -0.0255 -0.0689  0.1852
   56loPI   C2A  888  10.891   2.769   9.493 -0.0178 -0.1359 -0.0555
   56loPI   C3A  889  10.976   2.759   9.076  0.0010  0.3472  0.3672
   56loPI   C4A  890  11.015   2.866   8.604  0.3330 -0.0223 -0.0934
   56loPI   C5A  891  10.968   3.017   8.194  0.2244  0.2478  0.0614
   56loPI   C6A  892  11.070   3.112   7.734 -0.0398 -0.0065 -0.2355
   56loPI   C1B  893  11.560   2.974   9.667 -0.2585 -0.0505 -0.1437
   56loPI   C2B  894  11.379   2.884   9.316  0.0441  0.1033  0.2987
   56loPI   C3B  895  11.379   2.933   8.862  0.1016  0.1339  0.1098
   56loPI   C4B  896  11.430   3.057   8.438  0.0593 -0.0308 -0.2560
   57loPI    C1  897   6.895   2.409  10.568 -0.1157 -0.2492  0.0463
   57loPI    C2  898   7.188   2.470  10.833 -0.0908 -0.2005  0.0079
   57loPI    C3  899   6.879   2.722  10.816 -0.1259 -0.2415  0.0360
   57loPI   PO4  900   7.012   2.400  10.326  0.1805 -0.1661  0.0435
   57loPI   GL1  901   7.001   2.330   9.858 -0.1071 -0.0111  0.1207
   57loPI   GL2  902   7.272   2.213   9.896  0.1057 -0.1060 -0.2013
   57loPI   C1A  903   6.812   1.994   9.655 -0.0004  0.0989 -0.2152
   57loPI   C2A  904   6.902   1.912   9.218  0.0968  0.1158 -0.2455
   57loPI   C3A  905   6.970   1.972   8.774 -0.0071 -0.1279  0.1681
   57loPI   C4A  906   7.056   2.072   8.405  0.0648 -0.0881  0.2957
   57loPI   C5A  907   6.862   2.186   7.955 -0.0638  0.0396 -0.4940
   57loPI   C6A  908   6.968   2.132   7.560 -0.3022 -0.1965  0.1915
   57loPI   C1B  909   7.266   2.197   9.492  0.0252  0.0731 -0.1050
   57loPI   C2B  910   7.321   2.284   9.176  0.1766  0.1926 -0.0721
   57loPI   C3B  911   7.432   2.352   8.750 -0.2440  0.0472  0.0713
   57loPI   C4B  912   7.713   2.241   8.489  0.0705 -0.1648  0.1401
   58loPI    C1  913   5.565  10.245  10.800 -0.0781 -0.0580  0.0093
   58loPI    C2  914   5.330  10.078  11.077  0.1386 -0.2244  0.0959
   58loPI    C3  915   5.723  10.113  11.143  0.1563 -0.0477 -0.0924
   58loPI   PO4  916   5.503  10.083  10.547 -0.1438  0.2531  0.1431
   58loPI   GL1  917   5.579  10.268  10.132 -0.1694  0.2875 -0.3538
   58loPI   GL2  918   5.626  10.552  10.063 -0.0501 -0.0294  0.2709
   58loPI   C1A  919   5.539  10.088   9.807 -0.0368  0.0194  0.0008
   58loPI   C2A  920   5.379  10.327   9.478 -0.1238 -0.0183  0.2075
   58loPI   C3A  921   5.484  10.617   9.182  0.1262  0.1320 -0.1073
   58loPI   C4A  922   5.466  10.537   8.816  0.3975  0.3567 -0.2782
   58loPI   C5A  923   5.137  10.617   8.549 -0.0300  0.4066  0.2077
   58loPI   C6A  924   4.902  10.907   8.452  0.0865 -0.0773  0.1349
   58loPI   C1B  925   5.856  10.393   9.626 -0.1799  0.2756  0.3817
   58loPI   C2B  926   5.900  10.266   9.233 -0.0727 -0.1732  0.1075
   58loPI   C3B  927   5.986   9.839   8.945 -0.1340 -0.3067  0.2350
   58loPI   C4B  928   6.035   9.769   8.438 -0.0230 -0.2790 -0.0259
   59loPI    C1  929   4.132   0.985  10.471 -0.1220 -0.1245 -0.1016
   59loPI    C2  930   3.938   0.851  10.793 -0.0495  0.0336  0.0094
   59loPI    C3  931   4.195   1.154  10.827 -0.0958  0.0996 -0.2110
   59loPI   PO4  932   4.328   0.777  10.340 -0.0279 -0.2533 -0.2178
   59loPI   GL1  933   4.539   0.635   9.933  0.0771  0.0413 -0.2088
   59loPI   GL2  934   4.751   0.379   9.960 -0.0642 -0.3182  0.1189
   59loPI   C1A  935   4.597   0.520   9.457  0.1682 -0.1824  0.1216
   59loPI   C2A  936   4.368   0.537   8.979  0.0135  0.3034 -0.1117
   59loPI   C3A  937   4.379   0.437   8.627 -0.2027  0.1473  0.1998
   59loPI   C4A  938   4.263   0.338   8.189 -0.1769  0.1730 -0.3104
   59loPI   C5A  939   3.862   0.237   7.928 -0.2753 -0.2577 -0.1722
   59loPI   C6A  940   3.452   0.217   8.066 -0.0182  0.1831  0.2182
   59loPI   C1B  941   4.960   0.158   9.643  0.1478  0.1650  0.0725
   59loPI   C2B  942   4.788   0.055   9.239 -0.1642 -0.3475 -0.0194
   59loPI   C3B  943   4.717   0.132   8.798  0.0238  0.1263  0.0125
   59loPI   C4B  944   4.799   0.226   8.332 -0.0142 -0.2805 -0.0750
   60loPI    C1  945  11.408  17.838  10.723  0.2717  0.1310 -0.1665
   60loPI    C2  946  11.563  17.473  10.674  0.0054 -0.0009 -0.0416
   60loPI    C3  947  11.382  17.569  11.017  0.0981  0.2585 -0.0636
   60loPI   PO4  948  11.292  17.870  10.554 -0.0208  0.1386 -0.2209
   60loPI   GL1  949  11.222  17.601  10.187 -0.0350 -0.2501  0.0268
   60loPI   GL2  950  11.478  17.350  10.189  0.1481  0.2351 -0.1317
   60loPI   C1A  951  11.255  17.619   9.746 -0.0713 -0.0352 -0.0669
   60loPI   C2A  952  11.311  17.675   9.237  0.3885 -0.1685 -0.3771
   60loPI   C3A  953  11.397  17.751   8.849  0.2504  0.0308 -0.0157
   60loPI   C4A  954  11.705  17.988   8.620  0.1585 -0.1998  0.0130
   60loPI   C5A  955  11.761  18.511   8.492  0.0250  0.0528  0.1040
   60loPI   C6A  956  11.754  18.881   8.271 -0.0794 -0.2447 -0.0251
   60loPI   C1B  957  11.833  17.421   9.940  0.1960  0.0759  0.0760
   60loPI   C2B  958  11.756  17.606   9.530  0.2377 -0.2503  0.2176
   60loPI   C3B  959  11.813  17.695   9.098  0.1014  0.0302  0.0718
   60loPI   C4B  960  12.179  17.751   8.803 -0.1214 -0.1660  0.2752
   61loPI    C1  961   3.926   3.247  10.761 -0.1623  0.1043  0.2169
   61loPI    C2  962   3.720   3.157  11.092 -0.0840 -0.1977  0.1856
   61loPI    C3  963   4.051   2.952  11.000 -0.0746 -0.0791 -0.0512
   61loPI   PO4  964   3.765   3.346  10.634  0.0793 -0.1010  0.1000
   61loPI   GL1  965   3.725   3.431  10.185  0.3333 -0.0377  0.1022
   61loPI   GL2  966   3.992   3.553   9.954  0.0982 -0.1368  0.2636
   61loPI   C1A  967   3.522   3.499   9.728  0.1186  0.1579 -0.1862
   61loPI   C2A  968   3.362   3.485   9.248  0.2762 -0.1261 -0.3441
   61loPI   C3A  969   3.407   3.423   8.835  0.1186 -0.1777 -0.1733
   61loPI   C4A  970   3.449   3.390   8.295 -0.2772  0.2590  0.0624
   61loPI   C5A  971   3.483   3.513   7.781  0.3158 -0.0175 -0.1106
   61loPI   C6A  972   3.551   3.845   7.489 -0.2486 -0.0069  0.1095
   61loPI   C1B  973   4.142   3.365   9.614 -0.2154  0.0064  0.0897
   61loPI   C2B  974   4.254   3.625   9.269 -0.1690  0.0664  0.2496
   61loPI   C3B  975   4.290   3.845   8.788 -0.2338 -0.2345 -0.1234
   61loPI   C4B  976   3.958   4.021   8.447  0.1511  0.0617  0.0200
   62loPI    C1  977   4.983   0.764  10.197 -0.1057  0.0135  0.0188
   62loPI    C2  978   5.199   1.052  10.370 -0.1461  0.1551 -0.1624
   62loPI    C3  979   5.349   0.683  10.336 -0.0786  0.1626  0.0365
   62loPI   PO4  980   4.834   1.016  10.018  0.0589  0.3218  0.1530
   62loPI   GL1  981   4.702   0.958   9.586  0.0605  0.1683  0.0609
   62loPI   GL2  982   5.040   1.185   9.595  0.1758 -0.0367 -0.2296
   62loPI   C1A  983   4.414   1.017   9.293 -0.1386  0.0700  0.1288
   62loPI   C2A  984   4.397   1.083   8.814 -0.0175 -0.1390  0.1111
   62loPI   C3A  985   4.595   0.902   8.372 -0.1466 -0.1455 -0.1788
   62loPI   C4A  986   4.588   0.763   7.961  0.2992 -0.1280  0.1663
   62loPI   C5A  987   4.642   0.460   7.732 -0.1084 -0.0381 -0.0428
   62loPI   C6A  988   4.932   0.163   7.863  0.1314 -0.0707 -0.1923
   62loPI   C1B  989   5.291   1.337   9.264  0.1202  0.0555  0.1816
   62loPI   C2B  990   5.389   1.385   8.868 -0.2630  0.1198 -0.0931
   62loPI   C3B  991   5.437   1.396   8.380 -0.0635 -0.0177 -0.0450
   62loPI   C4B  992   5.376   1.549   8.045  0.1021 -0.0902  0.1136
   63loPI    C1  993   0.484   6.776  10.532  0.0236 -0.0193 -0.0995
   63loPI    C2  994   0.566   7.145  10.663  0.1197 -0.1020  0.0768
   63loPI    C3  995   0.298   6.919  10.856  0.0176 -0.1035 -0.0654
   63loPI   PO4  996   0.466   6.797  10.249  0.0939  0.0845  0.2544
   63loPI   GL1  997   0.648   6.632   9.969 -0.0404 -0.0621 -0.0186
   63loPI   GL2  998   0.446   6.318  10.032  0.1979  0.0129  0.1315
   63loPI   C1A  999   0.510   6.908   9.562 -0.1899  0.1193  0.1897
   63loPI   C2A 1000   0.188   7.030   9.220  0.1737 -0.3329  0.0006
   63loPI   C3A 1001   0.255   7.112   8.749  0.1222 -0.0138  0.1039
   63loPI   C4A 1002   0.347   7.244   8.238 -0.2203 -0.1855  0.0609
   63loPI   C5A 1003   0.099   7.609   8.025  0.0789  0.3490 -0.0825
   63loPI   C6A 1004  -0.128   7.991   8.118  0.2189 -0.0797 -0.5095
   63loPI   C1B 1005   0.480   6.434   9.590  0.1678 -0.3942 -0.0496
   63loPI   C2B 1006   0.403   6.546   9.191  0.1975  0.1701 -0.4600
   63loPI   C3B 1007   0.511   6.638   8.766  0.0076  0.0491 -0.0958
   63loPI   C4B 1008   0.650   6.801   8.365 -0.0695  0.5083  0.1142
   64loPI    C1 1009  16.859  18.086  10.561  0.1631  0.2099 -0.2003
   64loPI    C2 1010  16.986  18.343  10.840 -0.0073 -0.0312  0.1071
   64loPI    C3 1011  17.096  17.959  10.857 -0.0586 -0.0586 -0.1333
   64loPI   PO4 1012  16.831  18.258  10.371 -0.1057  0.2897 -0.2772
   64loPI   GL1 1013  17.017  18.455  10.117  0.1992  0.1220 -0.0808
   64loPI   GL2 1014  17.120  18.736  10.036 -0.1805 -0.0956 -0.1562
   64loPI   C1A 1015  17.022  18.391   9.639  0.3020  0.1876  0.3141
   64loPI   C2A 1016  16.692  18.672   9.357  0.1347  0.0457  0.6322
   64loPI   C3A 1017  16.424  18.747   8.909 -0.0672  0.3087 -0.0578
   64loPI   C4A 1018  16.476  18.608   8.429  0.1986 -0.1778  0.1232
   64loPI   C5A 1019  16.414  18.215   8.086  0.0059 -0.1091  0.2588
   64loPI   C6A 1020  16.486  18.063   7.757 -0.0315 -0.3483  0.0256
   64loPI   C1B 1021  17.512  18.567   9.781 -0.2718 -0.2258 -0.0796
   64loPI   C2B 1022  17.529  18.350   9.386  0.2437  0.0073  0.3288
   64loPI   C3B 1023  17.574  18.074   8.995 -0.0415  0.2407 -0.0489
   64loPI   C4B 1024  17.814  18.057   8.658  0.1533 -0.1070  0.0598
   65loPI    C1 1025   9.739   7.282  11.055  0.1192 -0.2310 -0.1083
   65loPI    C2 1026  10.091   7.252  10.866  0.2047 -0.0251  0.0143
   65loPI    C3 1027   9.963   6.954  11.101  0.1714 -0.2142 -0.2397
   65loPI   PO4 1028   9.630   7.543  10.892 -0.0682 -0.3630  0.1895
   65loPI   GL1 1029   9.313   7.566  10.506  0.0962 -0.0150  0.2307
   65loPI   GL2 1030   9.157   7.889  10.380  0.1285 -0.1934 -0.1162
   65loPI   C1A 1031   9.336   7.306  10.144 -0.0287 -0.0749 -0.0415
   65loPI   C2A 1032   9.536   7.355   9.657 -0.3351 -0.0593 -0.0573
   65loPI   C3A 1033   9.592   7.318   9.167  0.4484 -0.0690 -0.0030
   65loPI   C4A 1034   9.721   7.300   8.697  0.0125  0.1852 -0.1779
   65loPI   C5A 1035   9.609   7.609   8.303  0.1773 -0.7811 -0.1130
   65loPI   C6A 1036   9.471   7.651   7.909 -0.2600  0.0992  0.0665
   65loPI   C1B 1037   9.478   7.816  10.040  0.0122 -0.0514  0.1181
   65loPI   C2B 1038   9.538   7.864   9.623 -0.1993  0.1064 -0.0402
   65loPI   C3B 1039   9.575   7.810   9.212 -0.1701  0.3955  0.1725
   65loPI   C4B 1040   9.759   7.892   8.788  0.1527  0.0028  0.0896
   66loPI    C1 1041  12.063   2.179  10.986  0.1750  0.1622 -0.0625
   66loPI    C2 1042  11.866   2.431  11.226 -0.1386 -0.1627  0.0301
   66loPI    C3 1043  11.991   2.078  11.367 -0.1210 -0.2592 -0.2229
   66loPI   PO4 1044  12.028   2.244  10.696 -0.5903 -0.2200 -0.0313
   66loPI   GL1 1045  12.086   1.923  10.341  0.1346 -0.1998  0.2680
   66loPI   GL2 1046  11.789   1.854  10.524 -0.0111 -0.1897  0.0174
   66loPI   C1A 1047  12.158   1.992   9.860 -0.2188  0.0559 -0.4333
   66loPI   C2A 1048  12.149   1.963   9.413  0.0042  0.0179 -0.0066
   66loPI   C3A 1049  12.372   2.050   9.049 -0.3447 -0.2259  0.0833
   66loPI   C4A 1050  12.439   2.195   8.595 -0.0813 -0.1938 -0.1307
   66loPI   C5A 1051  12.724   2.165   8.169 -0.1331  0.1544 -0.0263
   66loPI   C6A 1052  13.134   2.324   7.947  0.0101  0.0795  0.3085
   66loPI   C1B 1053  11.693   1.923  10.074  0.2089  0.2054  0.2383
   66loPI   C2B 1054  11.749   2.041   9.665 -0.1780  0.1604 -0.2562
   66loPI   C3B 1055  11.734   1.882   9.208 -0.2643  0.1027 -0.2713
   66loPI   C4B 1056  11.924   2.011   8.809  0.0110  0.0879 -0.1412
   67loPI    C1 1057  10.489   7.450  11.153 -0.1469 -0.1389 -0.0236
   67loPI    C2 1058  10.163   7.676  11.204 -0.0877 -0.0385 -0.0858
   67loPI    C3 1059  10.184   7.315  11.374 -0.0555  0.1275  0.2728
   67loPI   PO4 1060  10.550   7.508  10.851 -0.0834 -0.1058 -0.1295
   67loPI   GL1 1061  10.252   7.401  10.437 -0.1354  0.2008 -0.0116
   67loPI   GL2 1062  10.392   7.185  10.386 -0.0893  0.1228  0.1605
   67loPI   C1A 1063  10.014   7.258  10.107 -0.0095 -0.1621 -0.2108
   67loPI   C2A 1064  10.062   7.062   9.659  0.2045  0.0911  0.0324
   67loPI   C3A 1065  10.011   7.075   9.198  0.1831 -0.0942 -0.2220
   67loPI   C4A 1066  10.029   6.940   8.800 -0.0259 -0.1139 -0.0075
   67loPI   C5A 1067  10.250   7.090   8.424 -0.2894  0.0046 -0.1612
   67loPI   C6A 1068  10.682   7.267   8.520  0.0710 -0.2008  0.2332
   67loPI   C1B 1069  10.765   7.004  10.141 -0.2162 -0.2188 -0.1428
   67loPI   C2B 1070  11.014   7.049   9.752  0.0690  0.0979 -0.2043
   67loPI   C3B 1071  11.047   6.986   9.353  0.0602  0.2854 -0.1007
   67loPI   C4B 1072  10.886   6.977   8.947  0.0647 -0.2562  0.2814
   68loPI    C1 1073  10.603   2.527  10.638  0.0632  0.1642  0.0553
   68loPI    C2 1074  10.344   2.640  10.355  0.0054  0.1652  0.1082
   68loPI    C3 1075  10.233   2.642  10.739  0.0140 -0.0404  0.1130
   68loPI   PO4 1076  10.742   2.354  10.429 -0.0651  0.0085 -0.2025
   68loPI   GL1 1077  10.796   2.417   9.909 -0.3195 -0.2034 -0.0433
   68loPI   GL2 1078  10.618   2.665   9.961  0.0027 -0.2478 -0.3052
   68loPI   C1A 1079  10.821   2.182   9.568 -0.1495  0.0146  0.1294
   68loPI   C2A 1080  10.827   2.251   9.185  0.1260  0.1692  0.0738
   68loPI   C3A 1081  10.876   2.343   8.657 -0.2773  0.0254  0.1097
   68loPI   C4A 1082  10.801   2.358   8.271 -0.2090 -0.0371 -0.1015
   68loPI   C5A 1083  10.469   2.402   8.081  0.2803  0.0734  0.1185
   68loPI   C6A 1084  10.072   2.590   7.962  0.1506  0.1039 -0.0324
   68loPI   C1B 1085  10.597   3.016   9.765 -0.2544  0.0344  0.2205
   68loPI   C2B 1086  10.571   3.168   9.387 -0.0974  0.2564  0.5743
   68loPI   C3B 1087  10.523   3.195   8.908  0.2046  0.2192 -0.1044
   68loPI   C4B 1088  10.641   3.163   8.610  0.1312 -0.0284  0.3403
   69loPI    C1 1089   2.328   8.791  10.724  0.0697 -0.2130  0.0070
   69loPI    C2 1090   2.314   9.121  10.949 -0.0408 -0.1966 -0.0233
   69loPI    C3 1091   2.261   8.763  11.118 -0.1648 -0.1815 -0.0294
   69loPI   PO4 1092   2.473   8.889  10.487  0.2525 -0.0518  0.2628
   69loPI   GL1 1093   2.266   9.002  10.066  0.3634 -0.0570  0.2523
   69loPI   GL2 1094   2.602   9.059   9.997 -0.0531 -0.0867 -0.1054
   69loPI   C1A 1095   2.097   9.009   9.591  0.2504  0.1117  0.2758
   69loPI   C2A 1096   2.137   9.192   9.190 -0.1041  0.1940 -0.1434
   69loPI   C3A 1097   2.126   9.280   8.751  0.0066  0.1437 -0.0357
   69loPI   C4A 1098   1.952   9.175   8.373 -0.0337 -0.1476  0.2758
   69loPI   C5A 1099   1.637   9.095   8.076 -0.0169 -0.0625 -0.0738
   69loPI   C6A 1100   1.558   9.063   7.576  0.0155  0.0102 -0.3061
   69loPI   C1B 1101   2.711   8.813   9.688  0.1816 -0.2513 -0.1470
   69loPI   C2B 1102   2.901   8.813   9.331 -0.0504 -0.0557  0.3015
   69loPI   C3B 1103   3.125   8.998   8.845  0.3198  0.2393 -0.2766
   69loPI   C4B 1104   3.271   9.052   8.481 -0.0116  0.1047 -0.0130
   70loPI    C1 1105  10.116   8.127  10.582  0.3497 -0.0520 -0.1534
   70loPI    C2 1106  10.039   8.091  10.973  0.0681  0.0989 -0.1922
   70loPI    C3 1107  10.086   7.764  10.748  0.0884  0.0099 -0.0600
   70loPI   PO4 1108  10.294   8.256  10.577 -0.0174 -0.0312  0.0183
   70loPI   GL1 1109  10.458   8.323  10.254  0.0452  0.1159  0.1052
   70loPI   GL2 1110  10.307   8.378   9.934 -0.2462  0.0060 -0.2249
   70loPI   C1A 1111  10.636   8.081   9.955  0.1157 -0.0534  0.1004
   70loPI   C2A 1112  10.638   7.746   9.641  0.1558  0.0703 -0.2631
   70loPI   C3A 1113  10.542   7.771   9.184  0.2697  0.1258 -0.1053
   70loPI   C4A 1114  10.609   7.754   8.798 -0.0850 -0.1399 -0.1184
   70loPI   C5A 1115  10.697   7.812   8.402  0.1615 -0.1135 -0.1459
   70loPI   C6A 1116  10.496   7.664   8.115 -0.2507 -0.2605 -0.0185
   70loPI   C1B 1117  10.424   8.292   9.533 -0.0330  0.1505  0.1521
   70loPI   C2B 1118  10.587   8.242   9.130  0.2317 -0.2477  0.2573
   70loPI   C3B 1119  10.689   8.229   8.656 -0.1352 -0.1200  0.0280
   70loPI   C4B 1120  10.747   8.526   8.329  0.1647 -0.2230 -0.0223
   71loPI    C1 1121   8.498   4.323  10.114  0.0605 -0.3009  0.2484
   71loPI    C2 1122   8.128   4.284  10.262 -0.0337  0.0783  0.1240
   71loPI    C3 1123   8.320   4.634  10.291  0.0802  0.0617 -0.3406
   71loPI   PO4 1124   8.456   4.163   9.854  0.1361 -0.0053  0.0334
   71loPI   GL1 1125   8.268   4.096   9.458  0.0636 -0.1008  0.0753
   71loPI   GL2 1126   8.271   3.674   9.394  0.0594 -0.0740 -0.1562
   71loPI   C1A 1127   8.193   4.101   9.030 -0.1503 -0.1210  0.1818
   71loPI   C2A 1128   8.233   3.906   8.560  0.1887  0.0239  0.0516
   71loPI   C3A 1129   8.400   3.913   8.217  0.0348 -0.0026  0.0005
   71loPI   C4A 1130   8.376   3.839   7.835 -0.4797  0.0697 -0.0991
   71loPI   C5A 1131   8.139   4.018   7.597  0.2562  0.0544  0.0026
   71loPI   C6A 1132   7.707   4.068   7.520 -0.1892 -0.0321 -0.0785
   71loPI   C1B 1133   8.479   3.599   9.031  0.1043 -0.0299  0.0797
   71loPI   C2B 1134   8.673   3.609   8.674  0.1818  0.2359  0.1032
   71loPI   C3B 1135   8.861   3.901   8.414 -0.1834 -0.0394 -0.1328
   71loPI   C4B 1136   9.265   4.095   8.339  0.2051 -0.0193 -0.1586
   72loPI    C1 1137  13.410  13.242  11.079 -0.1855 -0.1673  0.0586
   72loPI    C2 1138  13.312  12.971  11.357 -0.1047 -0.2207  0.0351
   72loPI    C3 1139  13.124  13.324  11.347 -0.1169 -0.2237  0.1495
   72loPI   PO4 1140  13.621  12.960  10.953  0.3330 -0.0105  0.1934
   72loPI   GL1 1141  13.627  12.592  10.686 -0.0484 -0.1752 -0.0013
   72loPI   GL2 1142  13.689  12.229  10.519  0.3020 -0.1020  0.0841
   72loPI   C1A 1143  13.421  12.697  10.246 -0.0694 -0.0413  0.1018
   72loPI   C2A 1144  13.504  12.903   9.857  0.1942  0.1505  0.0931
   72loPI   C3A 1145  13.493  12.791   9.438  0.2606 -0.0176 -0.0688
   72loPI   C4A 1146  13.302  12.588   9.091  0.0201  0.0986 -0.2077
   72loPI   C5A 1147  13.374  12.391   8.693 -0.1853  0.2249  0.1875
   72loPI   C6A 1148  13.150  12.167   8.415 -0.0717 -0.1097 -0.2042
   72loPI   C1B 1149  13.961  12.147  10.227 -0.0041 -0.0002  0.2592
   72loPI   C2B 1150  14.223  12.318   9.848  0.1341 -0.1087 -0.0758
   72loPI   C3B 1151  14.235  12.252   9.384  0.0737 -0.1748 -0.1742
   72loPI   C4B 1152  14.231  12.234   8.940  0.2080 -0.1550 -0.2224
   73loPI    C1 1153  14.896   6.323  10.723  0.1995  0.0190 -0.2109
   73loPI    C2 1154  15.158   6.555  10.916 -0.1142  0.0034  0.2487
   73loPI    C3 1155  15.119   6.170  11.017  0.1532 -0.1699 -0.2726
   73loPI   PO4 1156  14.846   6.391  10.502  0.0127 -0.1952 -0.1135
   73loPI   GL1 1157  14.520   6.668  10.237 -0.1984  0.1447 -0.1850
   73loPI   GL2 1158  14.235   6.700  10.016 -0.0484  0.0478 -0.1074
   73loPI   C1A 1159  14.593   6.664   9.718 -0.2593  0.1531  0.0630
   73loPI   C2A 1160  14.530   6.635   9.292 -0.0181  0.4713 -0.3798
   73loPI   C3A 1161  14.410   6.636   8.882 -0.0480 -0.0239 -0.0028
   73loPI   C4A 1162  14.173   6.729   8.562 -0.1042  0.2551 -0.1373
   73loPI   C5A 1163  14.136   6.781   8.154  0.0425 -0.2014 -0.1058
   73loPI   C6A 1164  14.476   7.100   7.930 -0.2611  0.1059 -0.2518
   73loPI   C1B 1165  14.121   6.857   9.597 -0.3177  0.1130 -0.0321
   73loPI   C2B 1166  14.158   6.986   9.197  0.0483  0.0852  0.2841
   73loPI   C3B 1167  14.310   7.124   8.818  0.0683 -0.1979 -0.1301
   73loPI   C4B 1168  14.370   7.218   8.387  0.1162 -0.1062 -0.2296
   74loPI    C1 1169  15.027   8.165  11.017 -0.0031 -0.0639  0.0361
   74loPI    C2 1170  14.886   8.414  11.297 -0.1944 -0.0554 -0.0660
   74loPI    C3 1171  15.255   8.465  11.151 -0.2063  0.1252 -0.0350
   74loPI   PO4 1172  14.976   8.178  10.816  0.0643  0.2176 -0.1161
   74loPI   GL1 1173  15.088   8.336  10.357  0.0197  0.2639 -0.3400
   74loPI   GL2 1174  14.854   8.591  10.358  0.2549  0.0107 -0.3636
   74loPI   C1A 1175  14.993   8.551   9.871 -0.1265  0.0359  0.3063
   74loPI   C2A 1176  14.969   8.444   9.537  0.1797  0.2301 -0.0243
   74loPI   C3A 1177  15.143   8.513   9.157  0.1850  0.0811  0.2129
   74loPI   C4A 1178  15.205   8.474   8.799 -0.2064 -0.0001 -0.1506
   74loPI   C5A 1179  15.145   8.582   8.313 -0.1342  0.3229 -0.3280
   74loPI   C6A 1180  15.435   8.577   7.830 -0.1022 -0.1727 -0.0428
   74loPI   C1B 1181  14.572   8.383  10.007  0.1758 -0.2135 -0.0887
   74loPI   C2B 1182  14.476   8.515   9.557 -0.0423 -0.1685  0.1978
   74loPI   C3B 1183  14.624   8.444   9.040  0.0907 -0.0776 -0.2021
   74loPI   C4B 1184  14.756   8.432   8.633 -0.2673 -0.0585 -0.0105
   75loPI    C1 1185  11.837  11.753  10.511 -0.0546  0.1793 -0.0155
   75loPI    C2 1186  11.988  11.681  10.874  0.0363 -0.2936 -0.1397
   75loPI    C3 1187  12.167  11.944  10.631 -0.0647  0.0781  0.1779
   75loPI   PO4 1188  11.559  11.716  10.594  0.0971 -0.1306  0.0869
   75loPI   GL1 1189  11.375  11.490  10.225 -0.0044 -0.0145 -0.1662
   75loPI   GL2 1190  11.480  11.773  10.028 -0.0709 -0.0181  0.0239
   75loPI   C1A 1191  11.415  11.374   9.752  0.3831  0.0494 -0.3753
   75loPI   C2A 1192  11.275  11.517   9.304 -0.4441  0.1068 -0.3732
   75loPI   C3A 1193  11.146  11.603   8.902 -0.1043 -0.1445  0.0086
   75loPI   C4A 1194  11.161  11.610   8.478 -0.0629 -0.0246  0.1827
   75loPI   C5A 1195  11.128  11.187   8.194 -0.0150  0.3724 -0.1457
   75loPI   C6A 1196  11.029  10.657   8.185  0.0103 -0.3042  0.0045
   75loPI   C1B 1197  11.761  12.097   9.807  0.1525  0.6074  0.1520
   75loPI   C2B 1198  11.779  12.330   9.382  0.0297  0.0670  0.1102
   75loPI   C3B 1199  11.768  12.280   8.944 -0.0844 -0.2386 -0.3658
   75loPI   C4B 1200  11.683  12.441   8.557  0.4778  0.0402  0.5235
   76loPI    C1 1201  11.921   0.552  11.240 -0.0558 -0.0646 -0.0452
   76loPI    C2 1202  12.222   0.754  11.409 -0.1498  0.1131 -0.0876
   76loPI    C3 1203  11.901   0.654  11.626 -0.2278  0.2570 -0.1347
   76loPI   PO4 1204  11.875   0.650  10.954  0.1366  0.0293  0.2773
   76loPI   GL1 1205  11.817   0.601  10.533 -0.0513 -0.0043  0.0959
   76loPI   GL2 1206  11.728   0.918  10.445  0.0572  0.0181 -0.0180
   76loPI   C1A 1207  11.968   0.699  10.022 -0.2709  0.0331 -0.0637
   76loPI   C2A 1208  12.057   0.713   9.578 -0.3921 -0.2897  0.0100
   76loPI   C3A 1209  12.110   0.454   9.361 -0.0820  0.0539 -0.0703
   76loPI   C4A 1210  12.054   0.568   8.941  0.1138  0.0214 -0.2006
   76loPI   C5A 1211  12.227   0.576   8.576 -0.1110 -0.1958  0.0591
   76loPI   C6A 1212  12.637   0.740   8.548 -0.1309  0.2483  0.1660
   76loPI   C1B 1213  11.673   1.055  10.130  0.0193 -0.1676  0.1304
   76loPI   C2B 1214  11.744   1.092   9.693 -0.1042 -0.2195  0.1566
   76loPI   C3B 1215  11.783   1.019   9.215 -0.0428 -0.0952  0.3364
   76loPI   C4B 1216  11.826   0.951   8.773 -0.0395  0.1470 -0.2636
   77loPI    C1 1217  14.061   3.907  10.482  0.2326 -0.3234 -0.0691
   77loPI    C2 1218  13.773   3.858  10.756  0.0277  0.0732 -0.2055
   77loPI    C3 1219  14.134   3.990  10.867 -0.0424  0.1942 -0.1190
   77loPI   PO4 1220  13.903   4.028  10.258  0.0502  0.0536  0.0614
   77loPI   GL1 1221  13.676   4.068   9.825 -0.0388  0.0713 -0.0122
   77loPI   GL2 1222  13.655   3.832   9.839  0.1183 -0.1380 -0.0282
   77loPI   C1A 1223  13.555   4.124   9.371 -0.0823 -0.0476 -0.3142
   77loPI   C2A 1224  13.517   4.111   9.017 -0.1065  0.0677 -0.0592
   77loPI   C3A 1225  13.520   4.184   8.547 -0.0885 -0.0519  0.0881
   77loPI   C4A 1226  13.842   4.164   8.147 -0.1252  0.3226  0.0617
   77loPI   C5A 1227  13.986   4.600   7.905  0.0618 -0.0730 -0.0353
   77loPI   C6A 1228  14.264   4.865   7.927  0.3655 -0.0139 -0.2372
   77loPI   C1B 1229  13.888   3.738   9.420  0.0442 -0.0209  0.2936
   77loPI   C2B 1230  13.919   3.734   9.039  0.1351  0.1645 -0.1088
   77loPI   C3B 1231  13.923   3.824   8.564 -0.0146  0.4358  0.1125
   77loPI   C4B 1232  13.822   3.677   8.217 -0.1099  0.2795  0.0121
   78loPI    C1 1233   9.749   6.060  10.552 -0.2923 -0.0138 -0.3006
   78loPI    C2 1234  10.083   6.280  10.554 -0.2070 -0.1412  0.0187
   78loPI    C3 1235  10.105   5.882  10.515 -0.3344 -0.1339 -0.1390
   78loPI   PO4 1236   9.622   6.249  10.473  0.1357 -0.0566 -0.0503
   78loPI   GL1 1237   9.350   6.271  10.085  0.1717 -0.1549  0.1803
   78loPI   GL2 1238   9.412   5.984   9.890 -0.2785  0.3323  0.2586
   78loPI   C1A 1239   9.444   6.409   9.654 -0.3275 -0.0748 -0.0525
   78loPI   C2A 1240   9.531   6.342   9.196  0.0164 -0.1423  0.3045
   78loPI   C3A 1241   9.507   6.188   8.822  0.5476  0.0976 -0.3007
   78loPI   C4A 1242   9.649   6.213   8.440 -0.0479  0.1820 -0.0486
   78loPI   C5A 1243   9.752   5.991   8.145  0.1563 -0.0989 -0.0058
   78loPI   C6A 1244   9.466   5.653   7.997 -0.1848 -0.1288  0.0421
   78loPI   C1B 1245   9.496   5.913   9.436  0.2011 -0.1101  0.0494
   78loPI   C2B 1246   9.371   5.759   9.041 -0.1428  0.1266 -0.1819
   78loPI   C3B 1247   9.422   5.720   8.631  0.1964 -0.0196  0.0888
   78loPI   C4B 1248   9.418   5.288   8.396  0.2330  0.3063  0.0201
   79loPI    C1 1249  16.919  12.030  10.938 -0.0936 -0.2552 -0.1792
   79loPI    C2 1250  17.178  11.726  10.932  0.0278 -0.1562 -0.0446
   79loPI    C3 1251  17.192  11.994  11.228 -0.2608 -0.1766 -0.0098
   79loPI   PO4 1252  16.946  12.197  10.719 -0.1213  0.0970  0.0553
   79loPI   GL1 1253  16.857  12.225  10.389  0.0774  0.2218 -0.0280
   79loPI   GL2 1254  16.509  12.080  10.210  0.1578  0.2961 -0.2571
   79loPI   C1A 1255  16.874  12.258   9.936 -0.1453  0.0559 -0.0874
   79loPI   C2A 1256  16.951  12.276   9.484 -0.2362 -0.0768 -0.0117
   79loPI   C3A 1257  16.902  12.295   9.038 -0.1995 -0.4487  0.1180
   79loPI   C4A 1258  16.703  12.539   8.680 -0.0235  0.3057 -0.3525
   79loPI   C5A 1259  16.916  12.825   8.574 -0.1109 -0.3860 -0.1251
   79loPI   C6A 1260  17.240  12.825   8.814  0.0642 -0.0533 -0.1471
   79loPI   C1B 1261  16.495  11.949   9.756 -0.0778 -0.1101  0.1391
   79loPI   C2B 1262  16.548  11.959   9.302 -0.0799 -0.1070  0.1105
   79loPI   C3B 1263  16.709  11.593   9.047  0.1951  0.1764  0.1438
   79loPI   C4B 1264  16.496  11.246   8.793 -0.0030  0.3411  0.0749
   80loPI    C1 1265  17.719  12.984  10.726 -0.1639  0.0931  0.0686
   80loPI    C2 1266  17.612  12.841  11.084 -0.0541 -0.0312  0.0528
   80loPI    C3 1267  17.848  13.163  11.060  0.0912 -0.1336  0.0954
   80loPI   PO4 1268  17.852  12.836  10.596  0.3425 -0.1687  0.2219
   80loPI   GL1 1269  17.982  12.722  10.242 -0.1802  0.0363 -0.1408
   80loPI   GL2 1270  17.711  12.650  10.130  0.0969  0.1389  0.1566
   80loPI   C1A 1271  17.998  12.929   9.803  0.1500  0.0589 -0.1576
   80loPI   C2A 1272  17.933  12.930   9.400  0.0352  0.0523 -0.2454
   80loPI   C3A 1273  17.920  12.931   8.928  0.0488 -0.2039  0.0548
   80loPI   C4A 1274  17.619  12.864   8.567  0.1540 -0.0871 -0.0995
   80loPI   C5A 1275  17.249  12.726   8.271 -0.1751  0.1210  0.1333
   80loPI   C6A 1276  17.119  12.687   7.885 -0.3929 -0.0512  0.2494
   80loPI   C1B 1277  17.571  12.748   9.733  0.0284  0.0371 -0.1112
   80loPI   C2B 1278  17.517  12.608   9.241  0.0620 -0.1850 -0.0169
   80loPI   C3B 1279  17.406  12.362   8.867 -0.0694  0.1379  0.0011
   80loPI   C4B 1280  17.097  12.349   8.537 -0.0529 -0.0586 -0.1609
   81loPI    C1 1281   7.503  14.438  10.277  0.1490  0.0554  0.0676
   81loPI    C2 1282   7.325  14.279  10.598 -0.1306  0.1685 -0.0285
   81loPI    C3 1283   7.413  14.049  10.283  0.0522  0.0779  0.0872
   81loPI   PO4 1284   7.372  14.564  10.072  0.0594 -0.2008  0.0933
   81loPI   GL1 1285   7.476  14.365   9.777 -0.0774 -0.0931 -0.0629
   81loPI   GL2 1286   7.779  14.225   9.924 -0.0258  0.3108 -0.0249
   81loPI   C1A 1287   7.444  14.410   9.281  0.0560 -0.3883 -0.0293
   81loPI   C2A 1288   7.533  14.214   8.897  0.2923  0.0762  0.3745
   81loPI   C3A 1289   7.256  14.527   8.800  0.1961  0.1293  0.1150
   81loPI   C4A 1290   6.885  14.598   8.540  0.0702  0.0654 -0.2154
   81loPI   C5A 1291   6.814  15.003   8.481 -0.2689 -0.0278  0.2064
   81loPI   C6A 1292   6.864  15.175   8.066  0.4818  0.1265  0.0967
   81loPI   C1B 1293   7.774  14.030   9.534  0.1639  0.0305 -0.1643
   81loPI   C2B 1294   7.773  13.938   9.193  0.0203 -0.1325  0.0850
   81loPI   C3B 1295   7.940  13.895   8.799 -0.2051 -0.2050  0.0519
   81loPI   C4B 1296   8.162  13.982   8.413 -0.1730  0.1188 -0.1237
   82loPI    C1 1297   0.648  16.476  11.148  0.1648 -0.3495  0.1736
   82loPI    C2 1298   0.982  16.496  11.367  0.0963 -0.2939  0.2739
   82loPI    C3 1299   0.807  16.832  11.238  0.2614 -0.3313 -0.0599
   82loPI   PO4 1300   0.719  16.348  10.966 -0.0220 -0.1131 -0.3265
   82loPI   GL1 1301   0.776  16.308  10.540 -0.1531 -0.0887  0.0005
   82loPI   GL2 1302   0.596  16.002  10.442 -0.0529  0.1400 -0.0471
   82loPI   C1A 1303   0.552  16.410  10.185 -0.1848  0.0168 -0.0963
   82loPI   C2A 1304   0.495  16.447   9.797  0.3297  0.1259 -0.0616
   82loPI   C3A 1305   0.357  16.417   9.366  0.1326  0.1031  0.0296
   82loPI   C4A 1306   0.209  16.300   8.958 -0.2514  0.0043 -0.1529
   82loPI   C5A 1307   0.213  16.040   8.608 -0.1064 -0.0851 -0.2409
   82loPI   C6A 1308   0.405  15.797   8.364  0.1863 -0.0219  0.2843
   82loPI   C1B 1309   0.509  15.986   9.979 -0.0161  0.1228 -0.1099
   82loPI   C2B 1310   0.417  15.894   9.591  0.0227 -0.1205 -0.2066
   82loPI   C3B 1311   0.216  15.795   9.325  0.3488 -0.0601  0.0110
   82loPI   C4B 1312  -0.168  15.702   8.948 -0.0173 -0.1603  0.0202
   83loPI    C1 1313   5.884  15.593  10.442  0.0104  0.0750  0.0567
   83loPI    C2 1314   6.185  15.531  10.699  0.0097 -0.0344  0.0317
   83loPI    C3 1315   5.811  15.573  10.835 -0.0131 -0.2496  0.0380
   83loPI   PO4 1316   6.046  15.832  10.245  0.3571 -0.2307 -0.0804
   83loPI   GL1 1317   6.066  15.900   9.834  0.1801 -0.1320  0.1060
   83loPI   GL2 1318   5.721  15.959   9.774  0.0705  0.1313  0.0132
   83loPI   C1A 1319   5.962  15.656   9.500  0.0524 -0.1702  0.2823
   83loPI   C2A 1320   5.672  15.527   9.129 -0.0558  0.0339  0.2532
   83loPI   C3A 1321   5.512  15.550   8.641 -0.3502 -0.1105  0.0066
   83loPI   C4A 1322   5.751  15.589   8.140  0.1156  0.0159 -0.1114
   83loPI   C5A 1323   6.078  15.666   7.879  0.0440 -0.0807 -0.2601
   83loPI   C6A 1324   6.547  15.546   7.868 -0.0382  0.1481 -0.1656
   83loPI   C1B 1325   5.535  15.597   9.745 -0.0211  0.0231 -0.1976
   83loPI   C2B 1326   5.635  15.303   9.643 -0.1253  0.0106  0.3603
   83loPI   C3B 1327   5.973  15.148   9.344 -0.1208 -0.0464 -0.0364
   83loPI   C4B 1328   6.209  14.914   9.056 -0.1425 -0.0431 -0.0296
   84loPI    C1 1329  10.841  11.737  11.005  0.0221  0.1735  0.1206
   84loPI    C2 1330  10.831  11.577  11.371 -0.2680  0.0450  0.0593
   84loPI    C3 1331  10.923  11.963  11.324 -0.1538  0.0436  0.2595
   84loPI   PO4 1332  10.638  11.640  10.893  0.1302  0.1113 -0.0414
   84loPI   GL1 1333  10.572  11.797  10.406 -0.1269  0.0306 -0.1358
   84loPI   GL2 1334  10.374  11.638  10.195  0.2380 -0.2487 -0.3353
   84loPI   C1A 1335  10.810  11.837   9.998 -0.0030 -0.3654 -0.0319
   84loPI   C2A 1336  10.974  11.616   9.712  0.0371 -0.1721  0.3985
   84loPI   C3A 1337  10.700  11.525   9.404 -0.0684  0.0196 -0.0921
   84loPI   C4A 1338  10.584  11.549   8.977 -0.1111  0.0905  0.0409
   84loPI   C5A 1339  10.738  11.238   8.595  0.1695 -0.2717 -0.0229
   84loPI   C6A 1340  10.594  11.100   8.187  0.3363  0.0670 -0.3005
   84loPI   C1B 1341  10.362  11.918   9.833 -0.1840 -0.0997  0.3316
   84loPI   C2B 1342  10.306  11.847   9.424  0.0794 -0.0305 -0.1185
   84loPI   C3B 1343  10.198  11.771   9.140  0.1475  0.2943 -0.1302
   84loPI   C4B 1344  10.197  11.913   8.735  0.2804 -0.1432  0.1544
   85loPI    C1 1345   1.220   0.411  10.985  0.1431  0.0373  0.1681
   85loPI    C2 1346   1.499   0.198  11.178 -0.0458 -0.2800  0.0974
   85loPI    C3 1347   1.145   0.268  11.351  0.0063 -0.0388  0.1107
   85loPI   PO4 1348   1.277   0.341  10.743 -0.4048 -0.0735  0.0465
   85loPI   GL1 1349   1.355   0.450  10.353  0.0067  0.1193 -0.0783
   85loPI   GL2 1350   1.606   0.550  10.143 -0.2118 -0.2392  0.0360
   85loPI   C1A 1351   1.053   0.454  10.031 -0.1634  0.2768  0.0205
   85loPI   C2A 1352   0.762   0.356   9.734 -0.1442 -0.1634 -0.1493
   85loPI   C3A 1353   0.814   0.227   9.385 -0.3120  0.0602 -0.0148
   85loPI   C4A 1354   0.854   0.057   8.919 -0.0185 -0.4279 -0.1261
   85loPI   C5A 1355   0.990   0.232   8.422  0.2506 -0.1516  0.0022
   85loPI   C6A 1356   1.026   0.586   8.076 -0.0863  0.1969  0.0019
   85loPI   C1B 1357   1.524   0.331   9.831 -0.3756 -0.0213  0.0970
   85loPI   C2B 1358   1.788   0.235   9.422  0.0058 -0.2716 -0.1364
   85loPI   C3B 1359   1.749   0.235   9.001  0.1371 -0.0318 -0.1036
   85loPI   C4B 1360   1.769   0.109   8.541  0.1367  0.3220 -0.0634
   86loPI    C1 1361   9.137   6.354  10.558  0.0500  0.1281 -0.2024
   86loPI    C2 1362   8.846   6.621  10.495 -0.2625 -0.1580 -0.0034
   86loPI    C3 1363   9.078   6.651  10.820 -0.2280 -0.0691 -0.0359
   86loPI   PO4 1364   8.987   6.137  10.439 -0.0142 -0.0855 -0.3156
   86loPI   GL1 1365   8.805   6.104  10.136 -0.1956  0.1398  0.1065
   86loPI   GL2 1366   8.976   5.817  10.033  0.0438 -0.0482  0.2033
   86loPI   C1A 1367   8.793   6.461   9.982  0.1549 -0.0000  0.0090
   86loPI   C2A 1368   8.908   6.529   9.577  0.1015 -0.3599  0.0635
   86loPI   C3A 1369   9.136   6.652   9.276  0.0694 -0.0721  0.1861
   86loPI   C4A 1370   9.201   6.608   8.815 -0.0342  0.1439 -0.0950
   86loPI   C5A 1371   9.142   6.304   8.399 -0.0488  0.1922 -0.1283
   86loPI   C6A 1372   9.211   6.035   8.148 -0.1402 -0.2723 -0.2649
   86loPI   C1B 1373   8.967   6.061   9.582  0.0553  0.1645  0.1791
   86loPI   C2B 1374   9.059   6.189   9.077  0.2795 -0.1192  0.1350
   86loPI   C3B 1375   8.809   6.169   8.747  0.1369  0.2000  0.0996
   86loPI   C4B 1376   8.319   6.251   8.670 -0.3387  0.2094  0.2836
   87loPI    C1 1377   8.817   0.665  10.513  0.0855 -0.2718  0.3764
   87loPI    C2 1378   8.435   0.721  10.614  0.0209 -0.2028  0.1018
   87loPI    C3 1379   8.721   0.943  10.783 -0.1377  0.2909 -0.2536
   87loPI   PO4 1380   8.863   0.740  10.225 -0.3682 -0.0067 -0.0449
   87loPI   GL1 1381   8.886   1.004   9.888 -0.0926 -0.0821  0.0300
   87loPI   GL2 1382   9.268   1.059  10.112 -0.0191  0.0195  0.1337
   87loPI   C1A 1383   8.762   1.135   9.471  0.2616  0.1099 -0.1017
   87loPI   C2A 1384   8.813   1.272   9.048  0.1882 -0.0500 -0.0000
   87loPI   C3A 1385   8.654   1.368   8.684 -0.0958 -0.2410  0.3201
   87loPI   C4A 1386   8.664   1.210   8.228  0.1315  0.2937  0.2493
   87loPI   C5A 1387   8.834   1.322   7.899 -0.5393  0.2976  0.1659
   87loPI   C6A 1388   9.038   1.738   7.791  0.0431 -0.0425  0.0712
   87loPI   C1B 1389   9.326   1.191   9.696 -0.0343  0.0126  0.0452
   87loPI   C2B 1390   9.321   1.270   9.298  0.0435 -0.0965 -0.1229
   87loPI   C3B 1391   9.308   1.297   8.809 -0.2284  0.0494  0.1087
   87loPI   C4B 1392   9.105   1.318   8.404 -0.5689 -0.0202 -0.1028
   88loPI    C1 1393   0.520   7.614  10.761  0.4049 -0.1450 -0.1287
   88loPI    C2 1394   0.317   7.399  11.031  0.0294  0.0317 -0.2625
   88loPI    C3 1395   0.607   7.648  11.150 -0.0145 -0.0215 -0.0396
   88loPI   PO4 1396   0.373   7.626  10.590 -0.0489 -0.2167  0.2178
   88loPI   GL1 1397   0.368   7.849  10.231 -0.2156 -0.0358 -0.2089
   88loPI   GL2 1398   0.388   8.120  10.111  0.1379 -0.1600 -0.2352
   88loPI   C1A 1399   0.053   7.862   9.877 -0.0677  0.1448  0.3521
   88loPI   C2A 1400   0.055   7.960   9.517  0.0838 -0.1580  0.2067
   88loPI   C3A 1401   0.055   7.894   9.115  0.2536  0.2079  0.4362
   88loPI   C4A 1402   0.357   8.087   8.857  0.1340 -0.0598 -0.0807
   88loPI   C5A 1403   0.514   8.546   9.039  0.0539  0.0251 -0.0313
   88loPI   C6A 1404   0.585   8.811   9.428  0.0319  0.1645 -0.1902
   88loPI   C1B 1405   0.531   8.141   9.717 -0.2772 -0.2049 -0.1230
   88loPI   C2B 1406   0.548   7.951   9.307 -0.3646  0.2288  0.1620
   88loPI   C3B 1407   0.892   7.856   9.036  0.1610 -0.0762  0.1893
   88loPI   C4B 1408   1.006   7.783   8.621  0.0694  0.0286  0.1474
   89loPI    C1 1409   1.959  13.557  11.055 -0.2076  0.2786 -0.2108
   89loPI    C2 1410   1.776  13.842  11.268 -0.0751  0.1601  0.0674
   89loPI    C3 1411   1.954  13.537  11.455 -0.1471 -0.0646 -0.2244
   89loPI   PO4 1412   1.911  13.565  10.780 -0.1638  0.0132 -0.2953
   89loPI   GL1 1413   2.094  13.563  10.449 -0.1021  0.2835 -0.1112
   89loPI   GL2 1414   2.213  13.215  10.525  0.0467  0.1031  0.2405
   89loPI   C1A 1415   2.004  13.546   9.917 -0.2116  0.0215 -0.3667
   89loPI   C2A 1416   1.738  13.627   9.644  0.1289  0.0265 -0.2356
   89loPI   C3A 1417   1.501  13.519   9.316  0.0098  0.1457  0.2072
   89loPI   C4A 1418   1.729  13.526   8.812 -0.0467  0.1577 -0.1939
   89loPI   C5A 1419   1.807  13.522   8.376  0.0174 -0.0499  0.3332
   89loPI   C6A 1420   2.175  13.453   8.155 -0.0734  0.0502 -0.1120
   89loPI   C1B 1421   2.249  13.073  10.021 -0.1787 -0.1161  0.0330
   89loPI   C2B 1422   1.856  12.756   9.766  0.3085 -0.0599  0.1551
   89loPI   C3B 1423   1.902  12.673   9.347  0.0913 -0.0171 -0.1423
   89loPI   C4B 1424   1.763  12.440   8.936 -0.0273 -0.1280  0.2668
   90loPI    C1 1425   7.385   7.829  10.501 -0.0456  0.4162 -0.0629
   90loPI    C2 1426   7.137   7.719  10.795  0.0891  0.0647 -0.0763
   90loPI    C3 1427   7.528   7.765  10.869  0.1082  0.0686 -0.1785
   90loPI   PO4 1428   7.296   8.021  10.313  0.1572  0.0114  0.0998
   90loPI   GL1 1429   7.413   8.169   9.876 -0.0361 -0.0056  0.1490
   90loPI   GL2 1430   7.612   8.183   9.808 -0.1370 -0.0728  0.0148
   90loPI   C1A 1431   7.068   8.077   9.598  0.0750  0.1139  0.0513
   90loPI   C2A 1432   7.131   8.070   9.161 -0.0260 -0.1335  0.1053
   90loPI   C3A 1433   7.210   8.026   8.813 -0.0163 -0.2016 -0.2137
   90loPI   C4A 1434   7.476   8.030   8.474  0.1411 -0.2192 -0.1217
   90loPI   C5A 1435   7.841   8.174   8.186 -0.0473  0.2309 -0.0346
   90loPI   C6A 1436   7.708   8.560   7.898  0.0495 -0.0767  0.0281
   90loPI   C1B 1437   7.582   8.098   9.407  0.1562 -0.0086  0.2003
   90loPI   C2B 1438   7.724   8.033   8.895  0.0785 -0.2021 -0.1340
   90loPI   C3B 1439   7.932   7.719   8.627  0.0543 -0.0465 -0.2062
   90loPI   C4B 1440   7.940   7.691   8.198 -0.1833  0.0488 -0.0240
   91loPI    C1 1441  15.206  13.025  10.990  0.2004  0.0333  0.0412
   91loPI    C2 1442  15.490  12.901  11.243  0.1848  0.0013  0.0434
   91loPI    C3 1443  15.147  12.698  11.213  0.2115 -0.0307 -0.0490
   91loPI   PO4 1444  15.331  13.119  10.736  0.0420 -0.1730  0.1176
   91loPI   GL1 1445  15.469  12.799  10.354  0.2022 -0.2334 -0.3457
   91loPI   GL2 1446  15.651  12.613  10.279  0.4021  0.1917  0.0453
   91loPI   C1A 1447  15.229  12.845   9.970  0.0657  0.1809 -0.0520
   91loPI   C2A 1448  15.161  12.741   9.621  0.0551 -0.0592  0.0949
   91loPI   C3A 1449  15.142  12.480   9.298 -0.5049  0.2786  0.0038
   91loPI   C4A 1450  15.130  12.443   8.864  0.1256 -0.0167  0.2978
   91loPI   C5A 1451  15.180  12.060   8.614 -0.0288  0.3283  0.0192
   91loPI   C6A 1452  15.292  12.025   8.238 -0.0891 -0.0157  0.0127
   91loPI   C1B 1453  15.708  12.590   9.870  0.3965  0.1672  0.0778
   91loPI   C2B 1454  15.607  12.616   9.372 -0.0560  0.2603  0.3028
   91loPI   C3B 1455  15.856  12.733   8.975  0.1940  0.0502 -0.1323
   91loPI   C4B 1456  15.735  12.842   8.540  0.2089 -0.2142  0.1665
   92loPI    C1 1457   8.158  11.212  10.881  0.1370 -0.2318 -0.0576
   92loPI    C2 1458   8.413  11.474  11.042 -0.1716 -0.1272  0.2734
   92loPI    C3 1459   8.403  11.097  11.175 -0.0719 -0.1774  0.1407
   92loPI   PO4 1460   8.151  11.232  10.630  0.0134  0.0553  0.2379
   92loPI   GL1 1461   8.248  11.122  10.272  0.0836 -0.2305  0.0502
   92loPI   GL2 1462   8.571  11.135  10.157  0.1076  0.0008  0.3710
   92loPI   C1A 1463   8.251  11.327   9.825  0.0498 -0.0946 -0.2414
   92loPI   C2A 1464   8.446  11.313   9.492 -0.0470  0.0702 -0.1175
   92loPI   C3A 1465   8.474  11.216   9.133 -0.1320 -0.0090  0.1619
   92loPI   C4A 1466   8.440  11.404   8.739  0.3168  0.2523  0.1314
   92loPI   C5A 1467   8.294  11.509   8.308  0.1793  0.0243 -0.0625
   92loPI   C6A 1468   8.266  11.365   7.826 -0.1819  0.0063  0.0908
   92loPI   C1B 1469   8.513  10.862   9.752  0.4031  0.0335 -0.1004
   92loPI   C2B 1470   8.591  10.767   9.325 -0.0138  0.0523  0.0517
   92loPI   C3B 1471   8.464  10.762   9.010 -0.1422  0.1322  0.1713
   92loPI   C4B 1472   8.557  10.934   8.596  0.1664  0.0709 -0.1058
   93loPI    C1 1473  17.187   4.602  10.197  0.0317 -0.2445  0.0809
   93loPI    C2 1474  17.092   4.835  10.508 -0.0112 -0.0679 -0.0625
   93loPI    C3 1475  16.805   4.698  10.266  0.0375 -0.0697 -0.1195
   93loPI   PO4 1476  17.429   4.598  10.219  0.0525 -0.1717  0.0552
   93loPI   GL1 1477  17.575   4.379   9.876 -0.0995 -0.0255 -0.3690
   93loPI   GL2 1478  17.415   4.119   9.892  0.0241  0.0162 -0.0821
   93loPI   C1A 1479  17.707   4.150   9.457  0.0625  0.2151  0.0402
   93loPI   C2A 1480  17.752   4.186   9.073  0.2846 -0.4068  0.2646
   93loPI   C3A 1481  17.878   4.244   8.637  0.0546  0.2100 -0.0260
   93loPI   C4A 1482  18.167   4.122   8.279 -0.1756 -0.0087 -0.0139
   93loPI   C5A 1483  17.984   3.958   7.948  0.2801  0.3084  0.0844
   93loPI   C6A 1484  18.028   3.798   7.458  0.0583  0.3892 -0.2296
   93loPI   C1B 1485  17.312   3.769   9.594 -0.2937  0.1601 -0.0437
   93loPI   C2B 1486  17.366   3.810   9.157  0.1001 -0.2075 -0.0559
   93loPI   C3B 1487  17.516   3.942   8.744  0.1282  0.0660  0.1509
   93loPI   C4B 1488  17.481   4.031   8.284  0.2076 -0.1859 -0.2298
   94loPI    C1 1489  11.085  16.258  10.971  0.3279  0.3375  0.0953
   94loPI    C2 1490  11.139  16.029  11.294 -0.1596 -0.0257 -0.0678
   94loPI    C3 1491  10.973  16.392  11.331 -0.0736 -0.0026  0.1050
   94loPI   PO4 1492  11.059  16.113  10.792  0.0865 -0.0237  0.0229
   94loPI   GL1 1493  10.992  16.004  10.329 -0.1028 -0.2464  0.2826
   94loPI   GL2 1494  10.642  15.895  10.199  0.2036  0.0489 -0.0145
   94loPI   C1A 1495  11.076  16.193   9.917  0.2682  0.0207 -0.0119
   94loPI   C2A 1496  11.164  16.053   9.493  0.3063  0.3615  0.2387
   94loPI   C3A 1497  11.130  16.129   9.047 -0.1661  0.0484 -0.1608
   94loPI   C4A 1498  11.112  16.168   8.545  0.1016  0.0178  0.0955
   94loPI   C5A 1499  11.029  16.316   8.207  0.2440 -0.0096 -0.0699
   94loPI   C6A 1500  10.728  16.600   7.834  0.2098 -0.1443 -0.2065
   94loPI   C1B 1501  10.608  16.045   9.723  0.3120 -0.0734 -0.1062
   94loPI   C2B 1502  10.672  16.137   9.314  0.4279  0.1792  0.0654
   94loPI   C3B 1503  10.651  16.215   8.815 -0.2261 -0.3482 -0.1308
   94loPI   C4B 1504  10.558  16.299   8.358 -0.0818 -0.0970 -0.2053
   95loPI    C1 1505   5.730   7.831  10.753 -0.1950 -0.2948  0.0396
   95loPI    C2 1506   5.715   8.191  10.928  0.1000 -0.3517  0.1889
   95loPI    C3 1507   5.384   7.968  10.899 -0.0845 -0.0706  0.0965
   95loPI   PO4 1508   5.807   7.977  10.494  0.0497  0.2666  0.0137
   95loPI   GL1 1509   5.729   7.997  10.102 -0.1457  0.0560  0.1279
   95loPI   GL2 1510   6.042   7.848   9.939  0.1063  0.0643 -0.0163
   95loPI   C1A 1511   5.516   7.945   9.668 -0.0527  0.0600 -0.1483
   95loPI   C2A 1512   5.532   7.886   9.186 -0.0894 -0.0281  0.1658
   95loPI   C3A 1513   5.684   8.063   8.772 -0.0872  0.1393  0.2628
   95loPI   C4A 1514   5.866   8.406   8.501 -0.1650  0.1555 -0.1785
   95loPI   C5A 1515   6.018   8.855   8.248 -0.0004  0.5464  0.0321
   95loPI   C6A 1516   6.247   9.074   8.272  0.0094 -0.4892  0.0236
   95loPI   C1B 1517   5.988   7.926   9.466  0.0059 -0.1787  0.0227
   95loPI   C2B 1518   6.083   7.984   9.024 -0.4167  0.4329 -0.0266
   95loPI   C3B 1519   6.166   7.948   8.565  0.2640 -0.3339 -0.3989
   95loPI   C4B 1520   5.755   7.918   8.288  0.0073  0.1150 -0.1074
   96loPI    C1 1521   6.590  15.220  10.619 -0.0167 -0.2837  0.1561
   96loPI    C2 1522   6.438  14.970  10.893  0.0370 -0.3010  0.1702
   96loPI    C3 1523   6.618  15.309  11.008  0.0671 -0.3124  0.1569
   96loPI   PO4 1524   6.637  15.090  10.417  0.1595 -0.0402  0.0222
   96loPI   GL1 1525   6.601  15.207  10.004 -0.0187 -0.3314  0.1014
   96loPI   GL2 1526   6.674  14.887   9.850 -0.1319  0.1988  0.0512
   96loPI   C1A 1527   6.388  15.360   9.627 -0.4278 -0.0634 -0.1786
   96loPI   C2A 1528   6.388  15.390   9.229 -0.1578 -0.0757 -0.3519
   96loPI   C3A 1529   6.134  15.581   9.013  0.2991  0.1315  0.0073
   96loPI   C4A 1530   5.900  15.900   8.762 -0.0674  0.0859  0.1125
   96loPI   C5A 1531   5.970  16.095   8.291 -0.1356 -0.5386  0.0956
   96loPI   C6A 1532   5.770  16.029   7.886  0.0325 -0.0253  0.3535
   96loPI   C1B 1533   6.881  15.216   9.562 -0.5045 -0.0779  0.1723
   96loPI   C2B 1534   6.969  15.382   9.170  0.2433 -0.1378 -0.0514
   96loPI   C3B 1535   6.928  15.430   8.706  0.0144  0.1357  0.0012
   96loPI   C4B 1536   6.801  15.598   8.340  0.2804  0.2343  0.4016
   97loPI    C1 1537  11.054  17.029  10.551  0.1577 -0.0203  0.0525
   97loPI    C2 1538  11.051  17.425  10.606  0.1151 -0.0333  0.1435
   97loPI    C3 1539  10.797  17.193  10.810  0.0569 -0.0956  0.0008
   97loPI   PO4 1540  11.341  16.975  10.442  0.1709  0.3635 -0.0523
   97loPI   GL1 1541  11.582  16.774  10.086  0.1138  0.0392  0.0373
   97loPI   GL2 1542  11.425  16.501  10.121  0.2055  0.0068 -0.0604
   97loPI   C1A 1543  11.338  16.945   9.751 -0.1053  0.1986  0.1483
   97loPI   C2A 1544  11.119  16.954   9.366  0.0116  0.2455  0.1733
   97loPI   C3A 1545  11.057  17.032   8.895  0.1030  0.0166  0.0339
   97loPI   C4A 1546  11.047  17.180   8.635  0.2137 -0.1932 -0.0144
   97loPI   C5A 1547  11.176  17.488   8.383  0.1067  0.2477  0.1850
   97loPI   C6A 1548  11.503  17.707   8.254  0.0051  0.0228  0.2531
   97loPI   C1B 1549  11.540  16.403   9.652 -0.2765 -0.0020  0.0690
   97loPI   C2B 1550  11.445  16.419   9.248 -0.0182 -0.1403  0.2722
   97loPI   C3B 1551  11.628  16.336   8.779 -0.2043 -0.1497  0.0332
   97loPI   C4B 1552  11.580  16.268   8.359  0.2382 -0.1949  0.1592
   98loPI    C1 1553   4.408   5.528  10.710  0.1076 -0.1084 -0.0284
   98loPI    C2 1554   4.083   5.404  10.906  0.0948  0.0038  0.0221
   98loPI    C3 1555   4.433   5.219  10.962  0.0864  0.0209  0.1341
   98loPI   PO4 1556   4.393   5.540  10.345 -0.1624 -0.0960 -0.0878
   98loPI   GL1 1557   4.359   5.813  10.021 -0.2755  0.1027  0.5187
   98loPI   GL2 1558   4.443   6.064   9.969  0.1581  0.0925  0.2943
   98loPI   C1A 1559   4.509   5.624   9.623  0.0713 -0.3338 -0.0792
   98loPI   C2A 1560   4.488   5.488   9.133  0.0837  0.0415 -0.0500
   98loPI   C3A 1561   4.278   5.503   8.619  0.0664 -0.1024  0.0807
   98loPI   C4A 1562   4.271   5.274   8.207  0.0883 -0.0901  0.0907
   98loPI   C5A 1563   3.971   5.114   8.021 -0.2443  0.1302 -0.2020
   98loPI   C6A 1564   3.559   5.297   8.089 -0.0161 -0.0724  0.1796
   98loPI   C1B 1565   4.208   6.061   9.608  0.1575 -0.4670  0.1830
   98loPI   C2B 1566   3.933   6.209   9.236 -0.2280 -0.0618  0.2595
   98loPI   C3B 1567   3.848   6.351   8.925  0.2287 -0.1021 -0.2899
   98loPI   C4B 1568   3.887   6.661   8.650  0.2890  0.1501 -0.0629
   99loPI    C1 1569  17.735   5.735  10.520  0.0326  0.0136 -0.1321
   99loPI    C2 1570  17.681   5.399  10.729  0.3862 -0.1601 -0.3100
   99loPI    C3 1571  17.705   5.751  10.919  0.0225 -0.2313 -0.1219
   99loPI   PO4 1572  17.731   5.654  10.234  0.1172 -0.0034  0.1735
   99loPI   GL1 1573  17.557   5.489   9.964 -0.0743 -0.0588 -0.2690
   99loPI   GL2 1574  17.317   5.706   9.915  0.0049 -0.1521 -0.0028
   99loPI   C1A 1575  17.538   5.398   9.477  0.0264 -0.0157 -0.2352
   99loPI   C2A 1576  17.587   5.383   8.932 -0.1141 -0.0924  0.3743
   99loPI   C3A 1577  17.465   5.465   8.620 -0.0979 -0.0281 -0.1486
   99loPI   C4A 1578  17.514   5.511   8.291 -0.1862 -0.4716  0.0514
   99loPI   C5A 1579  17.282   5.474   8.061 -0.2785  0.2094 -0.3318
   99loPI   C6A 1580  16.826   5.555   7.701 -0.1509  0.0566  0.0877
   99loPI   C1B 1581  17.364   5.854   9.392 -0.0590 -0.0174  0.1283
   99loPI   C2B 1582  17.428   5.860   8.933  0.0842 -0.1244 -0.1843
   99loPI   C3B 1583  17.395   5.968   8.504  0.0757 -0.0136 -0.1512
   99loPI   C4B 1584  17.303   5.998   8.175 -0.0707 -0.2731  0.1182
  100loPI    C1 1585   4.852   5.041  10.672  0.0621  0.0216 -0.0482
  100loPI    C2 1586   4.632   4.733  10.799 -0.0797  0.1312 -0.0260
  100loPI    C3 1587   4.921   4.880  11.032  0.0662 -0.0586 -0.0847
  100loPI   PO4 1588   4.697   5.165  10.524 -0.4209  0.2155  0.0744
  100loPI   GL1 1589   4.682   5.151  10.010 -0.3449  0.2684  0.3357
  100loPI   GL2 1590   4.418   5.243   9.971 -0.1550 -0.0824  0.3413
  100loPI   C1A 1591   4.735   5.181   9.616  0.0596  0.0222 -0.0016
  100loPI   C2A 1592   4.639   5.049   9.154 -0.2500  0.2356  0.1241
  100loPI   C3A 1593   4.667   5.220   8.729 -0.0001 -0.0260  0.4313
  100loPI   C4A 1594   4.747   5.187   8.236 -0.3308  0.0891  0.0183
  100loPI   C5A 1595   4.850   5.070   7.793 -0.0131  0.1566  0.1909
  100loPI   C6A 1596   4.845   4.597   7.778 -0.1286  0.0981  0.0496
  100loPI   C1B 1597   4.229   5.207   9.575 -0.1921  0.3386 -0.0282
  100loPI   C2B 1598   4.110   5.139   9.164 -0.1934  0.0143  0.0347
  100loPI   C3B 1599   4.204   4.958   8.754  0.0730  0.3557  0.0007
  100loPI   C4B 1600   3.926   4.863   8.456 -0.1766 -0.0984  0.0861
  101loPI    C1 1601   3.268   0.216  10.390  0.1153 -0.0112  0.0519
  101loPI    C2 1602   3.163  -0.109  10.598  0.1581 -0.2721 -0.3224
  101loPI    C3 1603   3.030  -0.060  10.225  0.0435  0.2116 -0.2248
  101loPI   PO4 1604   3.176   0.466  10.549  0.1208  0.0668  0.1616
  101loPI   GL1 1605   2.765   0.634  10.355  0.1210  0.1674  0.1158
  101loPI   GL2 1606   2.602   0.299  10.128 -0.0642 -0.2385  0.2550
  101loPI   C1A 1607   2.815   0.805  10.010  0.0140  0.0066  0.0483
  101loPI   C2A 1608   2.977   0.845   9.665  0.0444  0.0558  0.0303
  101loPI   C3A 1609   3.160   1.035   9.266 -0.0223 -0.1735  0.1788
  101loPI   C4A 1610   3.089   1.220   8.849 -0.0420  0.0651 -0.3772
  101loPI   C5A 1611   3.184   1.409   8.490  0.0463 -0.2891  0.1119
  101loPI   C6A 1612   3.259   1.750   8.205 -0.0236  0.3612 -0.1377
  101loPI   C1B 1613   2.702   0.391   9.684  0.3511 -0.0996 -0.2254
  101loPI   C2B 1614   3.002   0.527   9.308  0.0282  0.0252  0.1359
  101loPI   C3B 1615   3.033   0.668   8.859 -0.0661 -0.1987  0.0355
  101loPI   C4B 1616   3.098   0.879   8.523  0.2882  0.0566  0.0011
  102loPI    C1 1617   1.672   8.124  10.587  0.0865  0.1907  0.3054
  102loPI    C2 1618   1.798   8.041  10.957  0.1357 -0.1828  0.2092
  102loPI    C3 1619   1.548   7.791  10.770  0.2865 -0.1122 -0.0938
  102loPI   PO4 1620   1.873   8.182  10.482  0.1754  0.2685 -0.2139
  102loPI   GL1 1621   2.022   8.105  10.185 -0.2237  0.1341  0.2445
  102loPI   GL2 1622   1.687   8.258  10.045  0.0623 -0.0372 -0.0309
  102loPI   C1A 1623   2.183   8.326   9.757  0.0557  0.0372 -0.0721
  102loPI   C2A 1624   2.312   8.535   9.459 -0.1724 -0.0850  0.2716
  102loPI   C3A 1625   2.416   8.738   9.167  0.1508 -0.0838 -0.1265
  102loPI   C4A 1626   2.555   8.904   8.750 -0.1858  0.1785 -0.2212
  102loPI   C5A 1627   2.374   8.948   8.317 -0.0205 -0.5108 -0.1099
  102loPI   C6A 1628   2.218   8.780   7.953  0.1068 -0.0079  0.3428
  102loPI   C1B 1629   1.452   8.231   9.702  0.0679 -0.0321  0.2546
  102loPI   C2B 1630   1.418   8.559   9.256  0.0073 -0.3943 -0.1936
  102loPI   C3B 1631   1.487   8.471   8.782  0.0031 -0.0789 -0.2805
  102loPI   C4B 1632   1.660   8.559   8.340 -0.3109 -0.0403  0.2791
  103loPI    C1 1633   8.826   9.997  10.655 -0.0939  0.0023 -0.1110
  103loPI    C2 1634   8.749  10.048  11.044  0.1411  0.0113 -0.0646
  103loPI    C3 1635   8.865  10.359  10.821 -0.2810  0.0695 -0.2106
  103loPI   PO4 1636   8.644   9.897  10.546 -0.0415 -0.0274 -0.0544
  103loPI   GL1 1637   8.496   9.767  10.186 -0.0909 -0.1537 -0.0986
  103loPI   GL2 1638   8.374   9.998  10.105 -0.0333  0.0836  0.1040
  103loPI   C1A 1639   8.861   9.891   9.908  0.2439  0.1881 -0.2780
  103loPI   C2A 1640   8.833   9.719   9.414  0.1975  0.1628 -0.1647
  103loPI   C3A 1641   8.648   9.684   9.098 -0.2989  0.0719  0.1206
  103loPI   C4A 1642   8.766   9.432   8.748  0.2447  0.0059  0.1253
  103loPI   C5A 1643   9.121   9.179   8.617 -0.2615  0.0012  0.0875
  103loPI   C6A 1644   9.324   9.156   8.241 -0.0188  0.0662 -0.1226
  103loPI   C1B 1645   8.294  10.292   9.789 -0.0739 -0.0891  0.0084
  103loPI   C2B 1646   8.202  10.538   9.501 -0.1071 -0.0728  0.2644
  103loPI   C3B 1647   8.079  10.473   9.125  0.3846  0.1858 -0.0891
  103loPI   C4B 1648   8.272  10.348   8.807  0.0568  0.1675 -0.0839
  104loPI    C1 1649   6.700  10.351  10.694  0.3143  0.3678  0.2675
  104loPI    C2 1650   6.510  10.150  10.983  0.1196 -0.0057 -0.1087
  104loPI    C3 1651   6.862  10.325  11.058  0.2478 -0.4034  0.2581
  104loPI   PO4 1652   6.497  10.322  10.459 -0.3360 -0.3182 -0.0215
  104loPI   GL1 1653   6.632  10.232   9.965  0.0280 -0.2462  0.0967
  104loPI   GL2 1654   6.887  10.253   9.793  0.0261 -0.3596  0.4188
  104loPI   C1A 1655   6.414  10.378   9.660  0.1136  0.0319 -0.3121
  104loPI   C2A 1656   6.302  10.610   9.450 -0.2655  0.1673 -0.3321
  104loPI   C3A 1657   6.209  10.672   9.114  0.0440  0.2117 -0.0335
  104loPI   C4A 1658   5.938  10.632   8.699  0.4417  0.0176 -0.1317
  104loPI   C5A 1659   5.650  10.693   8.363 -0.2500  0.0896  0.0395
  104loPI   C6A 1660   5.642  11.014   7.945 -0.0035 -0.1117  0.0843
  104loPI   C1B 1661   6.816  10.325   9.367  0.0681  0.0326  0.2217
  104loPI   C2B 1662   6.484  10.169   9.089  0.0215  0.0230  0.1640
  104loPI   C3B 1663   6.482   9.761   8.760  0.0903 -0.2161 -0.3829
  104loPI   C4B 1664   6.484   9.623   8.380  0.3260  0.1304 -0.0010
  105loPI    C1 1665  17.985   4.690  10.502 -0.0194  0.0668 -0.1257
  105loPI    C2 1666  17.627   4.828  10.617 -0.0488 -0.0864 -0.0306
  105loPI    C3 1667  17.789   4.512  10.802  0.1825  0.0446 -0.0054
  105loPI   PO4 1668  17.989   4.700  10.262  0.2175  0.1433  0.2408
  105loPI   GL1 1669  18.005   4.587   9.823  0.2363  0.3290  0.1286
  105loPI   GL2 1670  18.209   4.692   9.718  0.1511  0.1263 -0.0177
  105loPI   C1A 1671  17.746   4.664   9.507 -0.0253  0.2005  0.0206
  105loPI   C2A 1672  17.733   4.776   9.100 -0.3970 -0.0250  0.2327
  105loPI   C3A 1673  17.711   4.709   8.704 -0.0215 -0.1322  0.2665
  105loPI   C4A 1674  17.673   4.546   8.210  0.0672  0.1823 -0.1527
  105loPI   C5A 1675  17.807   4.741   7.807  0.1276 -0.2305  0.0687
  105loPI   C6A 1676  17.679   5.106   7.864 -0.1527  0.2712  0.1154
  105loPI   C1B 1677  18.188   4.712   9.246  0.0781 -0.1916  0.5678
  105loPI   C2B 1678  18.164   4.850   8.835 -0.0964 -0.2734  0.1314
  105loPI   C3B 1679  18.143   4.633   8.403  0.2405 -0.0856 -0.0828
  105loPI   C4B 1680  18.407   4.565   8.074 -0.1300 -0.0124 -0.3599
  106loPI    C1 1681  12.625   2.403  10.994 -0.1140  0.1875 -0.1927
  106loPI    C2 1682  12.532   2.066  11.189  0.3133  0.2134  0.0697
  106loPI    C3 1683  12.386   2.416  11.315  0.1024  0.1620 -0.0279
  106loPI   PO4 1684  12.492   2.343  10.749  0.0888  0.2501  0.0887
  106loPI   GL1 1685  12.386   2.482  10.444 -0.2078  0.1228 -0.0008
  106loPI   GL2 1686  12.135   2.697  10.360  0.1281  0.0851 -0.1337
  106loPI   C1A 1687  12.388   2.395   9.985 -0.0797  0.0215  0.1033
  106loPI   C2A 1688  12.590   2.186   9.747  0.2220 -0.1798  0.1708
  106loPI   C3A 1689  12.729   1.992   9.438  0.1248  0.0153  0.2406
  106loPI   C4A 1690  12.854   2.143   8.936 -0.0443 -0.2576 -0.1785
  106loPI   C5A 1691  13.101   2.262   8.529 -0.2689  0.2181 -0.1514
  106loPI   C6A 1692  13.498   2.364   8.396  0.0538  0.0783 -0.2415
  106loPI   C1B 1693  12.086   2.814   9.858  0.1497  0.1901  0.0628
  106loPI   C2B 1694  12.195   2.499   9.499  0.1236  0.3794  0.1652
  106loPI   C3B 1695  12.530   2.466   9.234 -0.3019  0.1528  0.3078
  106loPI   C4B 1696  12.626   2.730   8.953 -0.2196 -0.1330 -0.1430
  107loPI    C1 1697  13.438   9.766  11.042 -0.0765  0.3015 -0.2283
  107loPI    C2 1698  13.751   9.995  11.140  0.0153  0.1644 -0.1991
  107loPI    C3 1699  13.494   9.877  11.423  0.2878 -0.2424 -0.1116
  107loPI   PO4 1700  13.505   9.737  10.788  0.1802  0.0334 -0.1110
  107loPI   GL1 1701  13.487   9.501  10.483 -0.3875 -0.1172  0.2057
  107loPI   GL2 1702  13.632   9.150  10.525 -0.1706 -0.1255  0.1819
  107loPI   C1A 1703  13.491   9.602  10.008 -0.0115 -0.1763  0.0418
  107loPI   C2A 1704  13.541   9.521   9.567 -0.1510 -0.4246 -0.2073
  107loPI   C3A 1705  13.601   9.385   9.120  0.1666  0.0509 -0.0445
  107loPI   C4A 1706  13.759   9.486   8.749 -0.1958  0.2710 -0.3130
  107loPI   C5A 1707  14.216   9.579   8.652  0.4543 -0.0286  0.1781
  107loPI   C6A 1708  14.639   9.321   8.601 -0.0111 -0.1469  0.0365
  107loPI   C1B 1709  13.626   8.840  10.080 -0.1058 -0.0489 -0.0998
  107loPI   C2B 1710  13.703   8.848   9.630  0.0108 -0.1451 -0.0871
  107loPI   C3B 1711  13.777   8.881   9.180 -0.1654 -0.3797  0.0011
  107loPI   C4B 1712  13.714   8.954   8.722 -0.2877  0.0016  0.0553
  108loPI    C1 1713   3.640   3.862  10.583  0.4394 -0.3557 -0.0594
  108loPI    C2 1714   3.689   3.705  10.948  0.0521 -0.0453  0.1346
  108loPI    C3 1715   3.724   4.099  10.894 -0.0069 -0.0759 -0.1445
  108loPI   PO4 1716   3.372   3.680  10.508 -0.0739  0.2407 -0.0533
  108loPI   GL1 1717   3.285   3.766  10.097 -0.0753  0.0585 -0.0400
  108loPI   GL2 1718   3.381   4.003  10.080  0.0812 -0.2511 -0.0627
  108loPI   C1A 1719   3.012   3.756   9.743  0.0700  0.0006 -0.2608
  108loPI   C2A 1720   2.944   3.845   9.332 -0.0429  0.3522  0.0370
  108loPI   C3A 1721   2.595   3.935   9.140 -0.1484  0.2811  0.0036
  108loPI   C4A 1722   2.430   3.855   8.780 -0.2547  0.0065 -0.0091
  108loPI   C5A 1723   2.095   3.797   8.495 -0.2813  0.4133  0.0119
  108loPI   C6A 1724   2.048   3.549   8.136 -0.1080  0.1242  0.1862
  108loPI   C1B 1725   3.447   4.082   9.650 -0.0547  0.3382 -0.3639
  108loPI   C2B 1726   3.373   4.051   9.169  0.0161 -0.0238 -0.3198
  108loPI   C3B 1727   3.423   4.069   8.695 -0.0342 -0.0821 -0.0817
  108loPI   C4B 1728   3.463   3.885   8.311  0.2153 -0.0793 -0.2999
  109loPI    C1 1729   6.193   0.532  10.864  0.1028 -0.0482  0.0067
  109loPI    C2 1730   6.518   0.337  10.737  0.0132 -0.1787 -0.0240
  109loPI    C3 1731   6.519   0.513  11.096  0.1963  0.0167 -0.1181
  109loPI   PO4 1732   5.996   0.443  10.705  0.4160 -0.1327 -0.0334
  109loPI   GL1 1733   5.794   0.410  10.219  0.1454 -0.0912 -0.0274
  109loPI   GL2 1734   5.473   0.238  10.189 -0.0714  0.1271  0.2104
  109loPI   C1A 1735   5.857   0.347   9.770 -0.0917  0.2724 -0.1400
  109loPI   C2A 1736   5.920   0.167   9.407 -0.0452 -0.0063  0.0511
  109loPI   C3A 1737   5.769   0.324   9.058  0.0863  0.0362 -0.2192
  109loPI   C4A 1738   5.656   0.333   8.725 -0.1987  0.1379 -0.1146
  109loPI   C5A 1739   5.355   0.391   8.432  0.3799  0.3360  0.0136
  109loPI   C6A 1740   5.078   0.629   8.120  0.1337  0.1104 -0.2751
  109loPI   C1B 1741   5.286   0.526   9.878 -0.0189  0.1870 -0.2001
  109loPI   C2B 1742   5.160   0.550   9.476 -0.0658 -0.0957  0.0676
  109loPI   C3B 1743   4.958   0.686   9.196  0.1360 -0.0111  0.1111
  109loPI   C4B 1744   5.032   0.650   8.742 -0.2985  0.0513  0.1237
  110loPI    C1 1745   7.740  15.800  10.839  0.2200 -0.0559 -0.2845
  110loPI    C2 1746   8.008  15.886  11.124 -0.1763 -0.1567  0.1302
  110loPI    C3 1747   7.853  16.179  10.899  0.1626 -0.0803 -0.0097
  110loPI   PO4 1748   7.787  15.689  10.576  0.1532 -0.1448  0.0700
  110loPI   GL1 1749   7.944  15.542  10.206 -0.0383 -0.0517 -0.0489
  110loPI   GL2 1750   7.736  15.531   9.915  0.0830  0.0834 -0.2308
  110loPI   C1A 1751   8.303  15.450   9.928 -0.0491  0.5943  0.1041
  110loPI   C2A 1752   8.526  15.325   9.524  0.2563 -0.1426 -0.0035
  110loPI   C3A 1753   8.614  15.309   9.125 -0.0426 -0.0137  0.1151
  110loPI   C4A 1754   8.515  15.317   8.758  0.0223  0.0329  0.1604
  110loPI   C5A 1755   8.625  15.045   8.340  0.1798  0.2720  0.1638
  110loPI   C6A 1756   8.532  14.643   8.070  0.1601  0.1027 -0.2127
  110loPI   C1B 1757   7.989  15.346   9.485 -0.0447  0.0037  0.0218
  110loPI   C2B 1758   8.004  15.273   9.018 -0.1814 -0.1437  0.3044
  110loPI   C3B 1759   8.108  15.486   8.640 -0.0469  0.2292 -0.0863
  110loPI   C4B 1760   8.184  15.413   8.335  0.1991  0.2992  0.0116
  111loPI    C1 1761  14.838   1.918  11.006  0.3662 -0.1038  0.0816
  111loPI    C2 1762  14.540   1.673  11.113  0.0824  0.1843 -0.0325
  111loPI    C3 1763  14.836   1.752  11.370  0.0970 -0.1550  0.0591
  111loPI   PO4 1764  14.844   1.851  10.769  0.1247 -0.1299 -0.2185
  111loPI   GL1 1765  14.964   1.616  10.413  0.0019  0.0913 -0.3683
  111loPI   GL2 1766  14.796   1.818  10.297 -0.0654 -0.2190  0.0401
  111loPI   C1A 1767  14.893   1.284  10.071  0.0640 -0.6688 -0.2754
  111loPI   C2A 1768  14.860   1.309   9.638 -0.2314  0.1827  0.0190
  111loPI   C3A 1769  14.593   1.267   9.267  0.1731  0.2288 -0.1062
  111loPI   C4A 1770  14.583   1.072   8.847 -0.2976 -0.0544 -0.1436
  111loPI   C5A 1771  14.800   0.776   8.572 -0.1065 -0.0654  0.2150
  111loPI   C6A 1772  14.983   0.355   8.489  0.0128 -0.0454 -0.5037
  111loPI   C1B 1773  14.715   1.860   9.866 -0.3445 -0.0360  0.1879
  111loPI   C2B 1774  14.711   1.762   9.451 -0.1556 -0.1128 -0.3246
  111loPI   C3B 1775  14.733   1.686   8.907  0.0513  0.2500 -0.1330
  111loPI   C4B 1776  14.843   1.523   8.515 -0.2482 -0.4163 -0.2075
  112loPI    C1 1777   1.904   5.400  10.370 -0.0439  0.0605  0.2213
  112loPI    C2 1778   2.100   5.221  10.669  0.3351 -0.0047 -0.0588
  112loPI    C3 1779   2.227   5.574  10.530  0.0182  0.1410  0.0118
  112loPI   PO4 1780   1.707   5.342  10.410 -0.1433  0.0915  0.3121
  112loPI   GL1 1781   1.468   5.081  10.113 -0.1308  0.0557 -0.3451
  112loPI   GL2 1782   1.777   4.973  10.044  0.0621  0.0522  0.1667
  112loPI   C1A 1783   1.254   5.282   9.796 -0.0236 -0.1337 -0.0560
  112loPI   C2A 1784   1.152   5.268   9.386 -0.0936 -0.0823  0.1740
  112loPI   C3A 1785   1.233   5.263   9.002  0.2005 -0.1188  0.1652
  112loPI   C4A 1786   1.329   5.220   8.576  0.1139  0.3381 -0.1501
  112loPI   C5A 1787   1.709   4.999   8.396 -0.1221  0.1103 -0.0418
  112loPI   C6A 1788   1.594   4.568   8.307 -0.1907  0.1073  0.0504
  112loPI   C1B 1789   1.948   5.129   9.709 -0.0409  0.1641 -0.0001
  112loPI   C2B 1790   1.917   5.026   9.360 -0.1369 -0.0978  0.1319
  112loPI   C3B 1791   1.725   5.034   8.996 -0.3935  0.1728 -0.0082
  112loPI   C4B 1792   1.780   5.378   8.746  0.0781  0.2340 -0.2083
  113loPI    C1 1793   7.580  16.634  10.499  0.0619  0.1641 -0.0418
  113loPI    C2 1794   7.488  16.881  10.801  0.0301  0.0866  0.0121
  113loPI    C3 1795   7.201  16.666  10.622  0.0879 -0.0697  0.1053
  113loPI   PO4 1796   7.953  16.692  10.538  0.1571 -0.1926 -0.2931
  113loPI   GL1 1797   8.135  16.742  10.173  0.0611 -0.0159  0.2251
  113loPI   GL2 1798   7.859  16.544  10.059  0.1169  0.5443 -0.1521
  113loPI   C1A 1799   8.173  17.098   9.963 -0.1138  0.4259  0.0679
  113loPI   C2A 1800   8.272  17.179   9.630 -0.2120 -0.3471  0.3693
  113loPI   C3A 1801   8.376  17.249   9.279  0.1270 -0.0661 -0.2184
  113loPI   C4A 1802   8.341  17.352   8.826  0.0694 -0.2843 -0.1622
  113loPI   C5A 1803   8.422  17.381   8.403  0.0400  0.2566  0.0755
  113loPI   C6A 1804   8.689  17.363   8.067  0.0931  0.1594  0.1919
  113loPI   C1B 1805   8.092  16.652   9.632 -0.0372 -0.4045 -0.0237
  113loPI   C2B 1806   8.074  16.856   9.277 -0.1513 -0.0185 -0.1748
  113loPI   C3B 1807   8.033  17.006   8.951  0.3387 -0.0549 -0.0701
  113loPI   C4B 1808   7.977  17.176   8.462 -0.3153  0.0265 -0.0427
  114loPI    C1 1809  17.455  12.488  10.659 -0.2249 -0.0271 -0.1178
  114loPI    C2 1810  17.491  12.129  10.833 -0.0440  0.0735  0.0558
  114loPI    C3 1811  17.320  12.432  11.031 -0.1174  0.1070 -0.0577
  114loPI   PO4 1812  17.356  12.390  10.385  0.0192 -0.0054 -0.1672
  114loPI   GL1 1813  17.429  12.138  10.049  0.0426  0.0766  0.2066
  114loPI   GL2 1814  17.773  12.130  10.043 -0.2280 -0.1284 -0.3032
  114loPI   C1A 1815  17.397  12.284   9.649 -0.0483  0.0989  0.4068
  114loPI   C2A 1816  17.483  12.124   9.279 -0.1050  0.4104 -0.1398
  114loPI   C3A 1817  17.744  11.988   9.041  0.1955  0.2604  0.1335
  114loPI   C4A 1818  18.031  11.981   8.670 -0.0534  0.0297  0.0783
  114loPI   C5A 1819  18.412  11.976   8.358  0.0298  0.0342  0.0680
  114loPI   C6A 1820  18.713  11.623   8.114  0.1219  0.0447  0.1697
  114loPI   C1B 1821  17.889  12.352   9.732 -0.2144 -0.0867  0.0449
  114loPI   C2B 1822  17.959  12.455   9.331  0.2897 -0.3228 -0.0843
  114loPI   C3B 1823  17.870  12.406   8.862 -0.0241 -0.0619 -0.1649
  114loPI   C4B 1824  18.020  12.559   8.521  0.0749  0.2182  0.0313
  115loPI    C1 1825   2.022  16.171  10.638  0.2527  0.0807  0.2530
  115loPI    C2 1826   1.798  16.442  10.827 -0.3641 -0.1963 -0.0530
  115loPI    C3 1827   1.912  16.109  11.017  0.0504  0.0778  0.1949
  115loPI   PO4 1828   1.975  16.208  10.366 -0.0847  0.0778 -0.2407
  115loPI   GL1 1829   2.218  16.437  10.044 -0.2476  0.0500  0.0268
  115loPI   GL2 1830   2.068  16.758   9.953  0.0084  0.1408  0.2845
  115loPI   C1A 1831   2.280  16.185   9.604  0.1072 -0.0753 -0.4081
  115loPI   C2A 1832   2.212  16.296   9.214 -0.1287  0.1394  0.1079
  115loPI   C3A 1833   2.250  16.308   8.802 -0.0692  0.2959  0.2826
  115loPI   C4A 1834   2.140  16.478   8.378  0.0550 -0.3481 -0.0887
  115loPI   C5A 1835   2.379  16.330   8.143 -0.0380  0.0182 -0.0875
  115loPI   C6A 1836   2.767  16.219   7.906  0.2059 -0.0258 -0.1963
  115loPI   C1B 1837   2.141  16.733   9.468  0.1415 -0.0588  0.1507
  115loPI   C2B 1838   2.252  16.839   8.972  0.1739  0.0209  0.0096
  115loPI   C3B 1839   2.308  16.926   8.590 -0.1987 -0.0559 -0.1910
  115loPI   C4B 1840   2.655  17.100   8.317  0.0615  0.0969 -0.5584
  116loPI    C1 1841  15.781   1.871  11.241 -0.0684 -0.0140  0.0293
  116loPI    C2 1842  15.545   2.185  11.313 -0.0040  0.0324  0.0387
  116loPI    C3 1843  15.636   1.932  11.609 -0.2406 -0.1236 -0.0187
  116loPI   PO4 1844  15.707   1.811  11.018  0.1037  0.1720  0.3253
  116loPI   GL1 1845  15.761   1.859  10.496 -0.1293 -0.5475  0.2140
  116loPI   GL2 1846  15.718   2.234  10.434  0.1588  0.0612 -0.0297
  116loPI   C1A 1847  15.634   1.486  10.170  0.1708  0.0784 -0.0522
  116loPI   C2A 1848  15.622   1.441   9.657  0.1137  0.2132  0.1522
  116loPI   C3A 1849  15.625   1.543   9.236  0.2653  0.1132 -0.3081
  116loPI   C4A 1850  15.622   1.499   8.777 -0.0192  0.1729 -0.0962
  116loPI   C5A 1851  15.553   1.367   8.250 -0.1201  0.3028 -0.1154
  116loPI   C6A 1852  15.650   1.178   7.867  0.2210 -0.0822  0.3447
  116loPI   C1B 1853  15.746   1.967  10.032 -0.0927  0.1214 -0.0283
  116loPI   C2B 1854  15.740   1.899   9.570  0.3244  0.2971  0.1022
  116loPI   C3B 1855  15.844   1.981   9.193 -0.1771 -0.1053 -0.3830
  116loPI   C4B 1856  15.814   1.950   8.699  0.3951  0.3748 -0.0335
  117loPI    C1 1857   8.536   2.008  10.236 -0.0054  0.3005 -0.0302
  117loPI    C2 1858   8.820   1.891  10.493  0.0642  0.3726 -0.0740
  117loPI    C3 1859   8.541   2.154  10.608 -0.2861 -0.0743  0.1271
  117loPI   PO4 1860   8.519   1.738  10.134 -0.0359 -0.1577 -0.0969
  117loPI   GL1 1861   8.490   1.373   9.857 -0.0929 -0.0786  0.0782
  117loPI   GL2 1862   8.169   1.357   9.904 -0.2088  0.0726 -0.2056
  117loPI   C1A 1863   8.473   1.546   9.490  0.0362 -0.0254  0.2664
  117loPI   C2A 1864   8.590   1.691   9.093 -0.2130 -0.0201 -0.1420
  117loPI   C3A 1865   8.962   1.742   8.785 -0.0173  0.0675 -0.1008
  117loPI   C4A 1866   9.058   2.112   8.602  0.1913 -0.1371  0.0109
  117loPI   C5A 1867   9.394   2.236   8.510 -0.0467 -0.0172  0.1196
  117loPI   C6A 1868   9.742   2.286   8.281 -0.0437 -0.1088 -0.1474
  117loPI   C1B 1869   7.972   1.365   9.564 -0.1150 -0.0803  0.1493
  117loPI   C2B 1870   7.766   1.351   9.200  0.1938  0.0946  0.1616
  117loPI   C3B 1871   7.605   1.357   8.795  0.1881  0.2974 -0.2213
  117loPI   C4B 1872   7.690   1.439   8.357 -0.1565 -0.2067 -0.2223
  118loPI    C1 1873  11.327  14.504  10.926 -0.1086 -0.3702  0.1172
  118loPI    C2 1874  11.482  14.715  11.228  0.0354  0.1872 -0.3290
  118loPI    C3 1875  11.645  14.365  11.125 -0.0622 -0.0486  0.2747
  118loPI   PO4 1876  11.249  14.654  10.732 -0.3866 -0.4439 -0.2569
  118loPI   GL1 1877  11.234  14.629  10.334  0.1707 -0.1891 -0.0778
  118loPI   GL2 1878  10.885  14.662  10.187  0.0086  0.0731 -0.0611
  118loPI   C1A 1879  11.552  14.815  10.063  0.1697 -0.1703  0.1337
  118loPI   C2A 1880  12.042  14.807   9.886 -0.2696  0.1617  0.1301
  118loPI   C3A 1881  12.225  15.250   9.786  0.1051 -0.2510 -0.1446
  118loPI   C4A 1882  12.169  15.399   9.429  0.2109 -0.2002  0.1906
  118loPI   C5A 1883  12.191  15.794   9.144  0.1022  0.0692  0.0362
  118loPI   C6A 1884  12.024  15.915   8.747  0.0328 -0.0067 -0.1678
  118loPI   C1B 1885  10.669  14.940   9.846 -0.3213  0.1231  0.0081
  118loPI   C2B 1886  10.757  15.234   9.607 -0.0107  0.2401 -0.0713
  118loPI   C3B 1887  10.525  15.198   9.202  0.0014  0.0942  0.0150
  118loPI   C4B 1888  10.273  15.308   8.865  0.0501  0.2520  0.0986
  119loPI    C1 1889   3.486   0.958  10.578 -0.0058 -0.0347  0.0131
  119loPI    C2 1890   3.734   1.269  10.622 -0.1814  0.0919  0.1208
  119loPI    C3 1891   3.480   1.173  10.915  0.0256 -0.2927  0.1808
  119loPI   PO4 1892   3.354   0.999  10.391  0.1855  0.0913  0.0352
  119loPI   GL1 1893   3.316   0.828  10.059  0.2909 -0.1774 -0.0711
  119loPI   GL2 1894   3.395   1.048   9.804  0.1754 -0.0844 -0.2345
  119loPI   C1A 1895   3.152   0.411   9.954 -0.2154 -0.1144 -0.0796
  119loPI   C2A 1896   3.167   0.140   9.603  0.3902 -0.2743 -0.2216
  119loPI   C3A 1897   3.180   0.060   9.228 -0.1175  0.0407  0.2055
  119loPI   C4A 1898   3.324   0.221   8.837 -0.0172 -0.1514 -0.1334
  119loPI   C5A 1899   3.427   0.488   8.490 -0.0607 -0.3406 -0.0520
  119loPI   C6A 1900   3.271   0.712   7.979 -0.1267 -0.0980 -0.1493
  119loPI   C1B 1901   3.656   0.962   9.535  0.1173 -0.0849  0.0583
  119loPI   C2B 1902   3.922   0.915   9.098  0.0461 -0.0876 -0.0275
  119loPI   C3B 1903   4.065   0.783   8.687  0.1344  0.0788  0.0021
  119loPI   C4B 1904   3.803   0.658   8.161  0.0302  0.2756 -0.2636
  120loPI    C1 1905  15.347   2.482  10.955 -0.2439 -0.1101 -0.2285
  120loPI    C2 1906  15.093   2.257  11.168  0.0945 -0.1867  0.1061
  120loPI    C3 1907  15.221   2.607  11.314  0.1991 -0.1592 -0.0491
  120loPI   PO4 1908  15.280   2.565  10.818 -0.0422 -0.0602  0.0989
  120loPI   GL1 1909  15.318   2.572  10.340  0.0527 -0.2179 -0.0213
  120loPI   GL2 1910  15.102   2.769  10.122  0.2061 -0.4241  0.0470
  120loPI   C1A 1911  15.520   2.387   9.983 -0.1655 -0.1216 -0.2156
  120loPI   C2A 1912  15.412   2.276   9.539 -0.5533  0.0431  0.2281
  120loPI   C3A 1913  15.453   2.215   9.063  0.2164 -0.1169 -0.0486
  120loPI   C4A 1914  15.376   2.282   8.682 -0.0246 -0.0002  0.0826
  120loPI   C5A 1915  15.490   2.271   8.193 -0.0369  0.1452  0.0188
  120loPI   C6A 1916  15.593   2.212   7.790 -0.3006 -0.1323  0.0333
  120loPI   C1B 1917  15.129   2.734   9.740 -0.1135  0.1303  0.4910
  120loPI   C2B 1918  15.074   2.603   9.307 -0.1147 -0.3000 -0.1458
  120loPI   C3B 1919  15.080   2.623   8.931  0.2558  0.0529  0.1734
  120loPI   C4B 1920  15.028   2.607   8.585 -0.2440 -0.2100 -0.0820
  121loPI    C1 1921  12.782   1.431  11.113  0.1035  0.2664 -0.1941
  121loPI    C2 1922  13.172   1.374  11.179  0.0815  0.2172 -0.1051
  121loPI    C3 1923  12.923   1.061  11.172  0.0165  0.2657  0.0169
  121loPI   PO4 1924  12.765   1.682  10.950  0.0876  0.0169 -0.4463
  121loPI   GL1 1925  12.780   1.868  10.522 -0.2743  0.0380  0.0296
  121loPI   GL2 1926  12.650   2.053  10.317 -0.0507  0.0312  0.1398
  121loPI   C1A 1927  12.552   1.564  10.178 -0.0113  0.2435 -0.0305
  121loPI   C2A 1928  12.502   1.604   9.763  0.1718  0.1708  0.0776
  121loPI   C3A 1929  12.509   1.525   9.302  0.1613 -0.2474 -0.1654
  121loPI   C4A 1930  12.424   1.578   8.834  0.0850 -0.0439 -0.1646
  121loPI   C5A 1931  12.523   1.503   8.381 -0.0764 -0.1916 -0.1612
  121loPI   C6A 1932  12.807   1.643   8.089 -0.4891  0.0415 -0.0152
  121loPI   C1B 1933  13.024   2.003   9.983  0.0521  0.0264  0.0031
  121loPI   C2B 1934  13.274   1.951   9.641  0.3428 -0.1207 -0.2682
  121loPI   C3B 1935  13.216   2.146   9.321 -0.2192  0.2331  0.1502
  121loPI   C4B 1936  13.502   2.223   8.943  0.0318 -0.1675 -0.4458
  122loPI    C1 1937  11.695   5.464  10.678  0.1206  0.1956  0.0929
  122loPI    C2 1938  11.772   5.506  11.068  0.2421  0.2051  0.0683
  122loPI    C3 1939  11.605   5.168  10.932 -0.0054  0.2888  0.1580
  122loPI   PO4 1940  11.893   5.580  10.539 -0.0494 -0.1023  0.0422
  122loPI   GL1 1941  11.749   5.852  10.171 -0.1723  0.2215  0.2163
  122loPI   GL2 1942  12.026   6.034  10.194  0.0024 -0.1066 -0.1082
  122loPI   C1A 1943  11.384   5.739   9.925  0.2695 -0.1716 -0.2154
  122loPI   C2A 1944  11.377   5.471   9.603  0.0298 -0.2795 -0.3530
  122loPI   C3A 1945  11.254   5.421   9.195 -0.2791  0.0082 -0.0381
  122loPI   C4A 1946  11.224   5.529   8.756  0.1405  0.1893 -0.0203
  122loPI   C5A 1947  11.048   5.405   8.388 -0.0186 -0.4388 -0.2051
  122loPI   C6A 1948  10.845   5.188   8.137  0.1354  0.1377  0.0387
  122loPI   C1B 1949  11.824   6.098   9.760 -0.0272  0.0910  0.0049
  122loPI   C2B 1950  11.823   6.135   9.225 -0.0055 -0.1533 -0.0290
  122loPI   C3B 1951  11.793   6.266   8.866  0.0380 -0.0446  0.0168
  122loPI   C4B 1952  11.810   6.175   8.419  0.0883  0.0450 -0.1236
  123loPI    C1 1953  15.966   0.568  11.062  0.1422 -0.0416  0.0315
  123loPI    C2 1954  15.835   0.297  11.326  0.1583  0.1247  0.2128
  123loPI    C3 1955  16.162   0.512  11.406  0.1966  0.1366  0.0302
  123loPI   PO4 1956  15.957   0.423  10.804 -0.0724 -0.0151  0.0997
  123loPI   GL1 1957  15.761   0.129  10.538 -0.0786 -0.3029 -0.1654
  123loPI   GL2 1958  16.014   0.095  10.271  0.0708 -0.2326  0.2417
  123loPI   C1A 1959  15.374   0.282  10.377  0.3057  0.0192  0.1693
  123loPI   C2A 1960  15.086   0.242   9.929  0.1727 -0.4380 -0.0236
  123loPI   C3A 1961  15.038   0.376   9.510  0.0742 -0.1074  0.0574
  123loPI   C4A 1962  15.078   0.233   9.067  0.2292  0.0569 -0.1153
  123loPI   C5A 1963  15.224  -0.003   8.755  0.1612 -0.0514  0.1400
  123loPI   C6A 1964  15.519  -0.268   8.438  0.1043 -0.1017  0.1017
  123loPI   C1B 1965  16.040   0.228   9.746 -0.2105  0.0426  0.1444
  123loPI   C2B 1966  16.089   0.216   9.274  0.3621 -0.0515  0.0323
  123loPI   C3B 1967  16.080   0.233   8.957 -0.1217  0.1401 -0.2677
  123loPI   C4B 1968  16.038   0.275   8.628  0.1151 -0.0244  0.2173
  124loPI    C1 1969  14.774  16.204  11.107 -0.0519 -0.3119  0.1424
  124loPI    C2 1970  14.478  16.396  10.920  0.3328  0.1635  0.0003
  124loPI    C3 1971  14.451  16.320  11.311 -0.0732 -0.0123 -0.0563
  124loPI   PO4 1972  14.798  15.989  10.895 -0.0933  0.0279 -0.2722
  124loPI   GL1 1973  14.842  16.017  10.513  0.2180 -0.0377 -0.1996
  124loPI   GL2 1974  14.834  16.372  10.584  0.2130  0.0465  0.2418
  124loPI   C1A 1975  14.897  16.178  10.108  0.1386  0.1137 -0.0292
  124loPI   C2A 1976  14.980  16.197   9.696  0.0457  0.1524 -0.1620
  124loPI   C3A 1977  14.795  16.347   9.313 -0.1110  0.1342  0.0848
  124loPI   C4A 1978  14.470  16.663   9.274 -0.1043 -0.0696 -0.0447
  124loPI   C5A 1979  14.459  17.054   9.208 -0.2457  0.0111 -0.3991
  124loPI   C6A 1980  14.518  17.352   8.882 -0.2117  0.1386  0.1405
  124loPI   C1B 1981  14.576  16.516  10.279  0.2317  0.1349 -0.1027
  124loPI   C2B 1982  14.646  16.516   9.838  0.0676 -0.0716  0.0115
  124loPI   C3B 1983  14.853  16.868   9.470 -0.2692  0.2163 -0.0561
  124loPI   C4B 1984  14.905  16.916   9.024 -0.2216 -0.0933  0.1002
  125loPI    C1 1985  13.844   2.407  11.016  0.0960  0.0241  0.0676
  125loPI    C2 1986  13.788   2.803  10.998 -0.1716 -0.0152 -0.0222
  125loPI    C3 1987  13.533   2.574  11.205 -0.1194 -0.1604 -0.1172
  125loPI   PO4 1988  14.030   2.406  10.799  0.1634 -0.0667 -0.0007
  125loPI   GL1 1989  14.194   2.439  10.378  0.0244  0.3536  0.0129
  125loPI   GL2 1990  14.456   2.218  10.172 -0.0213  0.3002 -0.1250
  125loPI   C1A 1991  14.032   2.450   9.954  0.0279 -0.2642  0.0280
  125loPI   C2A 1992  13.978   2.414   9.474  0.1008  0.0558  0.1922
  125loPI   C3A 1993  14.103   2.441   9.067  0.2472  0.0952 -0.0542
  125loPI   C4A 1994  14.089   2.326   8.648  0.3715  0.1197  0.0608
  125loPI   C5A 1995  14.005   2.010   8.270  0.0044  0.3015 -0.3878
  125loPI   C6A 1996  14.240   1.712   8.056 -0.2820  0.0080 -0.0022
  125loPI   C1B 1997  14.390   2.135   9.723  0.0608 -0.1761  0.4914
  125loPI   C2B 1998  14.335   2.057   9.304  0.0280 -0.1101  0.1177
  125loPI   C3B 1999  14.392   2.052   8.897  0.1489 -0.0092  0.1594
  125loPI   C4B 2000  14.479   1.791   8.471  0.0417 -0.1486  0.2067
  126loPI    C1 2001   8.857   3.484  10.431 -0.0072 -0.0252  0.0159
  126loPI    C2 2002   8.686   3.823  10.557  0.1692  0.1258 -0.1457
  126loPI    C3 2003   9.082   3.807  10.502  0.1919 -0.1765  0.0827
  126loPI   PO4 2004   8.863   3.337  10.193 -0.2042  0.2475  0.0048
  126loPI   GL1 2005   8.743   3.495   9.715 -0.2769 -0.0611 -0.1184
  126loPI   GL2 2006   8.672   3.844   9.589  0.0855  0.1101  0.0892
  126loPI   C1A 2007   8.950   3.443   9.380  0.0869 -0.2819  0.0218
  126loPI   C2A 2008   9.073   3.530   8.985 -0.2874 -0.0748  0.1828
  126loPI   C3A 2009   9.243   3.533   8.620  0.2738 -0.2099  0.0943
  126loPI   C4A 2010   9.281   3.595   8.197 -0.0048 -0.2477  0.1619
  126loPI   C5A 2011   9.450   3.442   7.776  0.2484 -0.1107 -0.3085
  126loPI   C6A 2012   9.880   3.562   7.860 -0.0159 -0.5429  0.0349
  126loPI   C1B 2013   8.761   4.031   9.142  0.3410 -0.1181  0.3021
  126loPI   C2B 2014   8.574   4.234   8.685 -0.0580 -0.0570  0.2548
  126loPI   C3B 2015   8.498   4.386   8.215  0.1393 -0.0393  0.1258
  126loPI   C4B 2016   8.552   4.296   7.669 -0.1955 -0.1098 -0.0049
  127loPI    C1 2017   2.317  13.922  10.766 -0.1940  0.0143  0.0620
  127loPI    C2 2018   2.262  14.263  10.967 -0.0450 -0.0519  0.2170
  127loPI    C3 2019   2.295  13.917  11.165 -0.1729 -0.1541  0.0618
  127loPI   PO4 2020   2.332  14.002  10.565  0.0026  0.1515  0.1948
  127loPI   GL1 2021   2.058  14.101  10.263 -0.2631  0.0185  0.1542
  127loPI   GL2 2022   2.233  13.989  10.078  0.1316 -0.2245 -0.2384
  127loPI   C1A 2023   1.838  14.142   9.804 -0.0200  0.0682 -0.0699
  127loPI   C2A 2024   1.907  14.084   9.389 -0.1477  0.0327  0.0198
  127loPI   C3A 2025   1.645  14.009   9.119  0.0864 -0.3211 -0.3722
  127loPI   C4A 2026   1.276  13.799   8.964 -0.2698 -0.1367 -0.0312
  127loPI   C5A 2027   0.915  13.989   8.848 -0.1248  0.1263  0.0476
  127loPI   C6A 2028   0.872  14.184   8.518 -0.2085  0.3240  0.0379
  127loPI   C1B 2029   2.280  13.867   9.699  0.2539  0.0371 -0.0654
  127loPI   C2B 2030   2.144  13.626   9.312 -0.1509 -0.2753  0.2027
  127loPI   C3B 2031   2.137  13.270   8.988 -0.1257  0.0206 -0.1213
  127loPI   C4B 2032   2.037  12.874   8.806 -0.1391 -0.0726  0.0516
  128loPI    C1 2033   7.082   5.025  10.113  0.3106  0.1227 -0.2413
  128loPI    C2 2034   7.399   4.876   9.919  0.3514 -0.1869  0.0534
  128loPI    C3 2035   7.355   4.810  10.311  0.0658  0.0944  0.0734
  128loPI   PO4 2036   6.919   4.978   9.898  0.2668  0.2126  0.2851
  128loPI   GL1 2037   6.753   5.236   9.540  0.1892 -0.0355 -0.0244
  128loPI   GL2 2038   6.405   5.315   9.439 -0.2224 -0.1732 -0.1002
  128loPI   C1A 2039   6.923   5.259   9.105 -0.3978  0.1343 -0.3987
  128loPI   C2A 2040   7.084   5.441   8.727  0.0427 -0.0825 -0.1659
  128loPI   C3A 2041   7.191   5.538   8.289 -0.1217  0.0516  0.1470
  128loPI   C4A 2042   7.132   5.637   7.920 -0.1112  0.0679  0.1064
  128loPI   C5A 2043   7.195   5.724   7.529  0.1776 -0.0229  0.1715
  128loPI   C6A 2044   7.256   5.585   7.143 -0.0460  0.0191  0.1371
  128loPI   C1B 2045   6.407   5.228   9.089  0.0231  0.1251 -0.0171
  128loPI   C2B 2046   6.563   5.210   8.811  0.3753 -0.0632  0.1537
  128loPI   C3B 2047   6.605   5.567   8.613 -0.1137  0.0321  0.0013
  128loPI   C4B 2048   6.799   5.903   8.445  0.1317 -0.4168 -0.1158
  129loPI    C1 2049  15.303  11.561  10.799  0.1113  0.1568 -0.0690
  129loPI    C2 2050  14.987  11.782  10.691 -0.1019 -0.2050 -0.2077
  129loPI    C3 2051  15.033  11.672  11.073 -0.1538 -0.1673 -0.1905
  129loPI   PO4 2052  15.456  11.656  10.554  0.0486 -0.0769  0.0737
  129loPI   GL1 2053  15.301  11.688  10.258 -0.0303 -0.0279  0.0190
  129loPI   GL2 2054  15.011  11.938  10.222 -0.0965  0.3218 -0.1329
  129loPI   C1A 2055  15.398  11.702   9.790 -0.2906 -0.0196  0.1719
  129loPI   C2A 2056  15.416  11.666   9.389  0.1746 -0.1479  0.0617
  129loPI   C3A 2057  15.441  11.657   8.901  0.1162  0.4656  0.0801
  129loPI   C4A 2058  15.686  11.902   8.573 -0.1107  0.0471 -0.3570
  129loPI   C5A 2059  15.768  12.289   8.228 -0.4859  0.1510  0.3205
  129loPI   C6A 2060  15.765  12.754   8.070 -0.1495 -0.1907 -0.0743
  129loPI   C1B 2061  14.970  11.504   9.918  0.0133 -0.1900 -0.0405
  129loPI   C2B 2062  14.969  11.493   9.505 -0.0317 -0.2283 -0.1999
  129loPI   C3B 2063  14.897  11.374   9.126 -0.0475 -0.1373  0.0022
  129loPI   C4B 2064  14.934  11.557   8.696 -0.0360 -0.0082  0.2611
  130loPI    C1 2065   1.976  11.516  10.544  0.2266  0.0768  0.1864
  130loPI    C2 2066   1.795  11.575  10.896 -0.2072  0.0269 -0.0205
  130loPI    C3 2067   1.760  11.847  10.605  0.2925  0.1507  0.0242
  130loPI   PO4 2068   1.858  11.275  10.487  0.2063 -0.0001 -0.2434
  130loPI   GL1 2069   1.858  11.178  10.108 -0.0291 -0.0703 -0.1327
  130loPI   GL2 2070   1.641  11.012   9.869  0.1378  0.2779  0.1199
  130loPI   C1A 2071   1.834  11.486   9.730 -0.1080  0.0287 -0.2139
  130loPI   C2A 2072   1.554  11.609   9.335  0.1631  0.0932 -0.3600
  130loPI   C3A 2073   1.552  11.682   8.958 -0.0827 -0.0048 -0.0485
  130loPI   C4A 2074   1.628  11.884   8.539  0.0148  0.0665  0.0159
  130loPI   C5A 2075   1.579  12.460   8.456  0.0353  0.1408  0.0428
  130loPI   C6A 2076   1.634  12.587   8.089 -0.4239  0.1286 -0.0365
  130loPI   C1B 2077   1.652  11.085   9.499  0.0666  0.2142 -0.4621
  130loPI   C2B 2078   1.788  11.119   9.018 -0.2238 -0.1924 -0.3191
  130loPI   C3B 2079   1.884  11.414   8.709  0.1834  0.0234  0.1532
  130loPI   C4B 2080   2.064  11.504   8.399  0.3069  0.0782 -0.1807
  131loPI    C1 2081   3.289   4.692  10.716 -0.1795  0.1595  0.0983
  131loPI    C2 2082   3.343   4.517  11.071  0.0019 -0.1864 -0.0940
  131loPI    C3 2083   3.659   4.609  10.843 -0.1114  0.0684 -0.1521
  131loPI   PO4 2084   3.186   4.523  10.601 -0.0741 -0.1689  0.0519
  131loPI   GL1 2085   3.121   4.482  10.163  0.2004 -0.0402  0.4541
  131loPI   GL2 2086   3.487   4.775  10.116 -0.1859  0.0114 -0.0962
  131loPI   C1A 2087   2.980   4.313   9.768 -0.3581 -0.2857 -0.1416
  131loPI   C2A 2088   2.850   4.324   9.303  0.2511 -0.3109 -0.0065
  131loPI   C3A 2089   2.979   4.089   8.881  0.0535 -0.3127  0.0596
  131loPI   C4A 2090   3.069   3.722   8.658  0.2291 -0.2204  0.1557
  131loPI   C5A 2091   3.047   3.607   8.201 -0.1691  0.0952  0.0335
  131loPI   C6A 2092   3.012   3.326   7.817  0.0108  0.1786  0.2132
  131loPI   C1B 2093   3.426   4.570   9.661  0.0778  0.0325 -0.2128
  131loPI   C2B 2094   3.280   4.574   9.277 -0.0420  0.0888  0.1011
  131loPI   C3B 2095   3.310   4.493   8.890  0.1011  0.1448 -0.0281
  131loPI   C4B 2096   3.118   4.480   8.566  0.0444 -0.3481 -0.1454
  132loPI    C1 2097  12.822   7.530  10.697  0.0138  0.4556 -0.0076
  132loPI    C2 2098  12.639   7.533  11.053 -0.2114 -0.0542 -0.1102
  132loPI    C3 2099  13.020   7.650  11.023 -0.1994  0.0223  0.2915
  132loPI   PO4 2100  12.641   7.640  10.584  0.0350 -0.2698  0.0000
  132loPI   GL1 2101  12.296   7.726  10.326 -0.0321 -0.1842  0.0630
  132loPI   GL2 2102  12.519   7.777  10.136 -0.0996  0.3791  0.1353
  132loPI   C1A 2103  11.963   7.939  10.017 -0.1413 -0.1115 -0.0795
  132loPI   C2A 2104  11.919   8.157   9.579  0.0940 -0.1246  0.0815
  132loPI   C3A 2105  11.817   8.439   9.242  0.1580  0.1223  0.1638
  132loPI   C4A 2106  11.807   8.653   8.846  0.0917  0.0359 -0.1063
  132loPI   C5A 2107  11.651   8.722   8.514  0.0598 -0.0380  0.0570
  132loPI   C6A 2108  11.351   8.457   8.402  0.1119 -0.1923  0.0778
  132loPI   C1B 2109  12.350   7.888   9.719 -0.3188  0.0862 -0.0867
  132loPI   C2B 2110  12.356   7.835   9.344  0.1374 -0.0061  0.0984
  132loPI   C3B 2111  12.339   7.730   8.888 -0.2143 -0.0770  0.0554
  132loPI   C4B 2112  12.311   7.430   8.468  0.1276 -0.2112 -0.0851
  133loPI    C1 2113   7.361   0.730  10.680 -0.0249  0.0248 -0.1261
  133loPI    C2 2114   7.437   1.119  10.624 -0.0061  0.0301 -0.0648
  133loPI    C3 2115   7.491   0.954  10.984  0.0690 -0.0485 -0.1115
  133loPI   PO4 2116   7.088   0.727  10.389  0.3299 -0.2518 -0.1172
  133loPI   GL1 2117   7.015   0.746   9.991 -0.2293  0.1559  0.2104
  133loPI   GL2 2118   7.176   0.469   9.883  0.0053 -0.0525 -0.0549
  133loPI   C1A 2119   6.680   0.683   9.633  0.1719 -0.0016  0.0004
  133loPI   C2A 2120   6.627   0.670   9.200 -0.1365  0.2525  0.0391
  133loPI   C3A 2121   6.506   0.605   8.773 -0.2316 -0.1206 -0.0663
  133loPI   C4A 2122   6.496   0.585   8.308 -0.0902  0.1202 -0.1771
  133loPI   C5A 2123   6.555   0.661   7.845 -0.0785  0.1890 -0.1608
  133loPI   C6A 2124   6.897   0.481   7.630 -0.0727 -0.1562 -0.3222
  133loPI   C1B 2125   7.096   0.492   9.458  0.0602 -0.0001 -0.2219
  133loPI   C2B 2126   7.056   0.487   8.976 -0.1815  0.0194  0.0091
  133loPI   C3B 2127   7.003   0.529   8.498 -0.1215  0.0866 -0.2452
  133loPI   C4B 2128   6.945   0.246   8.102 -0.2507  0.4654 -0.1376
  134loPI    C1 2129  15.735   9.633  10.766  0.0959 -0.0315  0.0235
  134loPI    C2 2130  16.075   9.475  10.627  0.1637 -0.0895  0.2508
  134loPI    C3 2131  15.872   9.288  10.917 -0.0412 -0.0336  0.1449
  134loPI   PO4 2132  15.614   9.682  10.597 -0.2334 -0.0245  0.0529
  134loPI   GL1 2133  15.562   9.994  10.304  0.1439  0.0504  0.0074
  134loPI   GL2 2134  15.925   9.746  10.219 -0.2059  0.0572  0.2876
  134loPI   C1A 2135  15.279   9.948  10.052  0.3489 -0.1303 -0.2618
  134loPI   C2A 2136  15.254   9.819   9.565  0.2869  0.5947  0.0838
  134loPI   C3A 2137  15.319   9.760   9.044  0.2604  0.3944  0.1263
  134loPI   C4A 2138  15.312   9.781   8.616 -0.1000 -0.1622 -0.1815
  134loPI   C5A 2139  15.397   9.732   8.185  0.0734  0.1782  0.0014
  134loPI   C6A 2140  15.469   9.882   7.768  0.0888  0.0608 -0.1390
  134loPI   C1B 2141  15.754   9.857   9.831 -0.2511  0.0913 -0.0491
  134loPI   C2B 2142  15.787   9.853   9.423 -0.0231  0.1488 -0.2412
  134loPI   C3B 2143  15.785   9.810   8.931  0.2019  0.1915 -0.0965
  134loPI   C4B 2144  15.764   9.991   8.577 -0.0889  0.2420 -0.0401
  135loPI    C1 2145   3.890  11.826  10.352  0.0298  0.0855 -0.1786
  135loPI    C2 2146   3.867  11.885  10.747  0.0765  0.0872 -0.1761
  135loPI    C3 2147   3.883  11.513  10.601  0.1382  0.0880 -0.1720
  135loPI   PO4 2148   3.760  12.025  10.276  0.1930 -0.0295 -0.1377
  135loPI   GL1 2149   3.648  12.195   9.949 -0.3303  0.1324 -0.3299
  135loPI   GL2 2150   3.740  12.233   9.631 -0.1950 -0.1517  0.1048
  135loPI   C1A 2151   3.222  12.099   9.744 -0.0685 -0.1995 -0.0366
  135loPI   C2A 2152   3.352  12.080   9.267  0.0728 -0.1729 -0.0823
  135loPI   C3A 2153   3.324  12.037   8.815  0.0744  0.1804 -0.0192
  135loPI   C4A 2154   3.178  11.718   8.439 -0.1484  0.3796 -0.0077
  135loPI   C5A 2155   2.978  11.571   8.085  0.1890 -0.3408  0.1263
  135loPI   C6A 2156   2.558  11.304   8.064  0.0091  0.0565 -0.4277
  135loPI   C1B 2157   3.828  12.184   9.289  0.0168 -0.0490  0.0219
  135loPI   C2B 2158   3.869  12.083   8.828 -0.1102  0.1429 -0.2595
  135loPI   C3B 2159   3.717  12.379   8.458  0.0723  0.0929 -0.2853
  135loPI   C4B 2160   3.446  12.680   8.224 -0.0100  0.1315  0.0705
  136loPI    C1 2161  11.451  14.034  10.737  0.0983 -0.1335 -0.0509
  136loPI    C2 2162  11.693  13.718  10.691  0.3361  0.0199  0.1234
  136loPI    C3 2163  11.592  13.842  11.058 -0.1494 -0.1451  0.0528
  136loPI   PO4 2164  11.507  14.191  10.601  0.2267  0.3571  0.1071
  136loPI   GL1 2165  11.719  13.991  10.228 -0.1814 -0.1639 -0.1536
  136loPI   GL2 2166  11.461  14.167  10.104 -0.0825  0.0971  0.1854
  136loPI   C1A 2167  11.910  13.882   9.849  0.1698 -0.0692  0.2579
  136loPI   C2A 2168  11.867  13.762   9.418 -0.2149 -0.1973 -0.1701
  136loPI   C3A 2169  11.970  13.770   9.039  0.0615  0.3705  0.0240
  136loPI   C4A 2170  12.030  13.691   8.590 -0.2608  0.3051 -0.1716
  136loPI   C5A 2171  12.195  13.593   8.153 -0.0257  0.1451  0.0229
  136loPI   C6A 2172  12.217  13.214   8.037 -0.1719  0.0094  0.1086
  136loPI   C1B 2173  11.702  14.389   9.859 -0.0135 -0.1196 -0.0000
  136loPI   C2B 2174  11.830  14.359   9.437  0.3718  0.2053 -0.0009
  136loPI   C3B 2175  11.855  14.314   8.954 -0.2860  0.0281  0.1607
  136loPI   C4B 2176  11.908  14.378   8.439  0.3004 -0.1012 -0.0706
  137loPI    C1 2177  16.538  13.413  11.051 -0.1698 -0.0331  0.1933
  137loPI    C2 2178  16.751  13.078  11.103 -0.1773 -0.0273  0.2628
  137loPI    C3 2179  16.819  13.396  11.335  0.0045  0.1057  0.0318
  137loPI   PO4 2180  16.517  13.520  10.833 -0.0732  0.1130  0.4834
  137loPI   GL1 2181  16.536  13.600  10.450 -0.0173 -0.0403 -0.0161
  137loPI   GL2 2182  16.806  13.543  10.219  0.0531 -0.0297 -0.2358
  137loPI   C1A 2183  16.356  13.701  10.110  0.2975 -0.0386 -0.1602
  137loPI   C2A 2184  16.131  13.651   9.737  0.0010 -0.2070 -0.2123
  137loPI   C3A 2185  15.987  13.548   9.364 -0.3254  0.1133 -0.0694
  137loPI   C4A 2186  16.011  13.780   9.013  0.2445  0.4339 -0.0263
  137loPI   C5A 2187  15.974  13.988   8.575  0.2002 -0.1295 -0.0787
  137loPI   C6A 2188  15.671  14.260   8.416  0.2998 -0.1910  0.1908
  137loPI   C1B 2189  16.727  13.652   9.843  0.0577 -0.2173  0.2643
  137loPI   C2B 2190  16.561  13.865   9.429 -0.0768  0.2330  0.0648
  137loPI   C3B 2191  16.624  13.864   9.032 -0.0092 -0.0608  0.0365
  137loPI   C4B 2192  16.579  13.970   8.459  0.0132 -0.0833 -0.0963
  138loPI    C1 2193   8.071  17.812  10.617  0.1131  0.0104  0.0892
  138loPI    C2 2194   8.303  18.105  10.475  0.0875 -0.0960 -0.1777
  138loPI    C3 2195   8.397  17.926  10.819 -0.0400  0.3994  0.1260
  138loPI   PO4 2196   8.021  17.689  10.423 -0.0614  0.2769  0.1809
  138loPI   GL1 2197   7.774  17.510  10.108 -0.1991 -0.2596 -0.1401
  138loPI   GL2 2198   7.397  17.601  10.223  0.2379  0.0945 -0.1530
  138loPI   C1A 2199   7.862  17.492   9.735  0.0200 -0.3652 -0.0191
  138loPI   C2A 2200   7.899  17.443   9.301 -0.0314 -0.0413  0.2987
  138loPI   C3A 2201   7.889  17.542   8.894  0.2365  0.1000  0.2720
  138loPI   C4A 2202   7.842  17.677   8.460  0.1666  0.1413 -0.3813
  138loPI   C5A 2203   7.573  17.343   8.239 -0.0366  0.0187 -0.1057
  138loPI   C6A 2204   7.294  16.971   7.941  0.1584  0.1731  0.3249
  138loPI   C1B 2205   7.278  17.689   9.794  0.2373 -0.0237 -0.2372
  138loPI   C2B 2206   7.359  17.675   9.349 -0.0115  0.1878 -0.6819
  138loPI   C3B 2207   7.372  17.623   8.921 -0.0490  0.3864  0.0474
  138loPI   C4B 2208   7.338  17.710   8.493  0.1532  0.0645 -0.0932
  139loPI    C1 2209  12.507   9.475  10.910  0.1386 -0.0327 -0.1433
  139loPI    C2 2210  12.785   9.275  11.116 -0.0143  0.0012  0.0999
  139loPI    C3 2211  12.619   9.604  11.271  0.0339  0.1595 -0.1781
  139loPI   PO4 2212  12.613   9.471  10.676  0.1304  0.3110  0.1215
  139loPI   GL1 2213  12.587   9.285  10.334  0.2022 -0.1154  0.1584
  139loPI   GL2 2214  12.502   9.595  10.191 -0.2872 -0.0923 -0.0398
  139loPI   C1A 2215  12.817   9.162   9.923 -0.2492  0.0204  0.1217
  139loPI   C2A 2216  12.865   9.168   9.479 -0.0570  0.0511  0.0995
  139loPI   C3A 2217  12.905   9.245   8.918 -0.0293  0.0929  0.2399
  139loPI   C4A 2218  13.240   9.316   8.701  0.0480 -0.2329  0.2028
  139loPI   C5A 2219  13.528   9.337   8.263 -0.0052 -0.1708 -0.0705
  139loPI   C6A 2220  13.546   9.401   7.820  0.3054  0.2045  0.1497
  139loPI   C1B 2221  12.573   9.700   9.820 -0.2897 -0.1105  0.2404
  139loPI   C2B 2222  12.616   9.694   9.414  0.1533  0.3715 -0.3019
  139loPI   C3B 2223  12.676   9.721   9.003 -0.1564 -0.1291 -0.1698
  139loPI   C4B 2224  12.928   9.767   8.645 -0.0377  0.0197 -0.1119
  140loPI    C1 2225  13.425   8.398  11.039  0.0086  0.0215  0.0603
  140loPI    C2 2226  13.219   8.070  11.140 -0.0281  0.0751  0.1609
  140loPI    C3 2227  13.564   8.155  11.324  0.0344  0.0378  0.0617
  140loPI   PO4 2228  13.501   8.339  10.782  0.1307 -0.0658  0.1080
  140loPI   GL1 2229  13.795   8.293  10.348  0.2323 -0.0288 -0.4405
  140loPI   GL2 2230  13.435   8.330  10.259 -0.1246 -0.2925 -0.0792
  140loPI   C1A 2231  13.749   8.376   9.865 -0.1082 -0.0612 -0.0265
  140loPI   C2A 2232  14.014   8.368   9.487 -0.1122  0.0619 -0.2092
  140loPI   C3A 2233  14.126   8.510   9.128  0.1056 -0.0291  0.2528
  140loPI   C4A 2234  14.098   8.489   8.755 -0.2961 -0.2788 -0.3087
  140loPI   C5A 2235  13.900   8.631   8.354 -0.0051  0.1375 -0.2960
  140loPI   C6A 2236  13.649   8.877   8.080  0.3050  0.0193  0.2096
  140loPI   C1B 2237  13.294   8.134   9.842  0.0278  0.0664 -0.1562
  140loPI   C2B 2238  13.386   8.033   9.523 -0.1018 -0.1045 -0.0761
  140loPI   C3B 2239  13.247   8.072   9.077  0.0685 -0.2289  0.0325
  140loPI   C4B 2240  13.193   7.932   8.724 -0.0036  0.1065  0.0985
  141loPI    C1 2241   4.088   2.659  10.559  0.1658  0.2992  0.1315
  141loPI    C2 2242   3.765   2.878  10.473  0.1279  0.1558 -0.0995
  141loPI    C3 2243   3.725   2.534  10.673  0.1195  0.0659 -0.2540
  141loPI   PO4 2244   4.216   2.592  10.328  0.1409  0.4474 -0.4321
  141loPI   GL1 2245   3.999   2.667   9.978 -0.1221  0.1579  0.2491
  141loPI   GL2 2246   3.998   2.412   9.770 -0.1923  0.3908  0.0602
  141loPI   C1A 2247   4.236   2.823   9.655 -0.1029 -0.3118 -0.1990
  141loPI   C2A 2248   4.200   2.844   9.196 -0.0648 -0.1508 -0.0734
  141loPI   C3A 2249   3.970   2.699   8.739  0.0121  0.1836 -0.1490
  141loPI   C4A 2250   3.921   2.335   8.517  0.2982 -0.0444 -0.1512
  141loPI   C5A 2251   3.622   2.038   8.342 -0.0534  0.0430 -0.2066
  141loPI   C6A 2252   3.783   1.935   7.908  0.0654 -0.0795  0.0692
  141loPI   C1B 2253   3.879   2.328   9.374  0.0748  0.2564  0.0950
  141loPI   C2B 2254   3.602   2.438   9.065 -0.0128  0.1974  0.1067
  141loPI   C3B 2255   3.508   2.577   8.652 -0.2837 -0.2154 -0.2064
  141loPI   C4B 2256   3.344   2.800   8.237 -0.1195 -0.1133 -0.0387
  142loPI    C1 2257   1.778  14.830  11.025 -0.1851 -0.0604  0.0430
  142loPI    C2 2258   2.054  14.790  11.312  0.0120 -0.0445 -0.1415
  142loPI    C3 2259   1.670  14.844  11.409  0.0643 -0.1263  0.1174
  142loPI   PO4 2260   1.806  14.630  10.870 -0.0158  0.0701 -0.3182
  142loPI   GL1 2261   1.862  14.476  10.495  0.1162  0.0666 -0.1191
  142loPI   GL2 2262   1.857  14.731  10.383  0.2082 -0.0674 -0.0687
  142loPI   C1A 2263   1.551  14.352  10.166 -0.1051  0.1016  0.0115
  142loPI   C2A 2264   1.372  14.404   9.757 -0.3031  0.0005 -0.3766
  142loPI   C3A 2265   1.477  14.382   9.433 -0.1233  0.1294 -0.3400
  142loPI   C4A 2266   1.288  14.319   9.024 -0.2188 -0.1332  0.2358
  142loPI   C5A 2267   1.349  14.177   8.590 -0.2451 -0.1278 -0.0730
  142loPI   C6A 2268   1.172  14.182   8.141 -0.2569  0.2483 -0.1252
  142loPI   C1B 2269   2.013  14.574   9.995  0.0591 -0.0884 -0.2502
  142loPI   C2B 2270   2.331  14.329   9.700 -0.0272  0.1616  0.1699
  142loPI   C3B 2271   2.364  14.219   9.287  0.1924  0.0773 -0.0699
  142loPI   C4B 2272   2.533  13.879   9.119 -0.2994  0.2374  0.0075
  143loPI    C1 2273  15.883  11.101  10.728  0.1703 -0.0407  0.0437
  143loPI    C2 2274  15.625  11.198  11.018 -0.2111 -0.2466 -0.2181
  143loPI    C3 2275  15.949  10.980  11.104 -0.1102  0.0260  0.1168
  143loPI   PO4 2276  15.847  11.306  10.565 -0.1190 -0.0565 -0.2042
  143loPI   GL1 2277  15.886  11.468  10.221  0.1333  0.0776  0.3072
  143loPI   GL2 2278  16.047  11.825  10.031  0.3153  0.0632  0.0114
  143loPI   C1A 2279  15.783  11.278   9.773 -0.0151 -0.1572  0.0471
  143loPI   C2A 2280  15.731  11.360   9.230 -0.0098  0.3139  0.3366
  143loPI   C3A 2281  15.753  11.249   8.760  0.0640  0.0775  0.1555
  143loPI   C4A 2282  15.953  11.163   8.414  0.1278 -0.0381 -0.0900
  143loPI   C5A 2283  15.910  10.946   8.022 -0.0644 -0.0105  0.1107
  143loPI   C6A 2284  16.194  10.618   7.977 -0.2761 -0.0604  0.0627
  143loPI   C1B 2285  15.905  11.825   9.679  0.1023  0.1537 -0.2776
  143loPI   C2B 2286  15.964  11.802   9.281 -0.1900  0.0229 -0.0870
  143loPI   C3B 2287  16.184  11.698   8.914 -0.0295 -0.0059 -0.0187
  143loPI   C4B 2288  16.360  11.605   8.463  0.1697  0.1380  0.1281
  144loPI    C1 2289  13.578  17.286  10.532  0.0680 -0.1982  0.0918
  144loPI    C2 2290  13.739  17.522  10.811 -0.0907 -0.0422  0.0537
  144loPI    C3 2291  13.564  17.684  10.490 -0.0799 -0.2163 -0.0408
  144loPI   PO4 2292  13.832  17.077  10.472 -0.3028  0.0654  0.3049
  144loPI   GL1 2293  13.943  16.949  10.117  0.1628 -0.1089  0.0205
  144loPI   GL2 2294  14.083  16.694  10.223  0.0201  0.0684  0.3025
  144loPI   C1A 2295  13.668  16.633   9.946 -0.0867  0.3100  0.1936
  144loPI   C2A 2296  13.531  16.522   9.513 -0.2796 -0.2046 -0.0837
  144loPI   C3A 2297  13.604  16.655   9.082 -0.2990  0.0495  0.0399
  144loPI   C4A 2298  13.365  16.680   8.703 -0.1387  0.1346 -0.3538
  144loPI   C5A 2299  13.290  16.430   8.401 -0.0227  0.0215  0.3705
  144loPI   C6A 2300  13.177  16.138   8.128 -0.0309 -0.1058  0.1422
  144loPI   C1B 2301  14.148  16.683   9.741 -0.0982 -0.1059  0.0982
  144loPI   C2B 2302  14.003  16.822   9.353 -0.1250  0.2546 -0.3692
  144loPI   C3B 2303  13.931  17.066   8.955 -0.3044 -0.0012 -0.0530
  144loPI   C4B 2304  13.616  17.137   8.655 -0.1008  0.0336 -0.2369
  145loPI    C1 2305   6.077   4.945  10.524 -0.0814 -0.0360 -0.2225
  145loPI    C2 2306   5.900   4.733  10.813  0.1029 -0.1556 -0.1954
  145loPI    C3 2307   5.738   5.078  10.690  0.0695 -0.0584  0.1126
  145loPI   PO4 2308   6.154   4.834  10.330  0.3049 -0.1688 -0.1343
  145loPI   GL1 2309   5.994   4.853   9.858 -0.0949 -0.1847  0.2488
  145loPI   GL2 2310   6.018   4.549   9.707  0.0748 -0.1234 -0.0823
  145loPI   C1A 2311   6.079   4.961   9.363  0.1103  0.0545 -0.2091
  145loPI   C2A 2312   6.009   4.931   8.962  0.0947 -0.3407 -0.3540
  145loPI   C3A 2313   5.946   4.945   8.601 -0.0981  0.0918 -0.0139
  145loPI   C4A 2314   5.776   5.211   8.226  0.1208 -0.0507 -0.0994
  145loPI   C5A 2315   5.431   4.958   7.886  0.0253  0.1617 -0.0971
  145loPI   C6A 2316   5.328   4.625   7.592  0.1378  0.2215  0.2707
  145loPI   C1B 2317   6.143   4.483   9.293  0.0540 -0.2007  0.2665
  145loPI   C2B 2318   6.082   4.496   8.758  0.4256 -0.1312 -0.1053
  145loPI   C3B 2319   5.973   4.475   8.272  0.1064 -0.0104 -0.0119
  145loPI   C4B 2320   5.954   4.801   7.964  0.3915  0.0498 -0.0656
  146loPI    C1 2321   9.634  10.281  11.074  0.0430  0.0501 -0.1063
  146loPI    C2 2322   9.258  10.143  11.073  0.0402  0.0548  0.0694
  146loPI    C3 2323   9.377  10.398  11.357  0.1481  0.1320 -0.0442
  146loPI   PO4 2324   9.698  10.248  10.849  0.3258  0.0248  0.0420
  146loPI   GL1 2325   9.700   9.984  10.414 -0.1027 -0.1652 -0.1282
  146loPI   GL2 2326   9.784  10.388  10.348 -0.2248  0.0768 -0.3222
  146loPI   C1A 2327   9.613   9.704  10.020 -0.1240  0.1683 -0.0606
  146loPI   C2A 2328   9.703   9.837   9.591  0.1735  0.2316  0.0399
  146loPI   C3A 2329   9.674   9.847   9.255  0.2360 -0.3485 -0.0953
  146loPI   C4A 2330   9.589   9.813   8.778 -0.0566 -0.1092 -0.4229
  146loPI   C5A 2331   9.591  10.028   8.343  0.1159 -0.1545  0.0201
  146loPI   C6A 2332   9.735  10.013   7.977  0.0104  0.1028  0.1403
  146loPI   C1B 2333   9.765  10.256   9.901  0.1650  0.0401  0.0358
  146loPI   C2B 2334   9.976  10.195   9.457 -0.2164  0.0456 -0.2777
  146loPI   C3B 2335  10.007  10.168   9.050 -0.0929  0.1272 -0.1685
  146loPI   C4B 2336  10.057   9.996   8.646 -0.1654 -0.0089  0.2205
  147loPI    C1 2337   5.352  11.372  10.569  0.1869 -0.0575  0.0813
  147loPI    C2 2338   5.231  11.721  10.724 -0.1885 -0.1664  0.0436
  147loPI    C3 2339   5.527  11.516  10.898 -0.0034  0.1412  0.0982
  147loPI   PO4 2340   5.303  11.424  10.341 -0.0572  0.2210  0.1253
  147loPI   GL1 2341   5.093  11.333   9.952 -0.0609  0.1478 -0.3512
  147loPI   GL2 2342   5.187  11.668   9.796 -0.1801  0.0551  0.0688
  147loPI   C1A 2343   4.956  11.310   9.534 -0.2594  0.0364  0.2278
  147loPI   C2A 2344   4.932  11.439   9.058  0.0464 -0.1730  0.2146
  147loPI   C3A 2345   4.928  11.389   8.620  0.1437 -0.3296  0.0976
  147loPI   C4A 2346   4.729  11.345   8.225  0.2774 -0.0333 -0.1170
  147loPI   C5A 2347   4.584  11.540   7.932 -0.1242 -0.0358 -0.1249
  147loPI   C6A 2348   4.759  11.696   7.559  0.0114 -0.0778 -0.0027
  147loPI   C1B 2349   5.077  11.844   9.342 -0.0477  0.0374 -0.0075
  147loPI   C2B 2350   5.078  11.963   8.903  0.1406  0.4234 -0.0378
  147loPI   C3B 2351   4.937  12.112   8.517 -0.0418  0.1531  0.0341
  147loPI   C4B 2352   4.694  12.242   8.237  0.1483 -0.0079 -0.2437
  148loPI    C1 2353  15.975  14.121  11.151 -0.1223 -0.1380 -0.3647
  148loPI    C2 2354  16.249  13.832  11.186  0.0534  0.0732  0.0751
  148loPI    C3 2355  15.860  13.738  11.170  0.1088 -0.1891  0.1990
  148loPI   PO4 2356  16.029  14.282  10.943 -0.2581 -0.1631  0.0897
  148loPI   GL1 2357  16.204  14.188  10.444  0.3739  0.2857  0.0589
  148loPI   GL2 2358  16.482  14.122  10.309 -0.1717  0.2186 -0.2642
  148loPI   C1A 2359  16.085  14.162   9.892 -0.0058 -0.1653  0.1484
  148loPI   C2A 2360  16.089  14.084   9.471  0.0724  0.1133  0.1961
  148loPI   C3A 2361  16.238  14.236   9.038 -0.0979  0.0553 -0.5439
  148loPI   C4A 2362  16.391  14.655   8.932 -0.0817 -0.0727  0.2586
  148loPI   C5A 2363  16.168  14.886   8.690 -0.0857  0.0449  0.0801
  148loPI   C6A 2364  15.944  14.649   8.303 -0.0770 -0.0285  0.0644
  148loPI   C1B 2365  16.535  14.127   9.872  0.2023 -0.4213 -0.2103
  148loPI   C2B 2366  16.498  14.403   9.480  0.2898  0.0832 -0.2695
  148loPI   C3B 2367  16.762  14.345   9.067 -0.1725  0.1235 -0.0989
  148loPI   C4B 2368  16.789  14.459   8.668 -0.0267 -0.0374  0.0691
  149loPI    C1 2369   2.737  14.948  10.553  0.0345 -0.1728 -0.0016
  149loPI    C2 2370   2.677  14.713  10.871 -0.1763  0.1136  0.1752
  149loPI    C3 2371   2.945  15.009  10.889  0.1067 -0.1217 -0.0552
  149loPI   PO4 2372   2.771  14.762  10.385 -0.0284 -0.2512 -0.0761
  149loPI   GL1 2373   2.745  14.699   9.923 -0.2056  0.1347  0.0451
  149loPI   GL2 2374   2.926  14.348  10.024  0.0601 -0.1246 -0.1600
  149loPI   C1A 2375   2.652  14.700   9.454 -0.0089 -0.0155 -0.2625
  149loPI   C2A 2376   2.646  14.797   8.958 -0.0029  0.3523 -0.1153
  149loPI   C3A 2377   2.717  14.879   8.575 -0.0941  0.1729 -0.1803
  149loPI   C4A 2378   2.961  15.057   8.284 -0.0912 -0.3055 -0.0079
  149loPI   C5A 2379   3.063  15.424   8.315 -0.1347 -0.2310  0.2998
  149loPI   C6A 2380   2.889  15.638   8.068 -0.1268  0.3402 -0.0186
  149loPI   C1B 2381   2.816  14.228   9.572  0.3285  0.2628  0.2009
  149loPI   C2B 2382   2.828  14.260   9.053 -0.1922  0.2340  0.1984
  149loPI   C3B 2383   2.516  14.212   8.753 -0.1204  0.1062 -0.0234
  149loPI   C4B 2384   2.047  14.172   8.872 -0.3740 -0.0936 -0.2685
  150loPI    C1 2385  12.774  13.702  11.068 -0.1396  0.0116  0.1834
  150loPI    C2 2386  12.946  13.819  11.409 -0.0511 -0.0825  0.1715
  150loPI    C3 2387  12.965  14.053  11.086  0.0735 -0.1013  0.1644
  150loPI   PO4 2388  12.818  13.471  11.008 -0.1620  0.2332  0.0646
  150loPI   GL1 2389  12.955  13.238  10.653 -0.1319  0.2216  0.0277
  150loPI   GL2 2390  13.219  13.029  10.659  0.0872 -0.2260  0.0225
  150loPI   C1A 2391  12.817  13.359  10.219 -0.2818  0.1686  0.3360
  150loPI   C2A 2392  12.848  13.251   9.754 -0.1193  0.0651  0.2424
  150loPI   C3A 2393  12.666  13.266   9.421  0.4270 -0.0329  0.3193
  150loPI   C4A 2394  12.392  13.440   9.103 -0.3254 -0.1814  0.0597
  150loPI   C5A 2395  12.549  13.634   8.640  0.0840  0.1039 -0.1020
  150loPI   C6A 2396  12.603  13.817   8.250 -0.1261  0.2156 -0.2306
  150loPI   C1B 2397  13.333  13.177  10.286  0.1919 -0.0393  0.1795
  150loPI   C2B 2398  13.291  13.362   9.907  0.2149 -0.3043  0.0921
  150loPI   C3B 2399  13.199  13.219   9.459 -0.2299  0.1942  0.3554
  150loPI   C4B 2400  12.979  13.078   9.117  0.1509  0.0700  0.0379
  151loPI    C1 2401   8.787  17.753  10.230  0.2445 -0.0406 -0.0056
  151loPI    C2 2402   8.833  17.779  10.626 -0.0588 -0.0600  0.0330
  151loPI    C3 2403   8.555  17.537  10.473  0.0613 -0.0573 -0.1930
  151loPI   PO4 2404   8.747  18.000  10.154  0.0342 -0.1448 -0.0966
  151loPI   GL1 2405   8.396  18.045   9.965 -0.2158  0.1260 -0.2225
  151loPI   GL2 2406   8.313  17.700   9.994  0.3958 -0.2316  0.1749
  151loPI   C1A 2407   8.490  18.191   9.510  0.0846 -0.0680  0.1822
  151loPI   C2A 2408   8.586  18.158   9.076 -0.3193 -0.0012 -0.0172
  151loPI   C3A 2409   8.500  18.281   8.675  0.0719 -0.1099 -0.0571
  151loPI   C4A 2410   8.500  18.557   8.352 -0.0722  0.0743 -0.2361
  151loPI   C5A 2411   8.546  18.830   8.015  0.2568  0.0200  0.1034
  151loPI   C6A 2412   8.362  19.093   7.850  0.0489 -0.3214  0.0024
  151loPI   C1B 2413   8.282  17.718   9.508  0.0892 -0.2163 -0.3108
  151loPI   C2B 2414   8.268  17.802   9.091  0.1930  0.1350 -0.1375
  151loPI   C3B 2415   8.242  17.854   8.662  0.1799 -0.3534 -0.0792
  151loPI   C4B 2416   8.170  18.141   8.361  0.1941  0.0937  0.3449
  152loPI    C1 2417  15.347   3.938  10.727  0.2440  0.2327 -0.0981
  152loPI    C2 2418  15.058   3.899  11.000  0.2870 -0.2599 -0.1154
  152loPI    C3 2419  15.428   3.999  11.114  0.1938  0.0250 -0.0542
  152loPI   PO4 2420  15.337   4.089  10.477  0.0009 -0.1227 -0.2279
  152loPI   GL1 2421  15.470   4.148  10.198  0.1277 -0.1384  0.1251
  152loPI   GL2 2422  15.774   4.096   9.990  0.3761 -0.3159 -0.1280
  152loPI   C1A 2423  15.367   4.214   9.734 -0.1026  0.0754 -0.3651
  152loPI   C2A 2424  15.437   4.152   9.312 -0.1929 -0.2039  0.3089
  152loPI   C3A 2425  15.488   4.241   8.890 -0.3300 -0.0354 -0.0130
  152loPI   C4A 2426  15.391   4.215   8.449 -0.0607  0.1114 -0.1749
  152loPI   C5A 2427  15.548   3.923   8.061 -0.1212  0.1377  0.0873
  152loPI   C6A 2428  15.527   3.605   7.710  0.0530 -0.5089 -0.0473
  152loPI   C1B 2429  15.891   3.989   9.585  0.2448 -0.0199 -0.0859
  152loPI   C2B 2430  15.888   3.943   9.173  0.0845 -0.0035 -0.0604
  152loPI   C3B 2431  16.080   3.718   8.866  0.0692  0.0739  0.1761
  152loPI   C4B 2432  16.234   3.400   8.536 -0.0297 -0.0108 -0.0414
  153loPI    C1 2433  17.540   9.580  10.583  0.0181 -0.1560  0.0787
  153loPI    C2 2434  17.910   9.612  10.730  0.0839 -0.0531 -0.1063
  153loPI    C3 2435  17.792   9.851  10.432 -0.2531  0.1690  0.1961
  153loPI   PO4 2436  17.469   9.324  10.467  0.1449 -0.0188 -0.0722
  153loPI   GL1 2437  17.515   9.155  10.038 -0.0598 -0.1703  0.1476
  153loPI   GL2 2438  17.598   9.544  10.014 -0.0254 -0.1439  0.2586
  153loPI   C1A 2439  17.436   9.237   9.624 -0.2264 -0.0115  0.0026
  153loPI   C2A 2440  17.523   9.324   9.238  0.1479 -0.1928 -0.0085
  153loPI   C3A 2441  17.706   9.365   8.802 -0.2082  0.1283 -0.0698
  153loPI   C4A 2442  18.169   9.277   8.664  0.1593 -0.0863  0.0468
  153loPI   C5A 2443  18.319   9.342   8.259 -0.0184  0.1503 -0.0407
  153loPI   C6A 2444  18.482   9.764   8.091 -0.0011 -0.0182  0.2387
  153loPI   C1B 2445  17.910   9.454   9.597  0.2032  0.3166  0.1949
  153loPI   C2B 2446  17.995   9.433   9.185 -0.1927  0.0021  0.0959
  153loPI   C3B 2447  18.482   9.480   9.033 -0.3106 -0.1264  0.0144
  153loPI   C4B 2448  18.575   9.594   8.587  0.1180 -0.2169  0.0638
  154loPI    C1 2449   9.482  16.451  10.682 -0.1694  0.0936  0.0619
  154loPI    C2 2450   9.669  16.528  11.027  0.0450  0.2890 -0.0951
  154loPI    C3 2451   9.465  16.817  10.840  0.0179  0.2122 -0.1851
  154loPI   PO4 2452   9.734  16.263  10.559  0.0533 -0.1861  0.1639
  154loPI   GL1 2453   9.682  15.915  10.205  0.1891  0.0953  0.1440
  154loPI   GL2 2454   9.659  16.201  10.082  0.2260 -0.2795 -0.0322
  154loPI   C1A 2455   9.891  15.533   9.949 -0.1279 -0.0290  0.0536
  154loPI   C2A 2456   9.893  15.480   9.508  0.1056  0.1183 -0.4209
  154loPI   C3A 2457   9.892  15.477   9.095  0.1779  0.0585 -0.1601
  154loPI   C4A 2458   9.814  15.454   8.790 -0.1150  0.3662 -0.2117
  154loPI   C5A 2459   9.785  15.747   8.425  0.1097 -0.1615 -0.1877
  154loPI   C6A 2460   9.594  16.112   8.469  0.1035 -0.5882  0.0700
  154loPI   C1B 2461   9.507  16.340   9.694  0.1895  0.1335  0.2057
  154loPI   C2B 2462   9.482  16.405   9.236 -0.0150 -0.4469 -0.0056
  154loPI   C3B 2463   9.401  16.384   8.836 -0.2934  0.1044  0.2074
  154loPI   C4B 2464   9.112  16.064   8.538  0.1267 -0.3067  0.2514
  155loPI    C1 2465   2.699  17.765  10.652 -0.0026 -0.3488 -0.0754
  155loPI    C2 2466   2.697  17.443  10.890 -0.3203 -0.1303  0.2278
  155loPI    C3 2467   2.385  17.694  10.890 -0.0826  0.1737 -0.0137
  155loPI   PO4 2468   2.826  17.661  10.456 -0.1315  0.4621 -0.0436
  155loPI   GL1 2469   2.974  17.672  10.034  0.0406 -0.0913  0.1756
  155loPI   GL2 2470   3.021  17.444   9.822 -0.1770 -0.0965 -0.1856
  155loPI   C1A 2471   2.816  17.916   9.739 -0.0466 -0.2025  0.1829
  155loPI   C2A 2472   2.668  18.105   9.353  0.0573  0.0141  0.1472
  155loPI   C3A 2473   2.756  18.324   9.014 -0.0583  0.2468  0.2515
  155loPI   C4A 2474   2.776  18.395   8.637 -0.4318  0.0038 -0.1438
  155loPI   C5A 2475   2.914  18.565   8.306  0.0178 -0.0294 -0.1788
  155loPI   C6A 2476   2.738  18.760   7.933 -0.2271 -0.0648 -0.0639
  155loPI   C1B 2477   2.953  17.455   9.439  0.1559  0.0943 -0.2711
  155loPI   C2B 2478   2.958  17.745   9.208 -0.3983 -0.0725  0.2772
  155loPI   C3B 2479   3.057  17.966   8.801 -0.2064 -0.0282 -0.3978
  155loPI   C4B 2480   3.145  18.123   8.444  0.1461 -0.0827 -0.0494
  156loPI    C1 2481   8.093   7.364  10.539  0.0794 -0.0419 -0.1120
  156loPI    C2 2482   8.352   7.631  10.686 -0.3465  0.0715  0.4652
  156loPI    C3 2483   8.396   7.242  10.769  0.0151  0.0035 -0.0028
  156loPI   PO4 2484   7.911   7.585  10.457 -0.0277 -0.0365 -0.0665
  156loPI   GL1 2485   7.740   7.682  10.149 -0.0059  0.1272 -0.1801
  156loPI   GL2 2486   7.483   7.714  10.016  0.4823 -0.0608 -0.1290
  156loPI   C1A 2487   7.933   7.739   9.686  0.3074  0.2948 -0.0934
  156loPI   C2A 2488   8.071   7.860   9.255  0.1240 -0.1768 -0.2053
  156loPI   C3A 2489   8.214   8.132   9.007  0.1615  0.1716  0.2734
  156loPI   C4A 2490   8.444   8.024   8.570  0.1070 -0.1763  0.1208
  156loPI   C5A 2491   8.452   7.807   8.157 -0.0128 -0.3169 -0.0771
  156loPI   C6A 2492   8.305   7.411   7.862  0.5027 -0.0255 -0.4374
  156loPI   C1B 2493   7.426   7.690   9.605 -0.2071  0.1845  0.0926
  156loPI   C2B 2494   7.453   7.691   9.132 -0.2337 -0.1714 -0.0624
  156loPI   C3B 2495   7.489   7.627   8.754 -0.0581  0.1404 -0.0032
  156loPI   C4B 2496   7.425   7.599   8.283  0.5309  0.0312 -0.0626
  157loPI    C1 2497   4.794   1.545   9.909  0.0987 -0.0639 -0.1278
  157loPI    C2 2498   4.906   1.502  10.291  0.0920 -0.0312 -0.1221
  157loPI    C3 2499   5.165   1.425   9.996  0.0449 -0.2232 -0.1148
  157loPI   PO4 2500   4.517   1.780  10.074  0.1470  0.0100  0.0642
  157loPI   GL1 2501   4.336   1.820   9.725 -0.0091  0.0113 -0.0111
  157loPI   GL2 2502   4.670   1.901   9.635  0.1476  0.1403 -0.0463
  157loPI   C1A 2503   4.523   1.477   9.518 -0.0186 -0.1633 -0.1045
  157loPI   C2A 2504   4.825   1.242   9.169 -0.2586 -0.0591  0.3519
  157loPI   C3A 2505   4.882   1.147   8.885  0.0599  0.0627 -0.0775
  157loPI   C4A 2506   5.057   1.065   8.472 -0.3313  0.0790  0.0494
  157loPI   C5A 2507   5.041   1.163   8.009 -0.0326 -0.1128  0.1182
  157loPI   C6A 2508   5.166   1.327   7.592  0.1137 -0.1952  0.0346
  157loPI   C1B 2509   4.742   2.174   9.204  0.1284 -0.1170  0.0418
  157loPI   C2B 2510   4.930   2.215   8.834  0.0080 -0.0001 -0.4312
  157loPI   C3B 2511   5.050   2.522   8.647  0.3077  0.1888 -0.0485
  157loPI   C4B 2512   5.276   2.815   8.796 -0.2098 -0.1304  0.0603
  158loPI    C1 2513   9.325  17.982  10.670 -0.0218 -0.0275  0.1067
  158loPI    C2 2514   9.090  18.078  10.979  0.1246  0.1338  0.1694
  158loPI    C3 2515   9.484  18.031  11.034  0.1103 -0.1257  0.0632
  158loPI   PO4 2516   9.239  18.034  10.416 -0.0900 -0.0714 -0.1599
  158loPI   GL1 2517   9.206  18.004   9.918 -0.1507  0.1039 -0.0533
  158loPI   GL2 2518   8.917  18.196   9.737 -0.1531 -0.1669  0.1885
  158loPI   C1A 2519   9.249  17.882   9.557  0.2333 -0.1791 -0.0034
  158loPI   C2A 2520   9.217  17.885   9.162 -0.4494  0.2467  0.2397
  158loPI   C3A 2521   9.344  17.905   8.721 -0.0322  0.0728  0.1959
  158loPI   C4A 2522   9.595  17.981   8.322  0.0029  0.0367  0.3946
  158loPI   C5A 2523   9.691  18.332   7.967  0.0689  0.0195 -0.0333
  158loPI   C6A 2524   9.874  18.721   7.632 -0.0253  0.0002 -0.1414
  158loPI   C1B 2525   8.978  18.259   9.346 -0.1824 -0.1269  0.3217
  158loPI   C2B 2526   9.080  18.292   8.909 -0.2907  0.1452  0.1566
  158loPI   C3B 2527   9.014  18.543   8.595 -0.2270  0.1115 -0.4255
  158loPI   C4B 2528   8.935  18.535   8.089 -0.3876 -0.3384 -0.1210
  159loPI    C1 2529  15.019  14.168  10.808  0.2295 -0.2196 -0.1012
  159loPI    C2 2530  14.949  14.112  11.198 -0.1015  0.1320 -0.1040
  159loPI    C3 2531  15.142  14.440  11.075 -0.0892  0.0728 -0.2446
  159loPI   PO4 2532  15.150  13.982  10.725 -0.2359 -0.0428 -0.4243
  159loPI   GL1 2533  15.197  13.938  10.387 -0.2373 -0.0341 -0.2797
  159loPI   GL2 2534  15.385  14.073  10.275 -0.0314 -0.1337 -0.2520
  159loPI   C1A 2535  14.945  14.022   9.968 -0.0544  0.1421 -0.4372
  159loPI   C2A 2536  15.037  13.921   9.498 -0.0503 -0.0993  0.0781
  159loPI   C3A 2537  14.934  13.879   9.027  0.0118 -0.0024  0.0153
  159loPI   C4A 2538  14.923  13.656   8.588  0.0679 -0.0882  0.0886
  159loPI   C5A 2539  14.771  13.358   8.212  0.0494 -0.0328  0.2333
  159loPI   C6A 2540  14.377  13.389   8.071 -0.1423 -0.1715  0.0504
  159loPI   C1B 2541  15.474  14.194   9.875  0.3208  0.1318 -0.0417
  159loPI   C2B 2542  15.507  14.222   9.408  0.1637  0.1857  0.0460
  159loPI   C3B 2543  15.539  14.136   9.070  0.2987  0.0096  0.3080
  159loPI   C4B 2544  15.357  14.347   8.808  0.1002 -0.0990 -0.1236
  160loPI    C1 2545  17.540   8.238  10.614  0.1669 -0.0742  0.3384
  160loPI    C2 2546  17.256   8.338  10.877  0.0911  0.0150  0.2237
  160loPI    C3 2547  17.208   8.017  10.642  0.0618  0.0599  0.1683
  160loPI   PO4 2548  17.613   8.456  10.500  0.1416 -0.1706  0.1036
  160loPI   GL1 2549  17.743   8.636  10.155 -0.1513  0.0956 -0.0251
  160loPI   GL2 2550  18.073   8.446  10.120 -0.2474  0.0465  0.1505
  160loPI   C1A 2551  17.816   8.842   9.763  0.1952 -0.2349  0.2141
  160loPI   C2A 2552  17.813   8.957   9.403 -0.0276  0.2200  0.0132
  160loPI   C3A 2553  17.862   8.903   8.935 -0.1949  0.0348  0.0693
  160loPI   C4A 2554  17.975   8.773   8.533 -0.0598 -0.2649 -0.0593
  160loPI   C5A 2555  18.001   8.488   8.255 -0.2113 -0.0569  0.1714
  160loPI   C6A 2556  17.884   8.426   7.846 -0.0236  0.2363  0.0921
  160loPI   C1B 2557  17.894   8.323   9.733 -0.0341 -0.0052 -0.1219
  160loPI   C2B 2558  17.658   8.387   9.424 -0.1106  0.2110 -0.1830
  160loPI   C3B 2559  17.635   8.317   9.024  0.0970  0.2102  0.1624
  160loPI   C4B 2560  17.644   8.455   8.644 -0.0715  0.0125  0.2176
  161loPI    C1 2561   5.191  16.614  10.282 -0.1575  0.0975 -0.1153
  161loPI    C2 2562   5.399  16.424  10.565 -0.0859  0.0825 -0.1777
  161loPI    C3 2563   5.589  16.654  10.298 -0.1369 -0.0197 -0.3031
  161loPI   PO4 2564   4.991  16.452  10.252 -0.1268 -0.0790 -0.0630
  161loPI   GL1 2565   5.014  16.332   9.849  0.2690 -0.2181 -0.1726
  161loPI   GL2 2566   5.119  15.951   9.692 -0.0099  0.2143 -0.1882
  161loPI   C1A 2567   5.070  16.371   9.317  0.1709  0.2892  0.2377
  161loPI   C2A 2568   5.366  16.250   8.964  0.1236 -0.0795  0.0116
  161loPI   C3A 2569   5.528  16.180   8.629  0.3385 -0.0017 -0.0668
  161loPI   C4A 2570   5.386  16.081   8.270 -0.2090 -0.2381 -0.0625
  161loPI   C5A 2571   5.374  16.421   8.035 -0.1575 -0.0024  0.1560
  161loPI   C6A 2572   5.713  16.578   7.754  0.1572 -0.2404 -0.0560
  161loPI   C1B 2573   5.143  15.904   9.265 -0.2943 -0.2861  0.2309
  161loPI   C2B 2574   5.094  15.785   8.924 -0.0499  0.0191 -0.3904
  161loPI   C3B 2575   5.045  15.793   8.579 -0.1243 -0.0302 -0.1364
  161loPI   C4B 2576   5.276  15.553   8.264 -0.0872 -0.0741  0.3249
  162loPI    C1 2577   3.728  17.997  10.456 -0.0863  0.0619 -0.2189
  162loPI    C2 2578   4.127  17.966  10.471 -0.0939  0.1331  0.3172
  162loPI    C3 2579   3.905  17.645  10.383  0.0741  0.0635  0.1402
  162loPI   PO4 2580   3.713  18.217  10.297 -0.0293 -0.2932  0.2555
  162loPI   GL1 2581   3.689  18.336   9.971  0.3240 -0.3922  0.0991
  162loPI   GL2 2582   3.733  18.619   9.947  0.0670  0.0658 -0.1263
  162loPI   C1A 2583   3.681  18.194   9.533  0.1404 -0.0470  0.2174
  162loPI   C2A 2584   3.645  18.028   9.148 -0.1894 -0.1946 -0.0873
  162loPI   C3A 2585   3.684  18.006   8.768 -0.0395  0.1395 -0.0030
  162loPI   C4A 2586   3.701  18.010   8.293  0.2250  0.2094 -0.0956
  162loPI   C5A 2587   3.377  17.852   7.963  0.2068  0.1061 -0.1192
  162loPI   C6A 2588   3.125  18.160   7.738 -0.1114  0.3702  0.1101
  162loPI   C1B 2589   3.478  18.646   9.515  0.2600  0.1422  0.1699
  162loPI   C2B 2590   3.461  18.795   9.094 -0.1681 -0.1755 -0.1145
  162loPI   C3B 2591   3.483  19.094   8.769 -0.3109  0.2502 -0.1099
  162loPI   C4B 2592   3.524  19.235   8.367  0.1765 -0.0147 -0.1604
  163loPI    C1 2593   7.525   6.728  10.381 -0.2648 -0.0218 -0.1780
  163loPI    C2 2594   7.225   6.512  10.533 -0.1540  0.1054  0.2342
  163loPI    C3 2595   7.602   6.435  10.642 -0.0718  0.2064  0.0264
  163loPI   PO4 2596   7.450   6.790  10.184 -0.0022  0.0256 -0.0075
  163loPI   GL1 2597   7.582   6.759   9.823 -0.0794 -0.0363  0.0769
  163loPI   GL2 2598   7.316   6.635   9.728  0.0183 -0.2664 -0.2068
  163loPI   C1A 2599   7.629   6.893   9.413  0.1329  0.0890 -0.0747
  163loPI   C2A 2600   7.864   6.945   9.236 -0.1337  0.1472 -0.2090
  163loPI   C3A 2601   8.281   7.029   8.991 -0.1389 -0.0550 -0.0193
  163loPI   C4A 2602   8.325   6.800   8.576 -0.0696 -0.0966 -0.0473
  163loPI   C5A 2603   7.909   6.751   8.345  0.0074  0.4429 -0.0782
  163loPI   C6A 2604   7.853   6.645   8.051  0.3761  0.1066  0.1720
  163loPI   C1B 2605   6.937   6.706   9.590 -0.0096 -0.1967 -0.1038
  163loPI   C2B 2606   7.149   6.772   9.277  0.1575  0.1015 -0.0152
  163loPI   C3B 2607   7.169   6.800   8.841 -0.0127 -0.0746  0.1984
  163loPI   C4B 2608   6.997   6.872   8.435 -0.0934 -0.0223 -0.1002
  164loPI    C1 2609   8.996  14.357  10.476  0.1949  0.0579  0.0485
  164loPI    C2 2610   9.099  14.038  10.694 -0.1669 -0.0602  0.0542
  164loPI    C3 2611   8.994  14.378  10.875  0.0424  0.0080  0.0510
  164loPI   PO4 2612   9.056  14.316  10.237 -0.0410  0.1332  0.1186
  164loPI   GL1 2613   8.784  14.409   9.876  0.3751 -0.0656  0.1247
  164loPI   GL2 2614   9.014  14.087   9.808  0.1269 -0.0528 -0.0453
  164loPI   C1A 2615   8.607  14.612   9.581  0.0599  0.2358  0.0857
  164loPI   C2A 2616   8.747  14.874   9.218  0.0274  0.0032  0.3371
  164loPI   C3A 2617   8.880  14.904   8.833 -0.0935  0.1088  0.0073
  164loPI   C4A 2618   9.144  15.020   8.525 -0.2024  0.2343 -0.0319
  164loPI   C5A 2619   9.495  15.235   8.361 -0.3574  0.2655  0.1600
  164loPI   C6A 2620   9.987  15.257   8.259  0.0759 -0.1118 -0.2812
  164loPI   C1B 2621   9.167  13.956   9.427 -0.2721  0.1945  0.0048
  164loPI   C2B 2622   9.028  13.967   9.038 -0.0949  0.2290 -0.0042
  164loPI   C3B 2623   9.121  14.146   8.660 -0.2344  0.1132 -0.0585
  164loPI   C4B 2624   9.290  14.136   8.334 -0.1983 -0.1056 -0.2267
  165loPI    C1 2625  12.916  17.857  10.794 -0.2906 -0.0098  0.1080
  165loPI    C2 2626  13.194  17.569  10.785 -0.0020  0.2632  0.0898
  165loPI    C3 2627  12.981  17.631  11.117 -0.0747  0.0233  0.0898
  165loPI   PO4 2628  13.056  18.052  10.661  0.1805  0.1371  0.3282
  165loPI   GL1 2629  13.081  17.807  10.346 -0.4033  0.3465  0.1161
  165loPI   GL2 2630  13.194  17.454  10.275 -0.1220 -0.3028  0.0732
  165loPI   C1A 2631  13.217  17.823   9.931  0.3345 -0.2673  0.0901
  165loPI   C2A 2632  13.280  17.784   9.456  0.1634 -0.0102 -0.1318
  165loPI   C3A 2633  13.285  17.964   9.096  0.3564 -0.1922  0.2516
  165loPI   C4A 2634  13.144  18.047   8.692 -0.0466  0.0212 -0.2125
  165loPI   C5A 2635  13.216  18.226   8.273 -0.0186 -0.1103  0.0526
  165loPI   C6A 2636  13.045  18.340   7.863  0.0668  0.0360  0.1060
  165loPI   C1B 2637  13.240  17.363   9.821  0.0517 -0.0629 -0.2303
  165loPI   C2B 2638  13.070  17.338   9.394 -0.2062  0.0632  0.0192
  165loPI   C3B 2639  13.006  17.568   8.995 -0.0693  0.2203 -0.1861
  165loPI   C4B 2640  12.777  17.501   8.684  0.0680 -0.2142  0.0264
  166loPI    C1 2641   2.854   4.115  10.871  0.0442  0.1880  0.2026
  166loPI    C2 2642   3.041   3.852  11.107  0.0203  0.0051  0.0211
  166loPI    C3 2643   3.252   4.081  10.857  0.0247  0.0123  0.0314
  166loPI   PO4 2644   2.586   3.961  10.778 -0.2549 -0.0952 -0.1570
  166loPI   GL1 2645   2.541   4.007  10.342  0.0486  0.2696  0.2975
  166loPI   GL2 2646   2.626   3.735  10.158 -0.1150  0.3903 -0.0230
  166loPI   C1A 2647   2.461   4.353  10.058  0.1283 -0.0385 -0.0873
  166loPI   C2A 2648   2.523   4.506   9.657  0.3503  0.1218 -0.1324
  166loPI   C3A 2649   2.388   4.566   9.290 -0.0256  0.1786 -0.2759
  166loPI   C4A 2650   2.418   4.313   8.855  0.0261 -0.1790  0.2479
  166loPI   C5A 2651   2.528   4.218   8.407 -0.0532 -0.0524 -0.0562
  166loPI   C6A 2652   2.914   4.101   8.252 -0.0123 -0.3593 -0.2189
  166loPI   C1B 2653   2.551   3.975   9.767 -0.2023  0.1909 -0.1169
  166loPI   C2B 2654   2.245   4.120   9.481  0.1011 -0.1741  0.1366
  166loPI   C3B 2655   2.045   4.102   9.153  0.0449 -0.0985  0.0007
  166loPI   C4B 2656   1.879   4.223   8.733 -0.1440 -0.0454 -0.0434
  167loPI    C1 2657   0.345   5.110  10.616 -0.3793 -0.0822  0.1446
  167loPI    C2 2658  -0.003   5.127  10.812 -0.2739 -0.1398  0.3399
  167loPI    C3 2659   0.316   4.960  10.986 -0.1678 -0.1560  0.1329
  167loPI   PO4 2660   0.323   4.949  10.351 -0.1488 -0.1696 -0.2048
  167loPI   GL1 2661   0.404   5.058   9.877  0.0634 -0.3527 -0.2111
  167loPI   GL2 2662   0.557   4.767   9.952  0.1731  0.1335 -0.1840
  167loPI   C1A 2663   0.260   5.139   9.467  0.2826 -0.1569  0.0290
  167loPI   C2A 2664   0.348   5.215   9.049  0.0592  0.0315 -0.0601
  167loPI   C3A 2665   0.304   5.242   8.569  0.0741 -0.1035 -0.3666
  167loPI   C4A 2666   0.171   5.517   8.342 -0.0527 -0.2593  0.1544
  167loPI   C5A 2667  -0.085   5.505   7.977 -0.0300 -0.0141 -0.0738
  167loPI   C6A 2668  -0.420   5.633   7.774  0.0776  0.0065 -0.0965
  167loPI   C1B 2669   0.522   4.669   9.485  0.1069  0.0630  0.1438
  167loPI   C2B 2670   0.471   4.699   9.005 -0.3665 -0.0429  0.0790
  167loPI   C3B 2671   0.523   4.811   8.635 -0.1117  0.1505  0.3749
  167loPI   C4B 2672   0.646   4.899   8.249 -0.1609 -0.2261  0.3027
  168loPI    C1 2673   4.203  15.022  10.409  0.2418 -0.1545 -0.0475
  168loPI    C2 2674   4.275  15.373  10.586  0.2971 -0.1261 -0.1254
  168loPI    C3 2675   4.421  15.035  10.744  0.0775 -0.1369  0.0593
  168loPI   PO4 2676   4.080  15.130  10.183  0.3248  0.2368 -0.2210
  168loPI   GL1 2677   3.577  15.136   9.936  0.3104  0.0289  0.4088
  168loPI   GL2 2678   3.783  15.336   9.790  0.3889  0.1298  0.4283
  168loPI   C1A 2679   3.506  15.088   9.464  0.1328  0.0445 -0.1528
  168loPI   C2A 2680   3.558  15.025   9.053  0.1469  0.3020  0.0576
  168loPI   C3A 2681   3.426  15.084   8.643  0.0534  0.0177 -0.0991
  168loPI   C4A 2682   3.476  15.135   8.207 -0.2159  0.0864  0.3046
  168loPI   C5A 2683   3.486  15.553   7.933 -0.0076  0.1830 -0.0027
  168loPI   C6A 2684   3.583  15.985   8.250 -0.1471 -0.0717  0.3820
  168loPI   C1B 2685   3.826  15.430   9.345  0.0246  0.1527  0.0010
  168loPI   C2B 2686   3.934  15.329   8.976 -0.1013  0.1003 -0.1980
  168loPI   C3B 2687   4.132  15.411   8.607 -0.2921  0.0500 -0.0102
  168loPI   C4B 2688   4.420  15.561   8.360  0.2062 -0.0997 -0.0584
  169loPI    C1 2689  16.152   8.849  10.879 -0.0601 -0.0143 -0.0892
  169loPI    C2 2690  16.484   8.986  11.056 -0.0527 -0.0220 -0.0967
  169loPI    C3 2691  16.452   8.598  10.964 -0.0508 -0.0155 -0.1250
  169loPI   PO4 2692  16.114   8.906  10.581  0.2819 -0.0201 -0.0940
  169loPI   GL1 2693  16.309   9.114  10.284  0.1699  0.0893 -0.0189
  169loPI   GL2 2694  16.402   9.447  10.244 -0.0590  0.0597  0.1968
  169loPI   C1A 2695  16.400   8.941   9.868  0.3040 -0.0489  0.0443
  169loPI   C2A 2696  16.421   9.013   9.339  0.3688  0.3066 -0.0728
  169loPI   C3A 2697  16.460   8.906   9.000 -0.0576  0.1464 -0.0934
  169loPI   C4A 2698  16.695   8.727   8.630  0.1406 -0.1814  0.1913
  169loPI   C5A 2699  16.677   8.406   8.494 -0.1967  0.3402  0.2006
  169loPI   C6A 2700  16.644   8.156   8.097 -0.2262  0.0797  0.0999
  169loPI   C1B 2701  16.210   9.424   9.862 -0.1537 -0.1101 -0.2985
  169loPI   C2B 2702  16.109   9.372   9.367  0.2791 -0.2868  0.3206
  169loPI   C3B 2703  16.098   9.408   8.931  0.0630 -0.1162  0.0241
  169loPI   C4B 2704  16.138   9.648   8.572 -0.2360 -0.1687  0.1139
  170loPI    C1 2705  14.501   7.184  10.768 -0.0903 -0.0154 -0.3014
  170loPI    C2 2706  14.120   7.298  10.803 -0.0972 -0.0919 -0.1112
  170loPI    C3 2707  14.280   7.051  11.073  0.0951 -0.0389 -0.1750
  170loPI   PO4 2708  14.611   7.117  10.597  0.0798  0.0209 -0.1654
  170loPI   GL1 2709  14.526   7.162  10.120 -0.1325 -0.1047  0.3299
  170loPI   GL2 2710  14.190   7.228  10.282 -0.0552 -0.0976 -0.0669
  170loPI   C1A 2711  14.486   7.156   9.804  0.3193  0.0710  0.0722
  170loPI   C2A 2712  14.579   7.148   9.402 -0.2923 -0.1618 -0.0588
  170loPI   C3A 2713  14.792   7.071   8.941 -0.2338 -0.1777  0.1523
  170loPI   C4A 2714  14.873   7.073   8.490 -0.2031  0.1364 -0.1524
  170loPI   C5A 2715  15.075   7.039   8.153  0.2747  0.1255  0.2455
  170loPI   C6A 2716  15.335   6.972   7.859 -0.0970 -0.2246  0.2971
  170loPI   C1B 2717  14.035   7.207   9.965  0.4025  0.3949  0.0121
  170loPI   C2B 2718  13.978   7.402   9.537  0.0245 -0.1556 -0.0338
  170loPI   C3B 2719  13.968   7.474   9.081  0.3386  0.0986  0.2813
  170loPI   C4B 2720  14.143   7.576   8.710 -0.0392  0.0154 -0.1642
  171loPI    C1 2721  14.967  17.889  10.930 -0.1381 -0.0164  0.1845
  171loPI    C2 2722  15.315  17.703  10.996 -0.1959 -0.1209  0.1969
  171loPI    C3 2723  15.248  18.063  11.155  0.0903  0.1119 -0.1910
  171loPI   PO4 2724  14.709  17.699  10.921  0.0455 -0.0151  0.1024
  171loPI   GL1 2725  14.528  17.622  10.558 -0.0440  0.0908 -0.1954
  171loPI   GL2 2726  14.594  17.975  10.557 -0.1763 -0.3571 -0.0039
  171loPI   C1A 2727  14.687  17.308  10.311 -0.1457  0.0362 -0.0309
  171loPI   C2A 2728  14.473  17.042  10.035  0.0229 -0.0777 -0.3031
  171loPI   C3A 2729  14.159  17.199   9.720 -0.2508  0.4530  0.0509
  171loPI   C4A 2730  14.101  17.401   9.371  0.1699 -0.1231 -0.2830
  171loPI   C5A 2731  14.047  17.573   8.984 -0.3145  0.0486  0.2824
  171loPI   C6A 2732  14.275  17.936   8.660 -0.1824  0.3788  0.0227
  171loPI   C1B 2733  14.746  17.903  10.206 -0.0642 -0.2783 -0.0763
  171loPI   C2B 2734  14.589  17.545   9.893 -0.0021  0.1146  0.0093
  171loPI   C3B 2735  14.696  17.398   9.511  0.1646 -0.1407  0.1482
  171loPI   C4B 2736  14.986  17.345   9.166 -0.1666  0.0861  0.0461
  172loPI    C1 2737   5.368  15.240  10.098 -0.3677  0.1238 -0.0368
  172loPI    C2 2738   5.470  15.318  10.477 -0.3278  0.0354 -0.0291
  172loPI    C3 2739   5.436  15.617  10.214 -0.1217  0.0735 -0.0135
  172loPI   PO4 2740   5.227  15.017  10.150  0.1014 -0.0963 -0.3786
  172loPI   GL1 2741   5.061  14.704   9.945 -0.1528 -0.0551  0.1178
  172loPI   GL2 2742   5.326  14.799   9.673  0.1063 -0.0344  0.1958
  172loPI   C1A 2743   4.912  14.524   9.558 -0.1495 -0.0130  0.0711
  172loPI   C2A 2744   4.842  14.390   9.110 -0.2127 -0.2047  0.2251
  172loPI   C3A 2745   5.043  14.277   8.714 -0.0825 -0.0804 -0.1163
  172loPI   C4A 2746   5.116  14.221   8.233 -0.0904  0.2552 -0.1724
  172loPI   C5A 2747   4.816  14.110   7.937  0.5298  0.1130  0.0904
  172loPI   C6A 2748   4.681  13.895   7.535 -0.0602  0.0328  0.0204
  172loPI   C1B 2749   5.465  14.985   9.272 -0.2445  0.0226 -0.0242
  172loPI   C2B 2750   5.771  15.092   8.880 -0.3300  0.4525  0.0888
  172loPI   C3B 2751   5.917  15.269   8.531 -0.1053  0.1589  0.1052
  172loPI   C4B 2752   6.159  15.634   8.386  0.1809 -0.0243  0.2049
  173loPI    C1 2753  13.473   7.811  10.805  0.0808  0.1157 -0.0619
  173loPI    C2 2754  13.771   7.805  11.071  0.0606  0.0460 -0.0409
  173loPI    C3 2755  13.603   7.462  10.951 -0.1164  0.0944  0.0656
  173loPI   PO4 2756  13.610   7.895  10.573  0.0831  0.0714  0.0542
  173loPI   GL1 2757  13.493   7.831  10.148  0.0538 -0.0719 -0.0096
  173loPI   GL2 2758  13.473   7.503  10.019  0.0569 -0.1567 -0.1557
  173loPI   C1A 2759  13.746   7.892   9.864 -0.3491  0.1888  0.2759
  173loPI   C2A 2760  13.876   7.922   9.453  0.0230  0.0822 -0.0302
  173loPI   C3A 2761  13.789   7.984   9.058 -0.1742  0.1698  0.1093
  173loPI   C4A 2762  13.700   8.092   8.590  0.1111 -0.1332  0.0332
  173loPI   C5A 2763  13.770   8.030   8.203  0.2082  0.1404  0.4237
  173loPI   C6A 2764  13.581   8.419   7.902  0.2497 -0.1386  0.2057
  173loPI   C1B 2765  13.534   7.560   9.563  0.0025 -0.2430  0.2932
  173loPI   C2B 2766  13.477   7.549   9.096 -0.1579 -0.2826  0.0661
  173loPI   C3B 2767  13.623   7.577   8.678  0.0655  0.1132 -0.3701
  173loPI   C4B 2768  13.636   7.536   8.295 -0.0288  0.2034  0.0658
  174loPI    C1 2769   8.758   5.076  10.202 -0.0283  0.1455 -0.1409
  174loPI    C2 2770   8.797   5.328   9.894  0.1409  0.2935 -0.0003
  174loPI    C3 2771   8.850   5.460  10.268 -0.1276  0.1300  0.0978
  174loPI   PO4 2772   8.760   4.812  10.076 -0.0707  0.0534  0.1508
  174loPI   GL1 2773   8.521   4.684   9.694 -0.2956 -0.2988 -0.1303
  174loPI   GL2 2774   8.380   4.946   9.582 -0.0892 -0.3064  0.0622
  174loPI   C1A 2775   8.534   4.469   9.314  0.0491  0.1583 -0.0666
  174loPI   C2A 2776   8.775   4.653   8.967 -0.0521  0.0729 -0.3351
  174loPI   C3A 2777   8.505   4.865   8.657 -0.1613  0.0845 -0.1291
  174loPI   C4A 2778   8.656   5.310   8.603  0.0723 -0.1153  0.1817
  174loPI   C5A 2779   8.554   5.664   8.622  0.2958  0.1122 -0.3046
  174loPI   C6A 2780   8.215   5.869   8.398  0.1336 -0.0554 -0.2450
  174loPI   C1B 2781   8.143   5.086   9.248  0.0913  0.0442 -0.3874
  174loPI   C2B 2782   7.923   5.077   8.861 -0.1582  0.0464 -0.0071
  174loPI   C3B 2783   7.877   4.953   8.404 -0.0475  0.0860 -0.3940
  174loPI   C4B 2784   8.077   4.697   8.083 -0.1201 -0.0215 -0.0288
  175loPI    C1 2785   3.319   6.995  10.550 -0.0094  0.0797  0.2116
  175loPI    C2 2786   3.255   7.374  10.438 -0.2042 -0.0359 -0.0828
  175loPI    C3 2787   3.023   7.206  10.717 -0.1095  0.0627  0.0573
  175loPI   PO4 2788   3.383   6.868  10.268  0.0344 -0.0146 -0.0335
  175loPI   GL1 2789   3.611   6.916   9.852  0.1200  0.1133  0.1175
  175loPI   GL2 2790   3.663   7.331   9.738 -0.0739 -0.1115  0.3326
  175loPI   C1A 2791   3.460   7.030   9.424  0.2953  0.0054  0.2818
  175loPI   C2A 2792   3.416   7.028   8.932  0.5449  0.0355 -0.0819
  175loPI   C3A 2793   3.714   7.106   8.588 -0.2375  0.1431  0.1826
  175loPI   C4A 2794   3.799   6.929   8.226 -0.0120  0.2532 -0.0714
  175loPI   C5A 2795   4.165   6.835   7.969  0.0689 -0.0173  0.2414
  175loPI   C6A 2796   4.438   7.157   8.036 -0.3816  0.0496 -0.0698
  175loPI   C1B 2797   3.745   7.412   9.309  0.2320  0.3110  0.1003
  175loPI   C2B 2798   3.731   7.483   8.880  0.1518 -0.0550  0.0200
  175loPI   C3B 2799   3.822   7.814   8.581  0.1144  0.1252  0.2803
  175loPI   C4B 2800   4.203   7.924   8.267 -0.2154 -0.0054 -0.0276
  176loPI    C1 2801   4.588  11.095  10.803 -0.0568 -0.0655 -0.4270
  176loPI    C2 2802   4.310  10.940  11.045  0.1841  0.1335 -0.0114
  176loPI    C3 2803   4.268  11.313  10.905  0.2648  0.1814  0.0918
  176loPI   PO4 2804   4.620  10.893  10.614  0.1032 -0.0259 -0.0393
  176loPI   GL1 2805   4.476  10.764  10.270  0.4664  0.0515 -0.1507
  176loPI   GL2 2806   4.119  10.809  10.158 -0.0126  0.0591  0.2254
  176loPI   C1A 2807   4.446  10.927   9.732 -0.0101  0.3772 -0.1185
  176loPI   C2A 2808   4.304  10.769   9.340 -0.0946 -0.0597 -0.2056
  176loPI   C3A 2809   4.062  10.642   9.054 -0.2512  0.0918  0.1746
  176loPI   C4A 2810   3.988  10.696   8.701 -0.3851  0.0541  0.2889
  176loPI   C5A 2811   4.028  10.734   8.294  0.1953 -0.2432 -0.4365
  176loPI   C6A 2812   4.038  10.657   7.924  0.2116  0.1263  0.1284
  176loPI   C1B 2813   4.009  10.591   9.771 -0.4327  0.2049 -0.1735
  176loPI   C2B 2814   3.847  10.389   9.352  0.0467 -0.1420  0.0986
  176loPI   C3B 2815   3.774  10.255   8.850  0.2974  0.2230 -0.0705
  176loPI   C4B 2816   3.580  10.460   8.593  0.1023  0.1516 -0.1087
  177loPI    C1 2817  14.523   0.739  11.127 -0.0567 -0.1237  0.0780
  177loPI    C2 2818  14.449   0.432  11.373  0.2094 -0.1580  0.1191
  177loPI    C3 2819  14.679   0.736  11.496  0.1449 -0.0578 -0.0049
  177loPI   PO4 2820  14.622   0.677  10.923  0.1636  0.1612 -0.4066
  177loPI   GL1 2821  14.381   0.637  10.516  0.0899  0.0501  0.3199
  177loPI   GL2 2822  14.024   0.678  10.484 -0.2556  0.1967  0.1244
  177loPI   C1A 2823  14.511   0.933  10.246 -0.0198  0.1441  0.0648
  177loPI   C2A 2824  14.479   1.070   9.848 -0.1889  0.3008 -0.2927
  177loPI   C3A 2825  14.462   0.855   9.463 -0.0191  0.3280 -0.2012
  177loPI   C4A 2826  14.269   0.765   9.103 -0.3075 -0.3125 -0.0090
  177loPI   C5A 2827  14.086   0.896   8.697  0.2164 -0.0093  0.0933
  177loPI   C6A 2828  13.721   1.055   8.396 -0.1025  0.1874  0.1819
  177loPI   C1B 2829  14.092   0.661  10.079 -0.0302  0.0136  0.1566
  177loPI   C2B 2830  14.031   0.612   9.687 -0.1947  0.1100  0.0097
  177loPI   C3B 2831  13.946   0.358   9.355 -0.0765  0.3243  0.1360
  177loPI   C4B 2832  13.905   0.427   8.902 -0.0881 -0.0031 -0.1366
  178loPI    C1 2833  11.492   4.586  10.640  0.0795  0.0295 -0.0118
  178loPI    C2 2834  11.137   4.623  10.459  0.0362 -0.1445  0.0355
  178loPI    C3 2835  11.239   4.874  10.753  0.0527  0.0571 -0.1403
  178loPI   PO4 2836  11.653   4.577  10.465 -0.2302  0.0276  0.0120
  178loPI   GL1 2837  11.696   4.685  10.049  0.0258  0.1229  0.0742
  178loPI   GL2 2838  11.857   4.421   9.995  0.0436  0.1827  0.2187
  178loPI   C1A 2839  12.069   4.868   9.956 -0.0574 -0.2154 -0.0384
  178loPI   C2A 2840  12.362   5.202   9.739 -0.0631 -0.2454  0.1022
  178loPI   C3A 2841  12.447   5.495   9.380  0.2403 -0.1640  0.0486
  178loPI   C4A 2842  12.679   5.705   9.085  0.2015  0.1247 -0.2070
  178loPI   C5A 2843  12.698   5.709   8.611  0.1776 -0.3475 -0.2448
  178loPI   C6A 2844  12.565   5.945   8.162 -0.2566 -0.1187 -0.1595
  178loPI   C1B 2845  11.902   4.541   9.538 -0.0402 -0.0157  0.0625
  178loPI   C2B 2846  11.846   4.590   9.137 -0.1006 -0.2202 -0.2706
  178loPI   C3B 2847  11.634   4.597   8.737  0.0465 -0.0712 -0.1501
  178loPI   C4B 2848  11.600   4.704   8.294 -0.4326 -0.0163  0.1546
  179loPI    C1 2849   4.389  13.113  10.639  0.0754  0.1545  0.0703
  179loPI    C2 2850   4.694  13.340  10.764  0.0717  0.2053 -0.0119
  179loPI    C3 2851   4.319  13.430  10.872  0.0947  0.0828  0.1742
  179loPI   PO4 2852   4.399  13.185  10.319 -0.0261  0.0606  0.0884
  179loPI   GL1 2853   4.756  13.234  10.050  0.1424 -0.1767 -0.0940
  179loPI   GL2 2854   4.732  13.450   9.978  0.0137  0.0107  0.2372
  179loPI   C1A 2855   4.430  13.164   9.659 -0.0916  0.1748 -0.1307
  179loPI   C2A 2856   4.530  13.061   9.283  0.0241 -0.1666  0.4086
  179loPI   C3A 2857   4.182  13.083   8.986 -0.1964 -0.3072  0.0704
  179loPI   C4A 2858   4.191  13.116   8.515  0.2204  0.4734 -0.0002
  179loPI   C5A 2859   4.094  13.458   8.171  0.1070 -0.0735 -0.1699
  179loPI   C6A 2860   3.902  13.741   7.881 -0.1279  0.2367  0.4213
  179loPI   C1B 2861   4.890  13.476   9.512  0.1401  0.3073  0.1771
  179loPI   C2B 2862   4.881  13.317   9.066 -0.0090 -0.2241  0.1016
  179loPI   C3B 2863   4.753  13.017   8.722  0.0546 -0.2018  0.0753
  179loPI   C4B 2864   4.514  12.735   8.444 -0.2711  0.2948 -0.1924
  180loPI    C1 2865   1.495   2.751  10.609 -0.1081  0.2327 -0.0862
  180loPI    C2 2866   1.134   2.590  10.670  0.0109 -0.0412 -0.0884
  180loPI    C3 2867   1.206   2.968  10.780 -0.1605 -0.1094  0.2757
  180loPI   PO4 2868   1.582   2.631  10.369 -0.0765 -0.1960 -0.0806
  180loPI   GL1 2869   1.551   2.359  10.037  0.2191  0.2143  0.1096
  180loPI   GL2 2870   1.210   2.338  10.058 -0.0808  0.0448  0.2030
  180loPI   C1A 2871   1.571   2.240   9.655 -0.0489 -0.1570  0.2194
  180loPI   C2A 2872   1.479   2.156   9.260 -0.1501  0.1861 -0.0337
  180loPI   C3A 2873   1.292   1.972   8.781 -0.2963 -0.0984  0.1560
  180loPI   C4A 2874   1.356   1.823   8.400  0.0168  0.2254 -0.2455
  180loPI   C5A 2875   1.411   1.518   8.116 -0.0810  0.0179 -0.0836
  180loPI   C6A 2876   1.685   1.175   7.925 -0.0594  0.0692  0.3014
  180loPI   C1B 2877   1.067   2.319   9.609  0.1256 -0.0212  0.0133
  180loPI   C2B 2878   1.087   2.480   9.277  0.1060  0.0277  0.4345
  180loPI   C3B 2879   1.155   2.466   8.904 -0.2261  0.1165 -0.0571
  180loPI   C4B 2880   1.077   2.556   8.488  0.1935 -0.0538  0.2120
  181loPI    C1 2881  14.348  15.208  11.297 -0.1745 -0.2091 -0.0190
  181loPI    C2 2882  14.558  14.879  11.383 -0.1279 -0.1449  0.1163
  181loPI    C3 2883  14.207  14.944  11.563 -0.0180  0.0030  0.2810
  181loPI   PO4 2884  14.400  15.254  11.014 -0.0591  0.0242  0.0670
  181loPI   GL1 2885  14.288  15.258  10.450 -0.0729  0.2450  0.0364
  181loPI   GL2 2886  14.538  15.055  10.495  0.0697  0.3857 -0.1541
  181loPI   C1A 2887  14.229  15.038  10.033 -0.0649  0.1755 -0.1430
  181loPI   C2A 2888  14.260  14.947   9.625 -0.1254 -0.0220 -0.2371
  181loPI   C3A 2889  14.088  14.993   9.285  0.0400 -0.0553 -0.1709
  181loPI   C4A 2890  13.947  14.952   8.842 -0.2806  0.1613 -0.1771
  181loPI   C5A 2891  13.730  14.633   8.613  0.0511  0.1062  0.0256
  181loPI   C6A 2892  13.384  14.269   8.526  0.0907 -0.1471 -0.1608
  181loPI   C1B 2893  14.662  15.242  10.111  0.1212  0.0720  0.0800
  181loPI   C2B 2894  14.779  15.358   9.676  0.3747  0.0826 -0.0930
  181loPI   C3B 2895  14.776  15.134   9.334  0.0746  0.0295 -0.1205
  181loPI   C4B 2896  14.466  15.000   8.993  0.2695  0.0803  0.3064
  182loPI    C1 2897   0.596  10.151  10.409 -0.0093  0.1915  0.1015
  182loPI    C2 2898   0.959  10.156  10.577  0.0728  0.4554 -0.0771
  182loPI    C3 2899   0.632  10.194  10.805  0.1409 -0.0248  0.1130
  182loPI   PO4 2900   0.646  10.326  10.155  0.3224  0.0739 -0.0099
  182loPI   GL1 2901   0.930  10.403   9.785  0.1225 -0.0917  0.2357
  182loPI   GL2 2902   0.618  10.324   9.672  0.3438  0.1669 -0.2286
  182loPI   C1A 2903   1.031  10.174   9.458 -0.2163 -0.3131  0.2345
  182loPI   C2A 2904   1.142  10.161   9.066  0.1681  0.0249 -0.0031
  182loPI   C3A 2905   1.183  10.255   8.675 -0.0265 -0.1305  0.3635
  182loPI   C4A 2906   1.261  10.088   8.293 -0.3458  0.0907 -0.1839
  182loPI   C5A 2907   1.254   9.862   7.927  0.0113  0.2753 -0.1106
  182loPI   C6A 2908   1.334   9.643   7.548  0.0170  0.1268 -0.0113
  182loPI   C1B 2909   0.746  10.446   9.178  0.2855 -0.5139  0.3189
  182loPI   C2B 2910   0.712  10.508   8.796 -0.0836 -0.1477 -0.2611
  182loPI   C3B 2911   0.476  10.865   8.590 -0.1123  0.0169 -0.1075
  182loPI   C4B 2912   0.339  11.164   8.246 -0.3394  0.2370 -0.0301
  183loPI    C1 2913  13.404   6.828  10.731 -0.1146 -0.0811  0.2016
  183loPI    C2 2914  13.457   6.445  10.627 -0.1051 -0.0518  0.0974
  183loPI    C3 2915  13.398   6.542  11.011 -0.2432 -0.1717  0.1074
  183loPI   PO4 2916  13.699   6.991  10.675 -0.0469 -0.1409 -0.0846
  183loPI   GL1 2917  13.810   6.894  10.338 -0.2888 -0.1566  0.0998
  183loPI   GL2 2918  13.518   6.994  10.193  0.1187  0.2036  0.1128
  183loPI   C1A 2919  13.748   6.663   9.873 -0.3349 -0.1576  0.2732
  183loPI   C2A 2920  13.787   6.652   9.356  0.1697 -0.2195 -0.0025
  183loPI   C3A 2921  13.846   6.618   8.914  0.0401  0.0828  0.1406
  183loPI   C4A 2922  13.703   6.693   8.473 -0.1237  0.2667 -0.0410
  183loPI   C5A 2923  13.296   6.591   8.254  0.0588 -0.0080 -0.1616
  183loPI   C6A 2924  13.000   6.525   8.519  0.2052  0.1889 -0.2757
  183loPI   C1B 2925  13.503   7.062   9.746  0.0331 -0.2563  0.2284
  183loPI   C2B 2926  13.565   7.137   9.330 -0.0561  0.0630 -0.2949
  183loPI   C3B 2927  13.736   7.108   8.865  0.4282  0.1241 -0.0727
  183loPI   C4B 2928  13.926   7.190   8.475  0.2248 -0.0401 -0.1742
  184loPI    C1 2929   5.212  13.385  10.490 -0.1384  0.1092  0.1274
  184loPI    C2 2930   5.265  13.234  10.857  0.0399 -0.2133 -0.0265
  184loPI    C3 2931   5.561  13.215  10.589  0.0123  0.2800 -0.1008
  184loPI   PO4 2932   5.039  13.615  10.555  0.1021  0.1433  0.0532
  184loPI   GL1 2933   5.031  13.926  10.262 -0.0615 -0.3404 -0.1752
  184loPI   GL2 2934   4.774  14.160  10.199  0.1670 -0.0913  0.2479
  184loPI   C1A 2935   5.076  13.888   9.886  0.0486  0.5531  0.0331
  184loPI   C2A 2936   4.981  14.013   9.424 -0.0659 -0.2469  0.1111
  184loPI   C3A 2937   4.980  13.842   9.065  0.0018 -0.2064 -0.0487
  184loPI   C4A 2938   5.027  13.769   8.663 -0.0544 -0.1060  0.0174
  184loPI   C5A 2939   4.949  13.750   8.257 -0.0757 -0.0224  0.1794
  184loPI   C6A 2940   5.244  13.774   7.890 -0.0982  0.0265  0.0278
  184loPI   C1B 2941   4.631  14.153   9.700  0.1824  0.2279 -0.0727
  184loPI   C2B 2942   4.445  14.167   9.294  0.2966  0.1148 -0.1177
  184loPI   C3B 2943   4.553  14.009   8.812  0.0468 -0.1205  0.2056
  184loPI   C4B 2944   4.651  14.115   8.441  0.0150  0.0864  0.2295
  185loPI    C1 2945   6.276   3.787  10.075 -0.1268  0.1700  0.0003
  185loPI    C2 2946   6.187   3.626  10.430 -0.1067  0.0757 -0.0369
  185loPI    C3 2947   6.422   3.949  10.410 -0.0037  0.0051  0.0275
  185loPI   PO4 2948   6.029   3.784   9.903  0.0886  0.1189  0.0564
  185loPI   GL1 2949   5.930   3.615   9.571 -0.1034 -0.0304  0.1716
  185loPI   GL2 2950   6.224   3.523   9.462 -0.0586  0.2716 -0.1120
  185loPI   C1A 2951   5.748   3.584   9.208 -0.1679 -0.1828  0.1877
  185loPI   C2A 2952   5.668   3.704   8.887 -0.0482 -0.3863 -0.0207
  185loPI   C3A 2953   5.511   3.695   8.537 -0.1381 -0.1920 -0.0891
  185loPI   C4A 2954   5.190   3.709   8.222  0.0444  0.2837 -0.0259
  185loPI   C5A 2955   4.721   3.836   8.332  0.0934  0.1120 -0.1094
  185loPI   C6A 2956   4.335   3.523   8.375 -0.1913  0.0743 -0.0683
  185loPI   C1B 2957   6.507   3.402   9.128  0.1052 -0.0572 -0.1951
  185loPI   C2B 2958   6.539   3.461   8.667  0.0164 -0.2973 -0.1224
  185loPI   C3B 2959   6.607   3.508   8.250  0.1627  0.2906 -0.2263
  185loPI   C4B 2960   6.442   3.355   7.867 -0.0234  0.1951 -0.0650
  186loPI    C1 2961   0.269   3.701  10.898 -0.0014  0.0374  0.0121
  186loPI    C2 2962   0.645   3.769  11.017 -0.0556  0.2932  0.0451
  186loPI    C3 2963   0.351   3.751  11.287 -0.0457 -0.0793  0.0366
  186loPI   PO4 2964   0.278   3.802  10.624 -0.4694  0.0602  0.0134
  186loPI   GL1 2965   0.330   3.911  10.173  0.0672 -0.2263 -0.1533
  186loPI   GL2 2966   0.565   3.656  10.106 -0.0315 -0.1907 -0.0851
  186loPI   C1A 2967   0.162   3.516   9.809  0.0374 -0.0832  0.0989
  186loPI   C2A 2968   0.058   3.570   9.380 -0.0033  0.1846  0.2971
  186loPI   C3A 2969   0.175   3.419   8.977 -0.1131  0.1925 -0.0359
  186loPI   C4A 2970  -0.058   3.222   8.648  0.2831 -0.0547 -0.4653
  186loPI   C5A 2971  -0.240   3.096   8.326 -0.0088  0.0847  0.0679
  186loPI   C6A 2972  -0.337   2.836   7.913  0.2298 -0.1330 -0.3050
  186loPI   C1B 2973   0.729   3.424   9.717  0.0979  0.3743  0.0050
  186loPI   C2B 2974   0.619   3.388   9.302  0.0869 -0.1047  0.2343
  186loPI   C3B 2975   0.761   3.395   8.888 -0.1324  0.0232  0.0703
  186loPI   C4B 2976   0.471   3.336   8.550  0.0083 -0.0021 -0.1399
  187loPI    C1 2977   6.894   3.951  10.207  0.2768  0.0614 -0.3520
  187loPI    C2 2978   7.020   3.611  10.040 -0.0313 -0.1605 -0.1435
  187loPI    C3 2979   6.822   3.601  10.387  0.0888  0.2464 -0.0591
  187loPI   PO4 2980   6.773   4.127  10.020  0.1029  0.1609  0.0248
  187loPI   GL1 2981   6.821   4.228   9.594 -0.1505  0.0239 -0.0259
  187loPI   GL2 2982   7.138   4.209   9.399  0.0244 -0.2727  0.0574
  187loPI   C1A 2983   6.662   4.340   9.203 -0.0499  0.1511  0.0434
  187loPI   C2A 2984   6.816   4.496   8.732 -0.0233  0.3018  0.1426
  187loPI   C3A 2985   6.801   4.410   8.305 -0.0028  0.1214  0.0119
  187loPI   C4A 2986   6.789   4.521   7.927 -0.0539 -0.0616 -0.1658
  187loPI   C5A 2987   6.711   4.330   7.498  0.0390 -0.2628 -0.1289
  187loPI   C6A 2988   6.939   4.423   7.135 -0.0804  0.5066  0.2111
  187loPI   C1B 2989   7.215   4.223   9.014 -0.0536  0.0787  0.0222
  187loPI   C2B 2990   7.250   4.156   8.599  0.0390 -0.2660 -0.1686
  187loPI   C3B 2991   7.254   4.174   8.165 -0.2757 -0.0518  0.0695
  187loPI   C4B 2992   7.277   4.158   7.689 -0.0427  0.0443 -0.0540
  188loPI    C1 2993  13.349   2.712  10.723  0.2942 -0.0067  0.0619
  188loPI    C2 2994  12.975   2.734  10.864  0.2262  0.0378 -0.1226
  188loPI    C3 2995  13.255   2.984  11.001  0.2079 -0.0469  0.0724
  188loPI   PO4 2996  13.345   2.811  10.468 -0.2284 -0.0832  0.2903
  188loPI   GL1 2997  13.378   2.617  10.090  0.1062  0.1802 -0.1185
  188loPI   GL2 2998  13.079   2.485   9.960  0.0784  0.1128  0.1571
  188loPI   C1A 2999  13.601   2.838   9.731  0.3432 -0.1513 -0.1169
  188loPI   C2A 3000  13.652   3.184   9.379  0.0156  0.2088  0.1170
  188loPI   C3A 3001  13.798   3.246   8.928 -0.1630  0.0864 -0.1887
  188loPI   C4A 3002  13.844   3.275   8.513  0.1351  0.1689 -0.0137
  188loPI   C5A 3003  13.891   3.138   8.093  0.1235  0.0871 -0.1434
  188loPI   C6A 3004  14.046   2.840   7.815 -0.2793 -0.1760  0.1104
  188loPI   C1B 3005  13.007   2.525   9.496 -0.0842  0.2049 -0.0086
  188loPI   C2B 3006  13.083   2.530   9.060  0.0263  0.0106  0.1175
  188loPI   C3B 3007  13.148   2.732   8.689 -0.2220  0.0896  0.0077
  188loPI   C4B 3008  13.153   2.733   8.215 -0.3560  0.3279 -0.0964
  189loPI    C1 3009  15.908   7.964  10.952  0.0182 -0.3102  0.0011
  189loPI    C2 3010  15.879   8.353  11.041  0.0688 -0.3169  0.0480
  189loPI    C3 3011  15.636   8.089  11.217  0.1220 -0.3220  0.1142
  189loPI   PO4 3012  15.900   7.941  10.665 -0.1840 -0.2690  0.0294
  189loPI   GL1 3013  15.475   7.864  10.330  0.0380 -0.0340 -0.0114
  189loPI   GL2 3014  15.342   7.670  10.147  0.1477  0.0562  0.1523
  189loPI   C1A 3015  15.337   8.069   9.902 -0.1788  0.0772 -0.4180
  189loPI   C2A 3016  15.394   8.115   9.474  0.2783  0.0665  0.0942
  189loPI   C3A 3017  15.355   8.056   9.083 -0.1217 -0.4972 -0.2340
  189loPI   C4A 3018  15.257   7.955   8.697 -0.1403 -0.0950 -0.0233
  189loPI   C5A 3019  15.227   7.926   8.300  0.2126 -0.2367 -0.1829
  189loPI   C6A 3020  15.399   8.108   7.897 -0.0329  0.0705  0.0898
  189loPI   C1B 3021  15.381   7.656   9.684  0.2765 -0.2384  0.1881
  189loPI   C2B 3022  15.515   7.628   9.247  0.0656 -0.2138  0.1048
  189loPI   C3B 3023  15.563   7.515   8.818 -0.2172  0.0349  0.1399
  189loPI   C4B 3024  15.846   7.370   8.496  0.3041 -0.0310 -0.2477
  190loPI    C1 3025  16.903   0.719  10.717  0.0112 -0.0080 -0.0132
  190loPI    C2 3026  16.869   0.586  11.092 -0.0044 -0.0052 -0.0137
  190loPI    C3 3027  17.221   0.721  10.959 -0.0701  0.2817  0.0954
  190loPI   PO4 3028  16.784   0.592  10.543  0.2518 -0.0597  0.4815
  190loPI   GL1 3029  16.368   0.734  10.395 -0.0397  0.3487  0.1925
  190loPI   GL2 3030  16.468   0.419  10.211 -0.1546  0.0775  0.1009
  190loPI   C1A 3031  16.148   0.716   9.975 -0.0622  0.0955 -0.0290
  190loPI   C2A 3032  16.177   0.635   9.552  0.0483 -0.0166  0.2763
  190loPI   C3A 3033  15.996   0.691   9.187 -0.0448  0.1216 -0.0040
  190loPI   C4A 3034  15.953   0.685   8.830  0.0897  0.2344 -0.0072
  190loPI   C5A 3035  15.971   0.793   8.349 -0.0667 -0.1683 -0.1721
  190loPI   C6A 3036  16.013   1.184   8.236  0.0566 -0.1796  0.2358
  190loPI   C1B 3037  16.692   0.622   9.832 -0.5069  0.1091  0.0118
  190loPI   C2B 3038  17.189   0.720   9.526 -0.0858  0.1026  0.3325
  190loPI   C3B 3039  17.146   0.390   9.161  0.1342 -0.3940 -0.2236
  190loPI   C4B 3040  17.327   0.255   8.768 -0.1460 -0.0273 -0.1062
  191loPI    C1 3041   3.648   8.734  10.202 -0.0026  0.0359 -0.1442
  191loPI    C2 3042   3.975   8.654  10.417 -0.1184 -0.0567  0.0002
  191loPI    C3 3043   3.991   8.647  10.017  0.0568 -0.0531  0.0064
  191loPI   PO4 3044   3.551   9.024  10.279  0.0476 -0.2232 -0.0997
  191loPI   GL1 3045   3.291   9.265  10.030 -0.0069  0.0635 -0.1080
  191loPI   GL2 3046   3.002   9.331   9.869 -0.1133  0.0955 -0.0531
  191loPI   C1A 3047   3.574   9.418   9.724 -0.0653 -0.1715 -0.0884
  191loPI   C2A 3048   3.631   9.346   9.337 -0.0568 -0.1053  0.2311
  191loPI   C3A 3049   3.712   9.320   8.913 -0.2870 -0.1390 -0.1972
  191loPI   C4A 3050   3.755   9.234   8.507  0.2378  0.0398 -0.0031
  191loPI   C5A 3051   3.660   9.088   8.089  0.1470 -0.0394 -0.1015
  191loPI   C6A 3052   3.488   9.170   7.630  0.2574  0.1602 -0.0949
  191loPI   C1B 3053   3.091   9.290   9.366  0.0661 -0.0505 -0.1883
  191loPI   C2B 3054   3.269   9.493   9.003 -0.0362  0.0340 -0.0096
  191loPI   C3B 3055   3.330   9.531   8.583 -0.1114 -0.0802 -0.3504
  191loPI   C4B 3056   3.442   9.595   8.163 -0.2300  0.1971 -0.0407
  192loPI    C1 3057  10.467  17.454  10.293  0.0386  0.0625 -0.1534
  192loPI    C2 3058  10.552  17.599  10.655 -0.0152  0.1693 -0.1833
  192loPI    C3 3059  10.186  17.647  10.501 -0.0032  0.0917 -0.2363
  192loPI   PO4 3060  10.721  17.534  10.156  0.1594  0.1760  0.0879
  192loPI   GL1 3061  10.954  17.187   9.996 -0.2627  0.1550 -0.5039
  192loPI   GL2 3062  10.815  17.423   9.661 -0.0180  0.0753 -0.2075
  192loPI   C1A 3063  10.869  16.764   9.874  0.0853 -0.0876 -0.1057
  192loPI   C2A 3064  10.883  16.559   9.525 -0.2759  0.1978 -0.2013
  192loPI   C3A 3065  10.895  16.537   9.130 -0.1748 -0.0382 -0.0281
  192loPI   C4A 3066  11.216  16.596   8.859 -0.2659  0.1710  0.0315
  192loPI   C5A 3067  11.290  16.722   8.365  0.4103  0.0314 -0.0501
  192loPI   C6A 3068  11.273  16.627   7.941  0.3538  0.2070 -0.1387
  192loPI   C1B 3069  10.908  17.405   9.276  0.0611 -0.0135  0.4448
  192loPI   C2B 3070  10.886  17.532   8.908 -0.3506 -0.3025 -0.1129
  192loPI   C3B 3071  10.714  17.675   8.478  0.0096  0.0559 -0.3750
  192loPI   C4B 3072  10.989  17.701   7.971  0.2458 -0.0126  0.2227
  193loPI    C1 3073  17.975  15.690  10.888 -0.2728  0.1778 -0.0234
  193loPI    C2 3074  17.756  15.784  11.210 -0.0632 -0.0260  0.1828
  193loPI    C3 3075  18.155  15.817  11.222 -0.0380 -0.2470  0.0183
  193loPI   PO4 3076  17.797  15.785  10.694 -0.0337  0.0183  0.0127
  193loPI   GL1 3077  17.692  15.898  10.351  0.0004 -0.0237 -0.0111
  193loPI   GL2 3078  17.598  16.127  10.216 -0.2020 -0.0476 -0.0471
  193loPI   C1A 3079  17.809  15.575  10.020 -0.2754 -0.1088  0.0010
  193loPI   C2A 3080  18.012  15.524   9.599 -0.1381  0.4207  0.2163
  193loPI   C3A 3081  18.027  15.299   9.220  0.0393 -0.0055  0.0385
  193loPI   C4A 3082  18.081  15.047   8.930 -0.0740  0.0396  0.2385
  193loPI   C5A 3083  18.086  14.765   8.519 -0.2765  0.2995 -0.1914
  193loPI   C6A 3084  18.108  14.406   8.261 -0.0291  0.1919 -0.2859
  193loPI   C1B 3085  17.558  15.997   9.806  0.2466 -0.0553  0.0309
  193loPI   C2B 3086  17.248  15.934   9.481  0.1794  0.0570  0.0186
  193loPI   C3B 3087  16.904  16.136   9.237 -0.0457 -0.2034 -0.2921
  193loPI   C4B 3088  16.775  16.046   8.829 -0.3765 -0.1081 -0.0731
  194loPI    C1 3089  14.670  13.689  11.148 -0.0588  0.0422 -0.0665
  194loPI    C2 3090  14.427  13.373  11.122  0.0681 -0.0792  0.1942
  194loPI    C3 3091  14.818  13.320  11.184  0.1599  0.1162 -0.1876
  194loPI   PO4 3092  14.657  13.762  10.887  0.0752 -0.1099 -0.0225
  194loPI   GL1 3093  14.567  13.828  10.572  0.0597  0.2380 -0.0706
  194loPI   GL2 3094  14.279  14.029  10.566 -0.1444  0.1270 -0.1114
  194loPI   C1A 3095  14.494  13.980  10.108  0.2452 -0.0845 -0.0104
  194loPI   C2A 3096  14.576  14.133   9.644 -0.0920  0.1949 -0.1697
  194loPI   C3A 3097  14.543  14.194   9.211 -0.0427 -0.3465  0.1512
  194loPI   C4A 3098  14.455  13.921   8.957 -0.0647 -0.2123 -0.2962
  194loPI   C5A 3099  14.363  13.702   8.589  0.1564  0.2342  0.1535
  194loPI   C6A 3100  13.969  13.456   8.426  0.3344  0.0073 -0.1363
  194loPI   C1B 3101  14.290  14.407  10.247  0.0101  0.0572  0.0826
  194loPI   C2B 3102  14.252  14.472   9.799 -0.5036  0.2718 -0.0925
  194loPI   C3B 3103  14.098  14.527   9.416  0.0138  0.1771  0.1707
  194loPI   C4B 3104  13.749  14.603   9.203 -0.0099 -0.0320 -0.1025
  195loPI    C1 3105  16.181   2.158  10.685 -0.3732  0.1736 -0.0618
  195loPI    C2 3106  15.902   2.268  10.949 -0.0649  0.1947  0.2632
  195loPI    C3 3107  16.208   2.039  11.066 -0.0038  0.0774 -0.1140
  195loPI   PO4 3108  16.212   2.413  10.619 -0.1926  0.1405  0.0289
  195loPI   GL1 3109  16.104   2.356  10.197 -0.2971 -0.1082  0.2813
  195loPI   GL2 3110  16.297   2.222  10.143  0.1555  0.0236  0.2309
  195loPI   C1A 3111  16.001   2.605   9.843 -0.2153  0.1533 -0.1591
  195loPI   C2A 3112  15.869   2.451   9.462 -0.4138  0.2627 -0.1663
  195loPI   C3A 3113  15.933   2.435   8.947 -0.0882 -0.1159 -0.0960
  195loPI   C4A 3114  15.872   2.428   8.489  0.1585 -0.2462  0.4731
  195loPI   C5A 3115  15.902   2.594   8.024  0.0235 -0.0363  0.1231
  195loPI   C6A 3116  15.928   2.818   7.616 -0.2535 -0.0501 -0.2863
  195loPI   C1B 3117  16.228   2.066   9.734 -0.2785  0.0886  0.1365
  195loPI   C2B 3118  16.292   1.968   9.321  0.4267 -0.1633 -0.1498
  195loPI   C3B 3119  16.269   1.934   8.868  0.2264 -0.2665 -0.2312
  195loPI   C4B 3120  16.074   1.591   8.513 -0.0550 -0.3341 -0.2677
  196loPI    C1 3121   4.211   6.561  10.544 -0.0721 -0.2302  0.0136
  196loPI    C2 3122   4.469   6.445  10.827  0.1176 -0.0863 -0.0975
  196loPI    C3 3123   4.369   6.831  10.794  0.0190 -0.1170 -0.1643
  196loPI   PO4 3124   4.313   6.444  10.223 -0.1808  0.3467  0.2762
  196loPI   GL1 3125   4.544   6.521   9.884 -0.0168  0.0066 -0.1059
  196loPI   GL2 3126   4.421   6.826   9.836 -0.0418  0.0555  0.3383
  196loPI   C1A 3127   4.413   6.476   9.410  0.1064 -0.3068  0.1786
  196loPI   C2A 3128   4.305   6.464   9.010 -0.2399  0.2000 -0.0386
  196loPI   C3A 3129   4.444   6.585   8.612  0.2121 -0.0425 -0.0887
  196loPI   C4A 3130   4.501   6.640   8.248  0.1170  0.0309  0.5008
  196loPI   C5A 3131   4.443   6.362   7.944  0.0995  0.0984  0.1518
  196loPI   C6A 3132   4.131   6.239   7.629  0.0033  0.2277 -0.2352
  196loPI   C1B 3133   4.455   6.959   9.427 -0.1092 -0.1354  0.2069
  196loPI   C2B 3134   4.551   6.908   9.087  0.1353  0.0369  0.2187
  196loPI   C3B 3135   4.627   7.110   8.676  0.2277  0.0355  0.0730
  196loPI   C4B 3136   4.865   6.928   8.375  0.0272 -0.2205 -0.1658
  197loPI    C1 3137   7.397  10.731  10.554 -0.1192 -0.0167  0.2058
  197loPI    C2 3138   7.043  10.708  10.739 -0.0326 -0.0552  0.3680
  197loPI    C3 3139   7.382  10.664  10.948  0.0871  0.5664  0.3218
  197loPI   PO4 3140   7.425  10.620  10.396  0.1166 -0.1229  0.1000
  197loPI   GL1 3141   7.218  10.786   9.942 -0.3272  0.0960 -0.3276
  197loPI   GL2 3142   7.369  10.849   9.960  0.0600  0.1472 -0.1468
  197loPI   C1A 3143   7.275  10.500   9.603  0.0978  0.0705 -0.1476
  197loPI   C2A 3144   7.219  10.660   9.220 -0.2514  0.1178 -0.2487
  197loPI   C3A 3145   7.098  10.992   8.912  0.1014 -0.0862  0.1450
  197loPI   C4A 3146   7.136  11.385   8.589 -0.0672  0.0659 -0.0841
  197loPI   C5A 3147   7.253  11.866   8.521  0.2020  0.1139 -0.0699
  197loPI   C6A 3148   7.081  12.244   8.268  0.1881  0.1512  0.0729
  197loPI   C1B 3149   7.488  11.042   9.583 -0.1471  0.2111 -0.0416
  197loPI   C2B 3150   7.507  11.095   9.192 -0.0737  0.1416 -0.1983
  197loPI   C3B 3151   7.553  11.158   8.797  0.0191  0.0010  0.0871
  197loPI   C4B 3152   7.940  11.199   8.475 -0.0991 -0.0741 -0.0846
  198loPI    C1 3153  14.304   9.533  11.286  0.0355 -0.0423  0.0481
  198loPI    C2 3154  14.213   9.152  11.368 -0.0011 -0.0253  0.0866
  198loPI    C3 3155  14.571   9.298  11.470  0.1888 -0.1788 -0.3378
  198loPI   PO4 3156  14.171   9.591  11.096 -0.0649 -0.0202 -0.2840
  198loPI   GL1 3157  14.176   9.930  10.779  0.1222 -0.0004 -0.0050
  198loPI   GL2 3158  13.947  10.076  10.652  0.0471 -0.1026 -0.0325
  198loPI   C1A 3159  14.427   9.984  10.469 -0.1339 -0.2742 -0.0604
  198loPI   C2A 3160  14.335  10.131   9.994 -0.1077  0.0409 -0.0787
  198loPI   C3A 3161  14.279   9.996   9.535  0.0638 -0.0065  0.1473
  198loPI   C4A 3162  14.314   9.768   9.140  0.2604 -0.2517  0.2299
  198loPI   C5A 3163  14.444  10.033   8.747 -0.1025  0.0447  0.0054
  198loPI   C6A 3164  14.744  10.118   8.462 -0.0813  0.2047  0.0086
  198loPI   C1B 3165  13.907   9.797  10.270  0.2394  0.0153  0.2021
  198loPI   C2B 3166  13.899   9.809   9.804 -0.0449  0.2993 -0.1085
  198loPI   C3B 3167  13.842   9.803   9.285  0.1182  0.0278  0.2602
  198loPI   C4B 3168  13.822   9.931   8.894 -0.0022  0.0880 -0.0052
  199loPI    C1 3169  13.898   6.087  10.753  0.0993 -0.2290  0.1068
  199loPI    C2 3170  13.805   5.792  11.007 -0.0646 -0.2854 -0.0167
  199loPI    C3 3171  13.521   6.044  10.880  0.0435 -0.1728 -0.0374
  199loPI   PO4 3172  14.075   5.948  10.582  0.1698  0.3282  0.2317
  199loPI   GL1 3173  14.037   5.892  10.226  0.1913 -0.3092  0.4459
  199loPI   GL2 3174  14.107   5.747  10.043  0.0368  0.2030  0.1741
  199loPI   C1A 3175  14.074   6.240   9.898 -0.2333 -0.0937 -0.1480
  199loPI   C2A 3176  14.118   6.295   9.462  0.0085  0.1268 -0.2503
  199loPI   C3A 3177  13.967   6.151   9.051  0.1186 -0.0705 -0.2422
  199loPI   C4A 3178  14.067   5.776   8.802 -0.1618  0.0316 -0.1178
  199loPI   C5A 3179  14.454   5.701   8.487  0.0840 -0.1132 -0.0204
  199loPI   C6A 3180  14.765   5.399   8.387  0.0124  0.2106  0.0711
  199loPI   C1B 3181  13.906   5.786   9.572  0.0001 -0.4443  0.0581
  199loPI   C2B 3182  13.630   5.784   9.184  0.1435 -0.1586 -0.0013
  199loPI   C3B 3183  13.538   5.852   8.774 -0.1755  0.0491 -0.0570
  199loPI   C4B 3184  13.547   6.060   8.321  0.1218  0.0274 -0.2242
  200loPI    C1 3185   3.284   2.656  10.419 -0.0566  0.0595 -0.4481
  200loPI    C2 3186   2.958   2.424  10.415 -0.0478  0.0224  0.1062
  200loPI    C3 3187   3.320   2.260  10.461  0.0206  0.0950 -0.1533
  200loPI   PO4 3188   3.295   2.764  10.221 -0.2488  0.0382  0.2299
  200loPI   GL1 3189   3.520   2.806   9.909  0.1379 -0.1723  0.1529
  200loPI   GL2 3190   3.767   3.068   9.814  0.0001 -0.2575  0.0124
  200loPI   C1A 3191   3.233   3.079   9.526  0.2042  0.0578  0.6452
  200loPI   C2A 3192   3.178   3.081   9.129 -0.1866  0.1308  0.1777
  200loPI   C3A 3193   3.085   3.000   8.632 -0.1904 -0.1218 -0.0119
  200loPI   C4A 3194   2.863   3.004   8.221 -0.0119  0.1737  0.3308
  200loPI   C5A 3195   2.667   2.952   7.835  0.1066 -0.0075  0.2010
  200loPI   C6A 3196   2.386   2.877   7.494 -0.0184 -0.1328  0.0881
  200loPI   C1B 3197   3.787   3.247   9.320 -0.2430 -0.1585  0.1937
  200loPI   C2B 3198   4.062   3.212   8.836 -0.0586 -0.0956 -0.4187
  200loPI   C3B 3199   4.252   3.043   8.518  0.1937  0.4767 -0.1799
  200loPI   C4B 3200   4.365   3.130   8.039  0.2456  0.1633 -0.0766
  201loPI    C1 3201  10.649   5.352  10.661 -0.0027  0.2950  0.0335
  201loPI    C2 3202  10.249   5.354  10.641 -0.0099  0.0508  0.1264
  201loPI    C3 3203  10.432   5.234  10.976  0.1431 -0.1448 -0.0244
  201loPI   PO4 3204  10.658   5.648  10.584 -0.1595 -0.2029 -0.0473
  201loPI   GL1 3205  10.859   5.852  10.281  0.0109 -0.1637  0.0060
  201loPI   GL2 3206  10.944   5.565  10.203 -0.4038  0.1740 -0.1082
  201loPI   C1A 3207  10.913   5.979   9.919  0.0092 -0.3502  0.1706
  201loPI   C2A 3208  10.946   5.814   9.462  0.0035  0.1733  0.0977
  201loPI   C3A 3209  10.855   5.879   8.994 -0.1550 -0.2313  0.1012
  201loPI   C4A 3210  10.762   5.804   8.562  0.1511 -0.1558 -0.1305
  201loPI   C5A 3211  10.448   5.594   8.287 -0.1134 -0.2143 -0.1929
  201loPI   C6A 3212  10.161   5.538   8.089  0.1436  0.1899  0.3775
  201loPI   C1B 3213  10.904   5.480   9.817 -0.2268 -0.0185 -0.0262
  201loPI   C2B 3214  10.798   5.344   9.471  0.1978  0.1701 -0.0164
  201loPI   C3B 3215  10.789   5.374   8.970 -0.0758  0.2091  0.0854
  201loPI   C4B 3216  10.620   5.207   8.658  0.0997 -0.0053  0.1213
  202loPI    C1 3217  13.092  10.118  10.975  0.2525 -0.1119 -0.0525
  202loPI    C2 3218  12.713  10.005  11.035  0.1690  0.1310 -0.1103
  202loPI    C3 3219  12.996   9.906  11.300  0.0817 -0.1238 -0.1096
  202loPI   PO4 3220  13.113  10.092  10.660  0.1527  0.1425 -0.1955
  202loPI   GL1 3221  13.385  10.098  10.313  0.0630 -0.1338  0.1622
  202loPI   GL2 3222  13.409  10.426  10.361 -0.0435 -0.0192  0.0361
  202loPI   C1A 3223  13.393  10.073   9.855  0.1309  0.3736  0.0042
  202loPI   C2A 3224  13.446  10.024   9.477 -0.1022 -0.0049 -0.1735
  202loPI   C3A 3225  13.427  10.252   9.166 -0.0005  0.2113  0.0733
  202loPI   C4A 3226  13.399  10.270   8.788 -0.0835  0.2854 -0.1418
  202loPI   C5A 3227  13.561  10.403   8.415 -0.0671  0.2296  0.0179
  202loPI   C6A 3228  13.943  10.531   8.071 -0.0399  0.2796 -0.2866
  202loPI   C1B 3229  13.250  10.528   9.997  0.2735  0.0330  0.3751
  202loPI   C2B 3230  13.348  10.531   9.577 -0.5302  0.4272 -0.0059
  202loPI   C3B 3231  13.105  10.660   9.291  0.2221  0.0493  0.2537
  202loPI   C4B 3232  13.116  10.678   8.943 -0.0042 -0.0473  0.3493
  203loPI    C1 3233   7.433   5.472  10.460 -0.1424  0.0899 -0.1153
  203loPI    C2 3234   7.100   5.283  10.577 -0.1439 -0.0269 -0.3045
  203loPI    C3 3235   7.321   5.483  10.844 -0.2537 -0.1228 -0.1403
  203loPI   PO4 3236   7.566   5.253  10.253 -0.0189  0.0299  0.0787
  203loPI   GL1 3237   7.748   5.313   9.833  0.0650  0.1026 -0.3321
  203loPI   GL2 3238   7.987   5.592   9.854 -0.2507  0.0545  0.3303
  203loPI   C1A 3239   7.865   4.942   9.663  0.0194 -0.0181 -0.0391
  203loPI   C2A 3240   8.021   4.608   9.331  0.1208  0.2183 -0.0311
  203loPI   C3A 3241   8.197   4.618   8.927 -0.0357  0.2249 -0.0451
  203loPI   C4A 3242   8.188   4.475   8.542 -0.0313  0.0424  0.2046
  203loPI   C5A 3243   7.921   4.118   8.221 -0.2617  0.0189 -0.1777
  203loPI   C6A 3244   7.725   3.892   7.984 -0.1057 -0.0862  0.1332
  203loPI   C1B 3245   7.864   5.476   9.382  0.0558 -0.1046  0.2013
  203loPI   C2B 3246   8.019   5.609   8.914 -0.1560  0.2871 -0.0595
  203loPI   C3B 3247   8.148   5.350   8.468  0.1314 -0.1468 -0.2329
  203loPI   C4B 3248   8.486   5.017   8.225  0.0381 -0.0411 -0.2617
  204loPI    C1 3249   3.450   8.344  10.483  0.0322 -0.2147 -0.0561
  204loPI    C2 3250   3.349   8.279  10.865  0.1746 -0.1557 -0.0079
  204loPI    C3 3251   3.656   8.521  10.777  0.0002  0.0108 -0.1673
  204loPI   PO4 3252   3.237   8.304  10.400 -0.2268 -0.0545  0.3691
  204loPI   GL1 3253   3.005   8.005  10.214 -0.0966  0.1943 -0.2043
  204loPI   GL2 3254   2.646   8.062  10.192 -0.1059  0.1372  0.0248
  204loPI   C1A 3255   3.037   7.879   9.762  0.0477 -0.2423 -0.2975
  204loPI   C2A 3256   3.041   7.940   9.310  0.0655  0.3649  0.1447
  204loPI   C3A 3257   2.894   7.944   8.931  0.2988 -0.1474 -0.0227
  204loPI   C4A 3258   2.952   8.162   8.485  0.0999  0.1397  0.4086
  204loPI   C5A 3259   2.789   8.426   8.120  0.0167  0.0221 -0.0977
  204loPI   C6A 3260   2.764   8.738   7.743  0.0228 -0.0273  0.2524
  204loPI   C1B 3261   2.705   8.256   9.743  0.1266  0.0470 -0.1973
  204loPI   C2B 3262   2.747   8.337   9.355  0.0107 -0.0876 -0.1716
  204loPI   C3B 3263   2.775   8.393   8.946 -0.0894 -0.1537 -0.2195
  204loPI   C4B 3264   2.921   8.622   8.529 -0.2009 -0.0614 -0.0088
  205loPI    C1 3265   6.336   7.893  10.531 -0.1739  0.0794 -0.0420
  205loPI    C2 3266   6.624   7.737  10.760 -0.0024  0.2198 -0.1593
  205loPI    C3 3267   6.319   7.933  10.928  0.0079  0.1331 -0.0388
  205loPI   PO4 3268   6.441   7.670  10.296  0.1107 -0.4356 -0.0387
  205loPI   GL1 3269   6.493   7.691   9.989  0.1436  0.0773  0.1245
  205loPI   GL2 3270   6.496   8.046  10.014 -0.0963 -0.1869 -0.0667
  205loPI   C1A 3271   6.326   7.555   9.444  0.0201  0.1426 -0.1198
  205loPI   C2A 3272   6.345   7.568   8.977 -0.0096  0.0362  0.0687
  205loPI   C3A 3273   6.514   7.572   8.526 -0.0307 -0.1733 -0.1203
  205loPI   C4A 3274   6.785   7.264   8.274 -0.2024 -0.0021  0.1554
  205loPI   C5A 3275   6.703   6.849   8.050  0.0877 -0.0046 -0.2691
  205loPI   C6A 3276   6.753   6.452   7.822  0.0924 -0.2560  0.3242
  205loPI   C1B 3277   6.520   8.068   9.599  0.1737 -0.0986  0.1551
  205loPI   C2B 3278   6.560   7.993   9.286  0.0713  0.3648  0.2138
  205loPI   C3B 3279   6.679   7.944   8.882  0.0772 -0.1062 -0.0329
  205loPI   C4B 3280   6.746   8.165   8.554  0.2999  0.2016 -0.0702
  206loPI    C1 3281   1.691   1.921  10.303  0.1229 -0.1091  0.0527
  206loPI    C2 3282   1.398   2.148  10.455  0.1993 -0.0630  0.1323
  206loPI    C3 3283   1.549   1.847  10.670  0.0060 -0.2756 -0.0250
  206loPI   PO4 3284   1.829   2.011  10.186 -0.0943  0.3535  0.3354
  206loPI   GL1 3285   2.197   1.995   9.921 -0.2127 -0.2184  0.0548
  206loPI   GL2 3286   2.059   2.253   9.739 -0.1212 -0.1608 -0.0699
  206loPI   C1A 3287   2.235   1.682   9.643 -0.0245 -0.2146 -0.0173
  206loPI   C2A 3288   2.306   1.685   9.294 -0.3317 -0.0359  0.1287
  206loPI   C3A 3289   2.282   1.524   8.975 -0.1888  0.4017  0.0494
  206loPI   C4A 3290   2.268   1.690   8.663  0.1261 -0.2148 -0.0895
  206loPI   C5A 3291   2.357   1.904   8.286 -0.0893 -0.1068  0.1942
  206loPI   C6A 3292   2.100   2.218   7.969  0.3107 -0.0388  0.1903
  206loPI   C1B 3293   2.215   2.162   9.388 -0.0436  0.1195 -0.3871
  206loPI   C2B 3294   2.239   2.058   9.022  0.1812 -0.2503  0.2548
  206loPI   C3B 3295   2.605   2.050   8.721  0.0285  0.0803 -0.0073
  206loPI   C4B 3296   2.962   2.041   8.505 -0.3317 -0.2203 -0.0919
  207loPI    C1 3297  17.526   0.066  10.672 -0.0113 -0.1027 -0.0572
  207loPI    C2 3298  17.563  -0.138  11.014 -0.0931  0.0191  0.0249
  207loPI    C3 3299  17.460   0.249  11.021 -0.1009  0.0209 -0.1379
  207loPI   PO4 3300  17.385  -0.078  10.459  0.2660  0.2151 -0.1567
  207loPI   GL1 3301  17.158  -0.155  10.147 -0.0868 -0.0608  0.1550
  207loPI   GL2 3302  16.988  -0.468  10.178  0.1550 -0.0231 -0.2360
  207loPI   C1A 3303  17.395  -0.123   9.807  0.0410 -0.1130  0.0517
  207loPI   C2A 3304  17.507  -0.385   9.420 -0.1201 -0.0456 -0.1553
  207loPI   C3A 3305  17.601  -0.573   9.118 -0.0038  0.0238  0.0410
  207loPI   C4A 3306  17.584  -0.699   8.645  0.0823  0.0172 -0.2069
  207loPI   C5A 3307  17.594  -1.095   8.503  0.0523 -0.3156  0.0718
  207loPI   C6A 3308  17.563  -1.605   8.400  0.3427 -0.0695 -0.4077
  207loPI   C1B 3309  16.888  -0.245   9.734  0.2608  0.1074 -0.1825
  207loPI   C2B 3310  17.068  -0.175   9.318  0.0098  0.1180  0.1506
  207loPI   C3B 3311  17.013  -0.046   8.936  0.3139  0.0922  0.3722
  207loPI   C4B 3312  16.868   0.016   8.451  0.2659  0.3530  0.1927
  208loPI    C1 3313   8.977   8.817  10.784 -0.0307  0.1410 -0.1242
  208loPI    C2 3314   8.942   9.200  10.894 -0.0024  0.0423  0.2411
  208loPI    C3 3315   9.232   8.972  11.050 -0.0184 -0.1298  0.0255
  208loPI   PO4 3316   8.870   8.887  10.449  0.0073  0.0361  0.0834
  208loPI   GL1 3317   8.973   8.931   9.944 -0.0078  0.1499 -0.2677
  208loPI   GL2 3318   9.025   8.658   9.906 -0.1290  0.0929 -0.2677
  208loPI   C1A 3319   8.954   9.204   9.526 -0.2404  0.0704 -0.1070
  208loPI   C2A 3320   8.938   9.114   9.191  0.1147  0.1161  0.0811
  208loPI   C3A 3321   8.779   8.880   8.891  0.1795  0.1595  0.0187
  208loPI   C4A 3322   8.663   8.995   8.493  0.3606  0.1543  0.1104
  208loPI   C5A 3323   8.833   9.264   8.208 -0.1433 -0.1054 -0.1374
  208loPI   C6A 3324   9.073   9.418   7.911 -0.0548  0.0662 -0.0384
  208loPI   C1B 3325   8.879   8.662   9.491  0.3588  0.1440  0.0781
  208loPI   C2B 3326   9.149   8.641   9.150 -0.1574  0.0510  0.1873
  208loPI   C3B 3327   9.305   8.558   8.732  0.0603  0.1008  0.2547
  208loPI   C4B 3328   9.455   8.655   8.295 -0.1726 -0.0269  0.2662
  209loPI    C1 3329  16.426  17.700  10.717  0.1670  0.1127  0.2299
  209loPI    C2 3330  16.121  17.947  10.794  0.0368  0.0459 -0.0583
  209loPI    C3 3331  16.167  17.614  11.010 -0.1163  0.0378 -0.0374
  209loPI   PO4 3332  16.487  17.746  10.419  0.0384 -0.2148  0.3324
  209loPI   GL1 3333  16.441  17.767   9.943  0.1690 -0.3247 -0.1668
  209loPI   GL2 3334  16.479  18.077  10.098 -0.4041 -0.2362 -0.0452
  209loPI   C1A 3335  16.293  17.914   9.552 -0.1783  0.2721  0.2124
  209loPI   C2A 3336  16.170  17.829   9.213  0.1317 -0.0628  0.2787
  209loPI   C3A 3337  16.254  17.545   8.864 -0.1114  0.1374 -0.0835
  209loPI   C4A 3338  16.386  17.320   8.523 -0.0561  0.0233  0.2040
  209loPI   C5A 3339  16.311  16.948   8.339  0.0457 -0.0752 -0.0235
  209loPI   C6A 3340  16.368  16.534   8.154  0.4258 -0.0110  0.2978
  209loPI   C1B 3341  16.527  18.347   9.662  0.0371  0.0037 -0.0163
  209loPI   C2B 3342  16.622  18.229   9.265  0.2389 -0.1262 -0.3542
  209loPI   C3B 3343  16.512  18.224   8.832 -0.2409 -0.2636 -0.0760
  209loPI   C4B 3344  16.345  17.956   8.509 -0.0640 -0.0759 -0.2118
  210loPI    C1 3345  16.249  15.581  10.952 -0.1756 -0.2212 -0.1838
  210loPI    C2 3346  16.065  15.597  11.307  0.0546  0.0565 -0.0730
  210loPI    C3 3347  16.210  15.250  11.172  0.2054 -0.0015  0.2310
  210loPI   PO4 3348  16.132  15.805  10.808 -0.0853 -0.1067  0.5111
  210loPI   GL1 3349  15.990  15.726  10.449 -0.1989  0.1561  0.0129
  210loPI   GL2 3350  15.766  15.463  10.520  0.0504 -0.2740 -0.0184
  210loPI   C1A 3351  16.048  15.999  10.013 -0.0751 -0.0253  0.1087
  210loPI   C2A 3352  15.990  15.966   9.565 -0.2159  0.2859 -0.0136
  210loPI   C3A 3353  15.773  16.243   9.190 -0.0278 -0.3175  0.2473
  210loPI   C4A 3354  15.736  16.245   8.718 -0.0274 -0.0371 -0.1738
  210loPI   C5A 3355  15.674  15.900   8.444 -0.0015 -0.4537 -0.0269
  210loPI   C6A 3356  15.570  15.512   8.575  0.1403 -0.0543  0.0892
  210loPI   C1B 3357  15.655  15.346  10.134 -0.0763  0.2313  0.1144
  210loPI   C2B 3358  15.732  15.537   9.798  0.2339  0.0539 -0.0843
  210loPI   C3B 3359  15.707  15.599   9.388  0.1266 -0.3780 -0.0044
  210loPI   C4B 3360  15.591  15.822   8.965 -0.0504 -0.1614  0.1184
  211loPI    C1 3361  13.264   0.874  10.735 -0.1228 -0.0996  0.3283
  211loPI    C2 3362  13.410   0.850  11.106  0.1758 -0.2276  0.2061
  211loPI    C3 3363  13.632   0.729  10.796  0.0300  0.1176 -0.0395
  211loPI   PO4 3364  13.178   1.051  10.723 -0.1079  0.0030 -0.0147
  211loPI   GL1 3365  12.946   1.217  10.367 -0.0557 -0.3316 -0.1836
  211loPI   GL2 3366  13.067   1.532  10.169 -0.0455  0.0671  0.1083
  211loPI   C1A 3367  12.728   1.115  10.007  0.0148  0.0407 -0.1901
  211loPI   C2A 3368  12.729   1.157   9.547 -0.0529  0.1935 -0.1255
  211loPI   C3A 3369  12.749   1.060   9.179 -0.0217 -0.0843  0.1225
  211loPI   C4A 3370  12.870   1.228   8.715  0.0201 -0.0487  0.1928
  211loPI   C5A 3371  12.890   1.143   8.249 -0.0045  0.2514 -0.0893
  211loPI   C6A 3372  12.771   1.083   7.762 -0.0144  0.0091 -0.0355
  211loPI   C1B 3373  12.988   1.471   9.775 -0.5630 -0.1649 -0.0333
  211loPI   C2B 3374  12.975   1.584   9.412 -0.0931  0.2140  0.1348
  211loPI   C3B 3375  12.963   1.663   8.968  0.2966 -0.2219 -0.1605
  211loPI   C4B 3376  12.926   1.745   8.533  0.1547 -0.0097 -0.0861
  212loPI    C1 3377  13.057  11.732  10.874 -0.2438 -0.1860 -0.1897
  212loPI    C2 3378  12.819  11.423  10.962 -0.2999 -0.0561  0.1283
  212loPI    C3 3379  12.946  11.666  11.253 -0.0860  0.0988 -0.0912
  212loPI   PO4 3380  13.297  11.597  10.696  0.1487 -0.0017  0.1115
  212loPI   GL1 3381  13.325  11.446  10.289 -0.0317  0.0577  0.1289
  212loPI   GL2 3382  13.741  11.531  10.278  0.0395  0.0272  0.1884
  212loPI   C1A 3383  13.289  11.307   9.814 -0.1233  0.1308  0.0455
  212loPI   C2A 3384  13.428  11.286   9.382  0.0270  0.3325  0.3187
  212loPI   C3A 3385  13.374  11.259   8.941 -0.0795  0.1798  0.0421
  212loPI   C4A 3386  13.412  11.023   8.531  0.1971 -0.3402 -0.3518
  212loPI   C5A 3387  13.678  10.920   8.298 -0.0054  0.0709  0.2987
  212loPI   C6A 3388  13.859  11.066   7.861 -0.0657 -0.1970 -0.1103
  212loPI   C1B 3389  13.860  11.446   9.865  0.0797  0.0598 -0.0482
  212loPI   C2B 3390  13.863  11.458   9.493  0.2293 -0.0333 -0.1005
  212loPI   C3B 3391  13.896  11.314   9.056 -0.0987 -0.0899  0.1114
  212loPI   C4B 3392  13.807  11.350   8.717 -0.1319  0.1820 -0.3007
  213loPI    C1 3393  16.710   8.230  10.674  0.0438  0.2949  0.1739
  213loPI    C2 3394  16.403   8.019  10.819  0.0869  0.0577 -0.0734
  213loPI    C3 3395  16.772   7.959  10.962  0.0529  0.1848  0.0692
  213loPI   PO4 3396  16.656   8.230  10.351 -0.2234 -0.0243  0.0182
  213loPI   GL1 3397  16.470   8.214   9.993 -0.2309 -0.0811 -0.0054
  213loPI   GL2 3398  16.233   8.410  10.102  0.0523 -0.1118 -0.3159
  213loPI   C1A 3399  16.580   8.223   9.559 -0.2630  0.1682 -0.1102
  213loPI   C2A 3400  16.515   8.240   9.180 -0.2347 -0.1704 -0.1830
  213loPI   C3A 3401  16.593   8.063   8.874 -0.1839  0.1294 -0.3960
  213loPI   C4A 3402  16.808   7.900   8.445  0.1762 -0.0370 -0.0047
  213loPI   C5A 3403  17.110   7.498   8.256  0.1411 -0.0701 -0.0478
  213loPI   C6A 3404  17.183   7.464   7.818  0.1747  0.2620  0.0764
  213loPI   C1B 3405  16.144   8.437   9.726  0.0488  0.5299 -0.2273
  213loPI   C2B 3406  16.169   8.542   9.334 -0.2119 -0.0503 -0.1340
  213loPI   C3B 3407  16.211   8.490   8.828  0.0214  0.0899  0.4390
  213loPI   C4B 3408  16.217   8.209   8.401 -0.0528  0.2486 -0.0154
  214loPI    C1 3409   0.135  12.852  11.011 -0.3563 -0.1742  0.0739
  214loPI    C2 3410   0.503  12.798  11.158 -0.2210 -0.0658 -0.2171
  214loPI    C3 3411   0.221  12.972  11.383 -0.0600 -0.0349 -0.0366
  214loPI   PO4 3412   0.219  13.016  10.738  0.0141 -0.0892 -0.2424
  214loPI   GL1 3413   0.268  12.912  10.276 -0.3674 -0.2574 -0.2903
  214loPI   GL2 3414   0.154  13.148  10.182 -0.1399 -0.1349 -0.3959
  214loPI   C1A 3415   0.199  12.550   9.878 -0.0808  0.1695  0.0981
  214loPI   C2A 3416   0.345  12.337   9.595  0.2453 -0.1166  0.3885
  214loPI   C3A 3417   0.519  12.484   9.190  0.0644 -0.1442 -0.0231
  214loPI   C4A 3418   0.829  12.468   8.798  0.0767  0.0015  0.0979
  214loPI   C5A 3419   0.929  12.860   8.535 -0.0331  0.5315 -0.1346
  214loPI   C6A 3420   0.833  13.243   8.257  0.1463  0.0003  0.1486
  214loPI   C1B 3421   0.320  13.070   9.814 -0.1730 -0.1185 -0.1738
  214loPI   C2B 3422   0.268  12.919   9.399  0.3110  0.1291  0.0165
  214loPI   C3B 3423   0.301  12.958   9.068  0.3323 -0.2394  0.1867
  214loPI   C4B 3424   0.295  12.790   8.637 -0.4087  0.1264 -0.0180
  215loPI    C1 3425   8.090  14.185  10.580 -0.0259  0.0085 -0.0879
  215loPI    C2 3426   7.779  14.406  10.699  0.1223  0.0270  0.2776
  215loPI    C3 3427   8.150  14.553  10.725  0.1726 -0.0290 -0.0724
  215loPI   PO4 3428   8.030  14.100  10.298 -0.2272 -0.0346 -0.0265
  215loPI   GL1 3429   8.242  13.958   9.958 -0.0178 -0.0325 -0.0832
  215loPI   GL2 3430   8.063  13.717   9.709  0.0845 -0.0132 -0.2651
  215loPI   C1A 3431   8.537  14.032   9.742 -0.1034  0.2603  0.0330
  215loPI   C2A 3432   8.622  14.178   9.395 -0.1456  0.2202 -0.2016
  215loPI   C3A 3433   8.687  14.403   9.104 -0.1457  0.2520  0.0877
  215loPI   C4A 3434   8.671  14.390   8.815 -0.1214 -0.1204  0.1878
  215loPI   C5A 3435   8.833  14.528   8.477  0.0683  0.0500  0.3217
  215loPI   C6A 3436   9.003  14.715   8.106 -0.1703  0.1004 -0.0717
  215loPI   C1B 3437   8.245  13.849   9.371  0.0335 -0.0598  0.1605
  215loPI   C2B 3438   8.524  13.881   8.967  0.2285 -0.4511 -0.1679
  215loPI   C3B 3439   8.665  13.943   8.593  0.5017  0.1244  0.0613
  215loPI   C4B 3440   8.539  14.061   8.103 -0.0598  0.2793 -0.0105
  216loPI    C1 3441   9.219  16.879  10.344 -0.4044  0.2270 -0.0499
  216loPI    C2 3442   9.238  16.512  10.187  0.0937  0.1890  0.0811
  216loPI    C3 3443   9.042  16.572  10.530  0.0454  0.0385  0.0806
  216loPI   PO4 3444   9.150  17.007  10.133 -0.1849 -0.2634 -0.0806
  216loPI   GL1 3445   9.562  17.119  10.012 -0.0709  0.0557 -0.1967
  216loPI   GL2 3446   9.504  16.774   9.833  0.3946 -0.1286  0.0373
  216loPI   C1A 3447   9.512  17.350   9.693  0.0548 -0.1550  0.1544
  216loPI   C2A 3448   9.415  17.482   9.386  0.1296 -0.0755  0.0215
  216loPI   C3A 3449   9.532  17.543   9.000 -0.1405  0.1936 -0.1129
  216loPI   C4A 3450   9.690  17.513   8.541 -0.3416  0.0318 -0.0299
  216loPI   C5A 3451   9.597  17.445   8.109  0.0253  0.0097 -0.0249
  216loPI   C6A 3452   9.500  17.742   7.858  0.0285  0.0703  0.1578
  216loPI   C1B 3453   9.463  16.862   9.475 -0.0976  0.2078 -0.2552
  216loPI   C2B 3454   9.473  17.044   9.127  0.1736  0.2010 -0.0090
  216loPI   C3B 3455   9.471  16.967   8.728  0.1568 -0.1760 -0.0808
  216loPI   C4B 3456   9.343  17.148   8.450  0.0365  0.0959  0.2360
  217loPI    C1 3457  13.781   3.302  10.871  0.1986  0.0196  0.1065
  217loPI    C2 3458  13.429   3.489  10.910  0.2482  0.1473 -0.0475
  217loPI    C3 3459  13.600   3.316  11.228  0.0135  0.0233  0.0136
  217loPI   PO4 3460  13.716   3.172  10.668  0.0131 -0.0402  0.2774
  217loPI   GL1 3461  13.630   3.172  10.139  0.1707  0.1982  0.0571
  217loPI   GL2 3462  13.356   3.212  10.071  0.1735  0.0505 -0.0816
  217loPI   C1A 3463  13.814   3.312   9.848  0.0566 -0.1332  0.1384
  217loPI   C2A 3464  14.117   3.334   9.539 -0.1059  0.3603 -0.0006
  217loPI   C3A 3465  14.369   3.455   9.130 -0.1525  0.3004 -0.0571
  217loPI   C4A 3466  14.350   3.367   8.728 -0.0698 -0.2028  0.0472
  217loPI   C5A 3467  14.322   3.380   8.226 -0.0561 -0.0228 -0.0062
  217loPI   C6A 3468  14.585   3.314   7.940  0.0985  0.3345 -0.1775
  217loPI   C1B 3469  13.342   3.413   9.739  0.1533  0.2124  0.3903
  217loPI   C2B 3470  13.409   3.624   9.424 -0.0232 -0.2914 -0.1707
  217loPI   C3B 3471  13.426   3.546   8.985 -0.0997 -0.0248  0.0692
  217loPI   C4B 3472  13.373   3.698   8.517 -0.0720  0.1127 -0.1065
  218loPI    C1 3473  17.193  13.655  10.537 -0.0994  0.0299 -0.0314
  218loPI    C2 3474  17.046  13.525  10.886 -0.0751  0.1063  0.0075
  218loPI    C3 3475  16.883  13.843  10.706  0.0512  0.2004  0.0578
  218loPI   PO4 3476  17.289  13.384  10.433  0.0195  0.1021  0.2189
  218loPI   GL1 3477  17.176  13.297  10.017  0.0923 -0.2311 -0.1621
  218loPI   GL2 3478  17.260  13.592  10.016  0.2544 -0.1668 -0.2640
  218loPI   C1A 3479  17.051  13.248   9.672 -0.1200  0.2514  0.4931
  218loPI   C2A 3480  16.918  13.479   9.342  0.0870  0.0954  0.1819
  218loPI   C3A 3481  16.972  13.487   8.928 -0.0035  0.1219 -0.0093
  218loPI   C4A 3482  17.233  13.522   8.676  0.2574  0.0128  0.1841
  218loPI   C5A 3483  17.335  13.222   8.312 -0.1976 -0.3592  0.0497
  218loPI   C6A 3484  16.918  13.140   8.064  0.1336 -0.4461 -0.4204
  218loPI   C1B 3485  17.418  13.611   9.504 -0.0633  0.0785  0.3851
  218loPI   C2B 3486  17.588  13.690   9.144  0.0644 -0.0039 -0.1822
  218loPI   C3B 3487  17.704  13.791   8.800  0.0441  0.0045 -0.2161
  218loPI   C4B 3488  17.630  13.871   8.349  0.1581 -0.2261 -0.0423
  219loPI    C1 3489  17.010  11.159  10.525  0.1078 -0.3825 -0.0472
  219loPI    C2 3490  17.259  11.081  10.828 -0.0083 -0.1562  0.1095
  219loPI    C3 3491  16.910  11.263  10.898 -0.0910 -0.2130 -0.1460
  219loPI   PO4 3492  17.142  11.345  10.384 -0.0077  0.0872  0.0229
  219loPI   GL1 3493  17.424  11.421  10.146  0.2403 -0.0137  0.3441
  219loPI   GL2 3494  17.409  11.638   9.984 -0.1381  0.2891 -0.0844
  219loPI   C1A 3495  17.194  11.270   9.686 -0.0684  0.3197  0.1739
  219loPI   C2A 3496  17.140  11.344   9.330 -0.1550 -0.0970  0.1372
  219loPI   C3A 3497  17.059  11.189   8.895  0.0081 -0.1200  0.2180
  219loPI   C4A 3498  16.895  11.163   8.474 -0.0611  0.0187 -0.0602
  219loPI   C5A 3499  16.602  11.321   8.162 -0.2161 -0.2067 -0.0828
  219loPI   C6A 3500  16.304  11.220   7.984  0.2420  0.0246  0.1122
  219loPI   C1B 3501  17.218  11.823   9.650  0.1573 -0.4316  0.1848
  219loPI   C2B 3502  17.091  11.857   9.203 -0.0949  0.1767 -0.2130
  219loPI   C3B 3503  17.098  11.918   8.854  0.2057  0.0418 -0.0485
  219loPI   C4B 3504  16.793  11.812   8.513 -0.0397 -0.0293  0.0164
  220loPI    C1 3505  14.948   0.948  11.163 -0.0215  0.0005  0.0915
  220loPI    C2 3506  15.193   1.186  11.372 -0.0139 -0.2153  0.3335
  220loPI    C3 3507  14.796   1.231  11.401 -0.0096 -0.0612  0.1728
  220loPI   PO4 3508  15.118   0.926  10.951 -0.1087 -0.0866  0.0337
  220loPI   GL1 3509  15.074   0.661  10.705 -0.0619 -0.0051  0.0226
  220loPI   GL2 3510  14.972   0.291  10.672 -0.0153 -0.0726  0.2878
  220loPI   C1A 3511  15.049   0.771  10.294  0.3316  0.4048 -0.1346
  220loPI   C2A 3512  14.941   0.792   9.834  0.1930 -0.1581  0.2263
  220loPI   C3A 3513  14.964   0.869   9.365  0.1913  0.0342  0.1536
  220loPI   C4A 3514  14.744   0.596   8.995 -0.0074 -0.1420 -0.0505
  220loPI   C5A 3515  14.393   0.531   8.567 -0.1201 -0.1711 -0.1820
  220loPI   C6A 3516  14.083   0.747   8.206 -0.0621 -0.1518 -0.4961
  220loPI   C1B 3517  14.670   0.397  10.236  0.3385 -0.2966  0.2254
  220loPI   C2B 3518  14.521   0.478   9.818  0.3162  0.2195 -0.1485
  220loPI   C3B 3519  14.554   0.285   9.335 -0.1987 -0.2705 -0.2866
  220loPI   C4B 3520  14.267   0.127   9.071 -0.1634 -0.0574 -0.1979
  221loPI    C1 3521  14.834   2.365  10.714  0.1124  0.0636  0.1319
  221loPI    C2 3522  14.520   2.613  10.732  0.0627 -0.0013  0.1638
  221loPI    C3 3523  14.809   2.636  11.008  0.0059 -0.0484  0.2273
  221loPI   PO4 3524  14.863   2.295  10.484  0.1191  0.1608 -0.1249
  221loPI   GL1 3525  15.146   2.090  10.221  0.1384  0.1334  0.2266
  221loPI   GL2 3526  14.954   2.277   9.993 -0.2495 -0.0137  0.1484
  221loPI   C1A 3527  15.260   1.820   9.806 -0.0448  0.0893  0.1310
  221loPI   C2A 3528  15.187   1.739   9.339 -0.1462  0.0039  0.0409
  221loPI   C3A 3529  15.275   1.806   8.881  0.0275  0.1997  0.0031
  221loPI   C4A 3530  15.330   1.741   8.466  0.0721 -0.1477  0.1684
  221loPI   C5A 3531  15.303   1.757   8.079  0.0073 -0.1214  0.0002
  221loPI   C6A 3532  15.067   2.141   7.857  0.1570 -0.1650  0.0245
  221loPI   C1B 3533  14.933   2.188   9.542 -0.0736  0.2217 -0.1387
  221loPI   C2B 3534  14.799   2.153   9.178 -0.0011  0.1544 -0.1621
  221loPI   C3B 3535  14.905   2.129   8.758 -0.2028  0.0806 -0.2334
  221loPI   C4B 3536  14.994   2.100   8.351 -0.4709 -0.1775  0.0128
  222loPI    C1 3537  10.703  15.736  10.720  0.0263  0.2487 -0.0131
  222loPI    C2 3538  10.415  15.628  10.976  0.0826  0.1227 -0.0023
  222loPI    C3 3539  10.756  15.785  11.114  0.1547 -0.0412  0.0079
  222loPI   PO4 3540  10.739  15.568  10.557 -0.1155  0.0422  0.1055
  222loPI   GL1 3541  10.703  15.403  10.096  0.1803  0.2989 -0.2100
  222loPI   GL2 3542  10.382  15.500   9.877 -0.2285  0.2460  0.0371
  222loPI   C1A 3543  10.886  15.652   9.827  0.0077  0.3942  0.0477
  222loPI   C2A 3544  10.904  15.662   9.341 -0.0069 -0.1454  0.0942
  222loPI   C3A 3545  11.224  15.662   9.158 -0.1747 -0.0638  0.1129
  222loPI   C4A 3546  11.431  15.454   8.901 -0.1282 -0.2663 -0.1988
  222loPI   C5A 3547  11.564  15.070   8.725  0.0045  0.0492  0.4270
  222loPI   C6A 3548  11.534  14.535   8.720  0.0710 -0.0356  0.2361
  222loPI   C1B 3549  10.400  15.628   9.465 -0.3250  0.1640  0.0173
  222loPI   C2B 3550  10.418  15.749   9.040 -0.0437  0.2384  0.0372
  222loPI   C3B 3551  10.271  15.708   8.568 -0.3136 -0.0388 -0.0232
  222loPI   C4B 3552  10.193  15.886   8.146  0.1825  0.1999 -0.1531
  223loPI    C1 3553   2.487  11.835  10.904 -0.0019  0.2457 -0.0796
  223loPI    C2 3554   2.259  11.567  11.095  0.0611  0.0357 -0.2939
  223loPI    C3 3555   2.143  11.949  11.073 -0.0505  0.0197 -0.0221
  223loPI   PO4 3556   2.524  11.768  10.681  0.0826 -0.3211 -0.0308
  223loPI   GL1 3557   2.555  11.681  10.285 -0.1652  0.3325  0.4611
  223loPI   GL2 3558   2.327  11.355  10.122 -0.0572 -0.0587 -0.0712
  223loPI   C1A 3559   2.524  11.724   9.789  0.0526 -0.0828  0.0348
  223loPI   C2A 3560   2.311  11.720   9.525  0.0329 -0.0008  0.0749
  223loPI   C3A 3561   2.055  11.532   9.177 -0.1407 -0.0188 -0.2589
  223loPI   C4A 3562   2.175  11.805   8.812  0.0406 -0.3593  0.4981
  223loPI   C5A 3563   2.040  12.093   8.478 -0.0988 -0.0184  0.4548
  223loPI   C6A 3564   2.125  12.420   8.274  0.1191  0.0888  0.4638
  223loPI   C1B 3565   2.228  11.192   9.719  0.0830  0.1580 -0.2368
  223loPI   C2B 3566   2.141  11.101   9.347  0.1679  0.0823  0.2891
  223loPI   C3B 3567   2.276  11.142   8.921  0.2165 -0.0803  0.0786
  223loPI   C4B 3568   2.276  11.023   8.433  0.1335  0.0393 -0.1862
  224loPI    C1 3569   2.650  12.711  10.891 -0.0982  0.1155  0.0437
  224loPI    C2 3570   2.487  12.633  11.248 -0.2404 -0.0030 -0.0464
  224loPI    C3 3571   2.597  12.332  11.008 -0.0485  0.0764 -0.0593
  224loPI   PO4 3572   2.619  12.956  10.821  0.2373  0.1190 -0.0557
  224loPI   GL1 3573   2.642  13.041  10.355 -0.1358 -0.1319  0.0010
  224loPI   GL2 3574   2.986  12.981  10.488 -0.0244  0.0760  0.1361
  224loPI   C1A 3575   2.943  13.289  10.072  0.2169 -0.0243  0.1142
  224loPI   C2A 3576   3.111  13.435   9.718 -0.0035 -0.0306  0.0769
  224loPI   C3A 3577   3.179  13.355   9.287 -0.2702  0.0768  0.0522
  224loPI   C4A 3578   3.241  13.256   8.843  0.1824  0.5142 -0.2986
  224loPI   C5A 3579   3.189  13.350   8.437 -0.2399 -0.3789  0.0973
  224loPI   C6A 3580   3.267  13.594   8.099  0.0124  0.0625  0.0844
  224loPI   C1B 3581   2.994  12.779   9.988  0.3203 -0.1558  0.3590
  224loPI   C2B 3582   3.072  12.883   9.512  0.1698  0.0876 -0.1100
  224loPI   C3B 3583   3.049  12.842   9.063 -0.2929 -0.0365  0.1344
  224loPI   C4B 3584   2.844  12.981   8.612  0.0457  0.2795 -0.0926
  225loPI    C1 3585  17.237   3.855  10.639  0.0053 -0.2527 -0.1716
  225loPI    C2 3586  17.147   4.065  10.310 -0.0994  0.0392  0.0386
  225loPI    C3 3587  16.908   3.767  10.430  0.1421 -0.3256 -0.3588
  225loPI   PO4 3588  17.469   3.722  10.552 -0.4107  0.3860  0.2267
  225loPI   GL1 3589  17.547   3.692  10.184  0.0529  0.2491  0.1874
  225loPI   GL2 3590  17.306   3.526  10.137 -0.0755 -0.0555 -0.3238
  225loPI   C1A 3591  17.811   3.667   9.797 -0.1307 -0.4260 -0.0243
  225loPI   C2A 3592  17.750   3.597   9.391  0.0994 -0.1151 -0.1682
  225loPI   C3A 3593  17.940   3.705   8.898  0.3855  0.0517 -0.0368
  225loPI   C4A 3594  17.922   3.740   8.448 -0.3021 -0.0321 -0.0114
  225loPI   C5A 3595  17.731   3.510   8.152 -0.0144 -0.2551  0.0564
  225loPI   C6A 3596  17.484   3.300   7.831  0.1036  0.0211  0.2663
  225loPI   C1B 3597  17.429   3.328   9.783 -0.3025 -0.3845 -0.3528
  225loPI   C2B 3598  17.360   3.270   9.446 -0.1076 -0.0818 -0.1369
  225loPI   C3B 3599  17.482   3.192   9.022 -0.2426 -0.0759  0.1293
  225loPI   C4B 3600  17.584   3.375   8.636  0.1530 -0.1183 -0.0691
  226loPI    C1 3601   0.612   2.931  10.751  0.0471 -0.0678 -0.1302
  226loPI    C2 3602   0.789   2.684  11.011 -0.0996 -0.1467 -0.1042
  226loPI    C3 3603   0.390   2.698  10.989 -0.0886 -0.0940 -0.2811
  226loPI   PO4 3604   0.699   2.914  10.515 -0.1716 -0.0686 -0.2336
  226loPI   GL1 3605   0.525   3.053  10.066 -0.0467  0.1121  0.1974
  226loPI   GL2 3606   0.723   2.889   9.946  0.0326 -0.0292  0.0727
  226loPI   C1A 3607   0.356   3.065   9.596 -0.1770  0.0283  0.4010
  226loPI   C2A 3608   0.361   2.930   9.128 -0.0506 -0.3048 -0.1054
  226loPI   C3A 3609   0.251   2.858   8.685 -0.2958  0.0613 -0.0069
  226loPI   C4A 3610   0.264   3.028   8.235  0.1647  0.1498 -0.0791
  226loPI   C5A 3611   0.144   3.271   7.899 -0.3516 -0.1356 -0.0144
  226loPI   C6A 3612  -0.146   3.288   7.724  0.1278 -0.0769 -0.4147
  226loPI   C1B 3613   0.855   2.955   9.470 -0.2008 -0.0133  0.4687
  226loPI   C2B 3614   0.864   2.961   9.116 -0.1992  0.3219  0.0713
  226loPI   C3B 3615   0.949   2.965   8.761 -0.0731 -0.0225  0.0402
  226loPI   C4B 3616   0.751   2.952   8.302  0.1126  0.2233 -0.0395
  227loPI    C1 3617  16.755   5.718  10.511  0.0141 -0.0820 -0.1187
  227loPI    C2 3618  16.433   5.918  10.384  0.0275 -0.0089 -0.0385
  227loPI    C3 3619  16.629   6.041  10.710 -0.0335 -0.2216  0.0805
  227loPI   PO4 3620  16.766   5.571  10.332  0.0894 -0.1167 -0.2313
  227loPI   GL1 3621  16.699   5.556   9.981  0.0160  0.2891  0.2446
  227loPI   GL2 3622  16.375   5.617   9.924 -0.0274 -0.0717 -0.0725
  227loPI   C1A 3623  16.949   5.450   9.673  0.3002  0.0039 -0.0440
  227loPI   C2A 3624  17.113   5.444   9.279  0.0248 -0.0424 -0.0156
  227loPI   C3A 3625  17.039   5.418   8.930  0.2534 -0.1618 -0.2446
  227loPI   C4A 3626  17.003   5.405   8.462  0.0899  0.2983 -0.0818
  227loPI   C5A 3627  16.879   5.229   8.066 -0.0100 -0.2056 -0.1612
  227loPI   C6A 3628  16.753   5.037   7.719  0.0194  0.0594  0.2231
  227loPI   C1B 3629  16.453   5.604   9.516  0.2229  0.1742  0.0016
  227loPI   C2B 3630  16.524   5.662   9.041 -0.0301  0.2716  0.1283
  227loPI   C3B 3631  16.376   5.828   8.659 -0.1627  0.1204 -0.2873
  227loPI   C4B 3632  16.400   6.027   8.310  0.3321 -0.1498 -0.0965
  228loPI    C1 3633   6.549   5.558   9.965  0.0323  0.2399 -0.2923
  228loPI    C2 3634   6.609   5.827  10.255 -0.0562 -0.1851  0.1330
  228loPI    C3 3635   6.867   5.525  10.204 -0.0554 -0.1295 -0.2196
  228loPI   PO4 3636   6.497   5.692   9.689 -0.1119 -0.2410 -0.3576
  228loPI   GL1 3637   6.674   5.921   9.407 -0.2259 -0.1264  0.1018
  228loPI   GL2 3638   6.647   5.690   9.139 -0.1690  0.1478 -0.0962
  228loPI   C1A 3639   6.923   6.287   9.359  0.4323 -0.1271 -0.0977
  228loPI   C2A 3640   6.832   6.463   9.045 -0.1661 -0.1870  0.2343
  228loPI   C3A 3641   6.874   6.292   8.676 -0.2469 -0.1325 -0.1012
  228loPI   C4A 3642   6.922   6.415   8.274  0.0201 -0.1012  0.1522
  228loPI   C5A 3643   7.194   6.723   7.956 -0.1969  0.2549  0.1088
  228loPI   C6A 3644   7.529   6.919   7.834  0.1033  0.2107  0.2651
  228loPI   C1B 3645   6.963   5.872   8.941  0.0803 -0.1769 -0.1070
  228loPI   C2B 3646   7.218   5.944   8.669  0.0947 -0.1963  0.0913
  228loPI   C3B 3647   7.225   6.006   8.216 -0.0016  0.0459 -0.0876
  228loPI   C4B 3648   7.158   6.182   7.898 -0.0351  0.0579  0.5802
  229loPI    C1 3649   1.587  17.945  10.814  0.0113 -0.1330 -0.1337
  229loPI    C2 3650   1.871  17.670  10.875  0.1395  0.0719  0.2246
  229loPI    C3 3651   1.501  17.611  11.016  0.0777 -0.0634  0.0111
  229loPI   PO4 3652   1.562  17.976  10.574 -0.1963 -0.0858  0.3268
  229loPI   GL1 3653   1.265  18.127  10.292 -0.2009 -0.0957  0.2044
  229loPI   GL2 3654   1.050  18.156  10.470  0.2983 -0.3383  0.1131
  229loPI   C1A 3655   1.068  18.120   9.952 -0.1371 -0.0048 -0.0158
  229loPI   C2A 3656   1.275  18.211   9.558  0.1141 -0.0067 -0.4615
  229loPI   C3A 3657   1.290  18.055   9.170 -0.0289  0.3842  0.2903
  229loPI   C4A 3658   1.328  18.156   8.760  0.0150  0.1708  0.1195
  229loPI   C5A 3659   1.375  18.083   8.289  0.0062  0.2153  0.3207
  229loPI   C6A 3660   1.351  17.880   7.867 -0.1343  0.1797 -0.2190
  229loPI   C1B 3661   0.709  18.316  10.198  0.2704 -0.0461  0.0912
  229loPI   C2B 3662   0.383  18.488  10.062 -0.0559 -0.2277  0.0301
  229loPI   C3B 3663   0.272  18.627   9.636  0.1002  0.2274  0.0823
  229loPI   C4B 3664  -0.153  18.545   9.448  0.2434 -0.0716 -0.0178
  230loPI    C1 3665   2.475   0.919  10.780 -0.0780 -0.1537  0.0757
  230loPI    C2 3666   2.704   0.647  10.964  0.0644 -0.1764 -0.1320
  230loPI    C3 3667   2.632   0.999  11.139  0.4060 -0.0995 -0.1394
  230loPI   PO4 3668   2.263   0.683  10.691 -0.1173 -0.1542  0.6262
  230loPI   GL1 3669   2.100   0.512  10.352 -0.0335  0.0471  0.1359
  230loPI   GL2 3670   2.225   0.855  10.164  0.2000 -0.1807  0.0919
  230loPI   C1A 3671   2.076   0.443   9.912 -0.0189 -0.0453 -0.2832
  230loPI   C2A 3672   2.256   0.221   9.581 -0.0072 -0.1662  0.0322
  230loPI   C3A 3673   2.280   0.203   9.090 -0.2333 -0.0727 -0.3762
  230loPI   C4A 3674   2.263   0.201   8.588  0.0963 -0.2157 -0.0312
  230loPI   C5A 3675   2.422   0.252   8.193 -0.1440  0.2493  0.0514
  230loPI   C6A 3676   2.757   0.050   8.030 -0.1887  0.1681 -0.3374
  230loPI   C1B 3677   2.389   0.788   9.757 -0.0318  0.1167  0.2044
  230loPI   C2B 3678   2.569   0.769   9.325  0.0694  0.0901 -0.0175
  230loPI   C3B 3679   2.474   0.684   8.950 -0.1637  0.0431  0.1180
  230loPI   C4B 3680   2.481   0.623   8.557 -0.0013 -0.2367 -0.2325
  231loPI    C1 3681   6.994  14.605  10.442 -0.0876  0.0284  0.0280
  231loPI    C2 3682   6.645  14.558  10.631 -0.2531  0.1268 -0.2475
  231loPI    C3 3683   6.903  14.837  10.755 -0.1470 -0.1323  0.1309
  231loPI   PO4 3684   6.834  14.497  10.112 -0.0010 -0.0418 -0.0992
  231loPI   GL1 3685   6.902  14.464   9.690 -0.2687 -0.2185 -0.0611
  231loPI   GL2 3686   7.138  14.721   9.636 -0.2374  0.1359  0.1408
  231loPI   C1A 3687   6.881  14.242   9.214 -0.0495  0.0525  0.2187
  231loPI   C2A 3688   6.819  14.175   8.814  0.0645  0.1254 -0.1251
  231loPI   C3A 3689   6.668  14.118   8.419  0.0223 -0.1142  0.0453
  231loPI   C4A 3690   6.573  14.263   8.078 -0.1461  0.2386 -0.0509
  231loPI   C5A 3691   6.466  14.763   8.148 -0.1475  0.0082  0.0858
  231loPI   C6A 3692   6.356  15.199   8.247  0.0410  0.2449  0.2672
  231loPI   C1B 3693   7.154  14.886   9.286  0.0489 -0.2156 -0.0494
  231loPI   C2B 3694   7.266  15.015   8.879  0.0063 -0.1787  0.2269
  231loPI   C3B 3695   7.601  15.164   8.633 -0.2864  0.2711  0.0855
  231loPI   C4B 3696   7.695  15.128   8.309  0.1635  0.1581 -0.1324
  232loPI    C1 3697  17.839  17.269  10.803 -0.3509 -0.1625  0.2373
  232loPI    C2 3698  17.895  17.581  11.047 -0.1148 -0.0864  0.0893
  232loPI    C3 3699  18.137  17.264  11.070  0.0149 -0.0081 -0.1558
  232loPI   PO4 3700  17.878  17.396  10.581 -0.1285 -0.2056 -0.1084
  232loPI   GL1 3701  18.128  17.389  10.304  0.3919  0.2957  0.2531
  232loPI   GL2 3702  18.185  17.693  10.117 -0.1168  0.3401 -0.1612
  232loPI   C1A 3703  18.529  17.312  10.128 -0.2424  0.1782  0.0730
  232loPI   C2A 3704  18.658  17.042   9.785 -0.2008  0.1492 -0.4034
  232loPI   C3A 3705  18.740  16.871   9.415  0.2995  0.1962 -0.1070
  232loPI   C4A 3706  18.893  16.610   9.073  0.0348  0.0023  0.0349
  232loPI   C5A 3707  18.846  16.388   8.691  0.1121  0.7825 -0.1297
  232loPI   C6A 3708  18.790  16.280   8.290 -0.1048  0.3084 -0.0534
  232loPI   C1B 3709  18.339  17.620   9.707  0.0250 -0.0405 -0.1756
  232loPI   C2B 3710  18.420  17.668   9.313  0.2721 -0.1230  0.1873
  232loPI   C3B 3711  18.550  17.408   8.946  0.0591 -0.0316 -0.0143
  232loPI   C4B 3712  18.833  17.409   8.539 -0.1719  0.1477 -0.0068
  233loPI    C1 3713   8.376   9.335  10.779 -0.3091  0.0398 -0.0295
  233loPI    C2 3714   8.640   9.565  10.972 -0.1466 -0.1564 -0.0149
  233loPI    C3 3715   8.357   9.370  11.177 -0.0677 -0.2451  0.0104
  233loPI   PO4 3716   8.328   9.491  10.558  0.3178 -0.0126  0.0188
  233loPI   GL1 3717   8.251   9.263  10.191  0.0292  0.1916  0.0992
  233loPI   GL2 3718   8.506   9.216  10.230 -0.2006  0.0874  0.1615
  233loPI   C1A 3719   8.155   9.523   9.866 -0.1125  0.2563 -0.0597
  233loPI   C2A 3720   8.372   9.832   9.627 -0.1610  0.1987 -0.1174
  233loPI   C3A 3721   8.247   9.925   9.290 -0.0278 -0.4998  0.0868
  233loPI   C4A 3722   8.302   9.897   8.865  0.0369  0.0152 -0.0365
  233loPI   C5A 3723   8.184  10.028   8.432 -0.1589 -0.1618  0.0847
  233loPI   C6A 3724   7.886  10.187   8.104  0.2384  0.1309  0.2159
  233loPI   C1B 3725   8.655   9.355   9.850 -0.2921 -0.2788 -0.3209
  233loPI   C2B 3726   8.463   9.360   9.478  0.0262  0.0430 -0.2337
  233loPI   C3B 3727   8.400   9.250   9.018  0.1745  0.2004  0.1047
  233loPI   C4B 3728   8.189   9.117   8.741 -0.0137  0.1949 -0.1319
  234loPI    C1 3729  11.339   2.596  10.951  0.0189  0.2250  0.1602
  234loPI    C2 3730  10.982   2.417  10.960  0.0756  0.0995 -0.0309
  234loPI    C3 3731  11.265   2.311  11.222  0.0438  0.0477 -0.0173
  234loPI   PO4 3732  11.309   2.537  10.588  0.1728 -0.1043  0.1359
  234loPI   GL1 3733  11.348   2.430  10.223  0.2139  0.0696  0.0320
  234loPI   GL2 3734  11.662   2.327  10.350 -0.0745  0.0459  0.1892
  234loPI   C1A 3735  11.289   2.298   9.796  0.1337  0.2297 -0.0613
  234loPI   C2A 3736  11.244   2.359   9.393  0.0689  0.0452 -0.0370
  234loPI   C3A 3737  11.274   2.435   8.936 -0.2683 -0.0178 -0.2786
  234loPI   C4A 3738  11.588   2.283   8.493 -0.4587 -0.2142 -0.1057
  234loPI   C5A 3739  11.966   2.331   8.316  0.0586 -0.0484  0.0750
  234loPI   C6A 3740  12.233   2.223   7.898 -0.1509  0.1481  0.0970
  234loPI   C1B 3741  11.780   2.446   9.966 -0.0707 -0.0735  0.2297
  234loPI   C2B 3742  11.677   2.500   9.479  0.0926  0.0661  0.0365
  234loPI   C3B 3743  11.758   2.362   9.097 -0.0253  0.0854 -0.1709
  234loPI   C4B 3744  12.153   2.470   8.884 -0.0287  0.0573 -0.0231
  235loPI    C1 3745   0.697   8.138  10.656  0.1345  0.1714 -0.0177
  235loPI    C2 3746   0.303   8.114  10.725  0.1147  0.2277 -0.1101
  235loPI    C3 3747   0.560   8.119  11.032  0.0682 -0.2251 -0.0570
  235loPI   PO4 3748   0.763   7.925  10.469 -0.1825  0.1202  0.0127
  235loPI   GL1 3749   0.892   7.910  10.002 -0.1194 -0.0776  0.2913
  235loPI   GL2 3750   1.161   7.740  10.026 -0.1350 -0.3337 -0.0820
  235loPI   C1A 3751   0.994   7.898   9.571  0.0187  0.1008 -0.0381
  235loPI   C2A 3752   1.348   7.963   9.247 -0.0931 -0.1399 -0.1127
  235loPI   C3A 3753   1.467   7.852   8.858 -0.2183 -0.0563 -0.1519
  235loPI   C4A 3754   1.536   8.007   8.517 -0.0674 -0.0862 -0.0116
  235loPI   C5A 3755   1.780   8.064   8.099  0.2041  0.2198  0.1435
  235loPI   C6A 3756   1.867   8.399   7.787 -0.1157  0.0151 -0.1224
  235loPI   C1B 3757   1.508   7.763   9.738 -0.0526  0.1980 -0.0823
  235loPI   C2B 3758   1.726   7.559   9.424  0.3886 -0.1044 -0.3800
  235loPI   C3B 3759   1.900   7.696   9.029  0.0590  0.2166  0.1332
  235loPI   C4B 3760   2.033   7.721   8.618  0.0772 -0.1095  0.1520
  236loPI    C1 3761  12.901   4.024  10.488 -0.0080  0.0200 -0.0930
  236loPI    C2 3762  12.867   3.652  10.630  0.1018 -0.0892 -0.3453
  236loPI    C3 3763  13.227   3.826  10.610  0.0265  0.1115 -0.0356
  236loPI   PO4 3764  12.759   3.995  10.200  0.1739 -0.2887  0.0125
  236loPI   GL1 3765  12.654   4.272   9.935  0.0840  0.1940  0.0522
  236loPI   GL2 3766  12.458   4.454   9.984  0.2000 -0.2096 -0.1456
  236loPI   C1A 3767  12.621   4.286   9.463 -0.0633 -0.1696  0.0051
  236loPI   C2A 3768  12.380   4.589   9.159 -0.3169 -0.2150 -0.1503
  236loPI   C3A 3769  12.483   4.690   8.725  0.1156 -0.0196 -0.1892
  236loPI   C4A 3770  12.590   4.654   8.349 -0.0279 -0.3030 -0.0345
  236loPI   C5A 3771  12.871   4.961   8.132 -0.0392  0.2588  0.0085
  236loPI   C6A 3772  13.136   5.000   7.756  0.0770  0.2495  0.1446
  236loPI   C1B 3773  12.386   4.687   9.682  0.0122  0.1724  0.0558
  236loPI   C2B 3774  12.179   4.983   9.353 -0.1204  0.1470  0.1394
  236loPI   C3B 3775  12.205   5.163   9.072  0.2862 -0.0262  0.3171
  236loPI   C4B 3776  12.243   5.544   8.820 -0.0531  0.0177 -0.0045
  237loPI    C1 3777   1.163   3.549  10.138 -0.0215  0.2707  0.0702
  237loPI    C2 3778   1.176   3.374  10.497 -0.1436 -0.0245 -0.0663
  237loPI    C3 3779   0.891   3.272  10.235 -0.0712  0.2076 -0.2384
  237loPI   PO4 3780   1.434   3.642  10.114  0.0618 -0.2591  0.2114
  237loPI   GL1 3781   1.602   3.699   9.837 -0.1294 -0.0586 -0.0210
  237loPI   GL2 3782   1.434   3.819   9.639  0.1232  0.0335  0.3656
  237loPI   C1A 3783   1.964   3.732   9.582 -0.1528 -0.0564  0.3115
  237loPI   C2A 3784   2.218   3.653   9.315 -0.0204  0.0253 -0.1879
  237loPI   C3A 3785   2.287   3.319   8.981 -0.1619  0.0405  0.0976
  237loPI   C4A 3786   2.009   3.182   8.613  0.0181 -0.2336  0.0309
  237loPI   C5A 3787   1.873   3.045   8.183 -0.1359 -0.0824  0.2893
  237loPI   C6A 3788   1.692   3.350   7.859 -0.4895  0.1803 -0.2427
  237loPI   C1B 3789   1.590   3.890   9.198  0.2668  0.0066 -0.0397
  237loPI   C2B 3790   1.470   3.837   8.808 -0.2450  0.3216 -0.1219
  237loPI   C3B 3791   1.591   3.932   8.398  0.1314 -0.2202  0.1130
  237loPI   C4B 3792   1.436   3.777   7.950  0.0975 -0.2536 -0.2974
  238loPI    C1 3793   4.701   8.493  10.509  0.0687 -0.1546  0.0027
  238loPI    C2 3794   5.025   8.537  10.277 -0.0383 -0.0172 -0.1224
  238loPI    C3 3795   4.962   8.787  10.583  0.1335 -0.2345  0.0943
  238loPI   PO4 3796   4.517   8.343  10.331  0.1450 -0.2037 -0.0497
  238loPI   GL1 3797   4.396   8.356   9.946  0.0523 -0.0120 -0.2549
  238loPI   GL2 3798   4.627   8.452   9.820  0.0707  0.2904 -0.0480
  238loPI   C1A 3799   4.160   8.413   9.607 -0.3350 -0.0570 -0.0510
  238loPI   C2A 3800   4.280   8.374   9.194  0.2573  0.2582  0.1851
  238loPI   C3A 3801   4.251   8.439   8.722  0.0119 -0.0909  0.1847
  238loPI   C4A 3802   4.255   8.480   8.256 -0.0834 -0.0073 -0.3187
  238loPI   C5A 3803   3.990   8.642   8.011 -0.0642 -0.1586  0.1051
  238loPI   C6A 3804   3.592   8.574   7.943  0.0645 -0.0968  0.0242
  238loPI   C1B 3805   4.734   8.287   9.390  0.1751  0.1808  0.1176
  238loPI   C2B 3806   4.724   8.303   8.958  0.2484 -0.1856  0.2694
  238loPI   C3B 3807   4.956   8.487   8.668 -0.2320  0.1534  0.0489
  238loPI   C4B 3808   4.918   8.563   8.188 -0.1357  0.0295  0.2540
  239loPI    C1 3809   4.328  11.772  10.642  0.1243  0.0258 -0.0241
  239loPI    C2 3810   4.624  11.692  10.900  0.0531  0.0161  0.0549
  239loPI    C3 3811   4.254  11.763  11.035 -0.0418 -0.2487 -0.0590
  239loPI   PO4 3812   4.373  11.654  10.404 -0.1967 -0.2025  0.0450
  239loPI   GL1 3813   4.270  11.765   9.981  0.1994 -0.0554 -0.2404
  239loPI   GL2 3814   4.042  11.882   9.879 -0.0238  0.3758 -0.0114
  239loPI   C1A 3815   4.454  11.465   9.695  0.1549  0.2422 -0.0640
  239loPI   C2A 3816   4.467  11.275   9.291 -0.0454  0.2943  0.0266
  239loPI   C3A 3817   4.459  11.293   8.811 -0.0532  0.0903  0.1848
  239loPI   C4A 3818   4.356  11.117   8.432 -0.0569  0.0666  0.0253
  239loPI   C5A 3819   4.267  11.081   8.017 -0.2395  0.0645 -0.2908
  239loPI   C6A 3820   4.278  11.003   7.608  0.0999  0.2170  0.2932
  239loPI   C1B 3821   3.962  11.761   9.514  0.2396 -0.1225  0.0037
  239loPI   C2B 3822   4.093  11.646   9.111 -0.1834 -0.0077  0.0242
  239loPI   C3B 3823   4.096  11.598   8.630  0.1719  0.4261 -0.0455
  239loPI   C4B 3824   4.122  11.580   8.109 -0.2172  0.3397  0.1408
  240loPI    C1 3825   7.595   4.329  10.352  0.0510 -0.2880 -0.1254
  240loPI    C2 3826   7.197   4.295  10.343  0.0102  0.1096 -0.0125
  240loPI    C3 3827   7.404   4.138  10.647 -0.0367 -0.2742 -0.1731
  240loPI   PO4 3828   7.603   4.341  10.079 -0.1112 -0.2070  0.1401
  240loPI   GL1 3829   7.513   4.491   9.676  0.1340 -0.0358 -0.0480
  240loPI   GL2 3830   7.652   4.284   9.528 -0.0865  0.0785  0.0234
  240loPI   C1A 3831   7.545   4.756   9.261  0.1335 -0.0686  0.1169
  240loPI   C2A 3832   7.676   4.657   8.880  0.0690  0.0485 -0.0166
  240loPI   C3A 3833   7.350   4.641   8.645  0.1773 -0.0454 -0.0076
  240loPI   C4A 3834   7.197   4.765   8.196  0.0270  0.3308 -0.0108
  240loPI   C5A 3835   7.151   5.054   7.948  0.1201  0.0760 -0.2033
  240loPI   C6A 3836   7.155   5.255   7.541 -0.2616  0.0114  0.0101
  240loPI   C1B 3837   7.713   4.145   9.173 -0.1177  0.1883  0.1249
  240loPI   C2B 3838   7.712   4.162   8.764  0.0585 -0.0397  0.1971
  240loPI   C3B 3839   7.703   4.464   8.364 -0.0432  0.0556 -0.0678
  240loPI   C4B 3840   7.617   4.380   7.915 -0.0523  0.1004 -0.0726
  241loPI    C1 3841   2.942  11.369  10.757 -0.1649  0.1626  0.1013
  241loPI    C2 3842   2.934  11.572  11.101 -0.1782 -0.0819  0.2475
  241loPI    C3 3843   2.690  11.260  11.048 -0.0178 -0.1848  0.1037
  241loPI   PO4 3844   2.897  11.472  10.604 -0.0672 -0.0314  0.2193
  241loPI   GL1 3845   2.996  11.422  10.208 -0.2578  0.0694  0.0275
  241loPI   GL2 3846   2.804  11.140  10.235 -0.1243  0.3066 -0.1169
  241loPI   C1A 3847   3.038  11.606   9.785  0.1958  0.0120 -0.3202
  241loPI   C2A 3848   2.872  11.913   9.428 -0.2228  0.1862  0.0722
  241loPI   C3A 3849   2.513  12.062   9.205  0.2596  0.2491 -0.1124
  241loPI   C4A 3850   2.389  12.346   8.822 -0.0763 -0.1444  0.0764
  241loPI   C5A 3851   2.461  12.666   8.566 -0.1391  0.0169 -0.1357
  241loPI   C6A 3852   2.392  12.828   8.094 -0.1701  0.3477 -0.1440
  241loPI   C1B 3853   2.732  11.175   9.790  0.3920 -0.0510 -0.0655
  241loPI   C2B 3854   2.630  11.203   9.346  0.3659  0.0849  0.0653
  241loPI   C3B 3855   2.599  11.586   9.156 -0.3308  0.0338  0.0802
  241loPI   C4B 3856   2.844  11.886   8.834  0.2010 -0.4750  0.3617
  242loPI    C1 3857   4.726  18.132  10.334 -0.1251 -0.0546  0.0305
  242loPI    C2 3858   4.633  18.499  10.465 -0.0666 -0.0043 -0.0676
  242loPI    C3 3859   5.005  18.419  10.339 -0.0371 -0.1405  0.1012
  242loPI   PO4 3860   4.542  18.025  10.147 -0.0796  0.1387 -0.1039
  242loPI   GL1 3861   4.562  17.968   9.762 -0.2952  0.2549  0.1971
  242loPI   GL2 3862   4.497  17.615   9.648  0.0377  0.1255 -0.1107
  242loPI   C1A 3863   4.943  17.802   9.647 -0.4121 -0.1605 -0.0218
  242loPI   C2A 3864   5.111  17.836   9.196  0.1844  0.2406  0.1865
  242loPI   C3A 3865   5.252  17.631   8.847  0.1896  0.0086  0.1917
  242loPI   C4A 3866   5.414  17.598   8.523 -0.1296 -0.0867  0.0830
  242loPI   C5A 3867   5.223  17.336   8.137 -0.0918  0.1362 -0.3761
  242loPI   C6A 3868   5.452  16.907   8.038 -0.3165 -0.0981  0.0861
  242loPI   C1B 3869   4.671  17.609   9.231 -0.1325 -0.2029 -0.0227
  242loPI   C2B 3870   4.730  17.770   8.913 -0.0260  0.3521  0.1680
  242loPI   C3B 3871   4.816  17.846   8.421 -0.1057 -0.1134 -0.1260
  242loPI   C4B 3872   4.924  17.769   7.966 -0.0607 -0.0337 -0.4054
  243loPI    C1 3873   3.429  16.677  10.437  0.0825 -0.0609 -0.1690
  243loPI    C2 3874   3.495  16.290  10.358 -0.1420 -0.1276 -0.0406
  243loPI    C3 3875   3.510  16.423  10.735 -0.3443 -0.0680 -0.0526
  243loPI   PO4 3876   3.231  16.767  10.289  0.0449  0.2254  0.1153
  243loPI   GL1 3877   3.113  16.946   9.866 -0.0020  0.2153 -0.1418
  243loPI   GL2 3878   3.476  16.882   9.827 -0.0624 -0.3788  0.0125
  243loPI   C1A 3879   2.856  16.968   9.542  0.3963  0.1153  0.0331
  243loPI   C2A 3880   2.572  17.142   9.274  0.0152 -0.1105 -0.2541
  243loPI   C3A 3881   2.491  17.303   8.920 -0.1350 -0.0187  0.0300
  243loPI   C4A 3882   2.456  17.469   8.577  0.0221  0.1343  0.0156
  243loPI   C5A 3883   2.043  17.408   8.308 -0.1020 -0.0931 -0.0328
  243loPI   C6A 3884   1.752  17.647   8.252  0.1520  0.0479 -0.0958
  243loPI   C1B 3885   3.386  17.164   9.432  0.1124  0.3292 -0.1706
  243loPI   C2B 3886   3.015  17.148   9.036  0.0351  0.3776 -0.3346
  243loPI   C3B 3887   2.985  17.475   8.694 -0.0198  0.0744  0.2041
  243loPI   C4B 3888   2.880  17.664   8.259  0.2389  0.1965 -0.0067
  244loPI    C1 3889   5.475  14.220  10.736  0.1501 -0.1052 -0.0735
  244loPI    C2 3890   5.841  14.146  10.879  0.1786  0.0613 -0.0588
  244loPI    C3 3891   5.656  14.489  10.969  0.0617  0.0235 -0.1521
  244loPI   PO4 3892   5.536  14.102  10.441  0.1842 -0.0010  0.0329
  244loPI   GL1 3893   5.676  14.085  10.106  0.1788 -0.0961  0.1034
  244loPI   GL2 3894   6.020  14.130   9.944  0.0295  0.0144 -0.0473
  244loPI   C1A 3895   5.435  14.267   9.733  0.0827  0.1318  0.1928
  244loPI   C2A 3896   5.338  14.422   9.237 -0.0571  0.0612  0.1205
  244loPI   C3A 3897   5.391  14.630   8.833  0.0106 -0.1224 -0.0815
  244loPI   C4A 3898   5.272  14.668   8.443 -0.1481 -0.4043 -0.2114
  244loPI   C5A 3899   5.569  14.546   8.133 -0.0166 -0.1227 -0.2132
  244loPI   C6A 3900   5.628  14.158   7.923  0.1981  0.2384  0.0560
  244loPI   C1B 3901   5.951  14.092   9.534  0.2229 -0.0163 -0.2165
  244loPI   C2B 3902   5.913  13.918   9.113 -0.0823  0.0841  0.3179
  244loPI   C3B 3903   5.701  13.688   8.644 -0.2122  0.0599  0.0133
  244loPI   C4B 3904   5.425  13.754   8.370  0.0124  0.1391 -0.0029
  245loPI    C1 3905  15.094   8.981  11.019  0.0233  0.1811 -0.0148
  245loPI    C2 3906  14.990   9.300  11.237 -0.0084  0.2297 -0.1005
  245loPI    C3 3907  15.374   9.191  11.213 -0.0558 -0.0805  0.3953
  245loPI   PO4 3908  14.945   9.100  10.718  0.2656 -0.0882 -0.1059
  245loPI   GL1 3909  15.023   9.371  10.410 -0.0515 -0.1968 -0.0799
  245loPI   GL2 3910  15.292   9.485  10.285 -0.0896 -0.0315  0.3563
  245loPI   C1A 3911  15.182   9.001  10.150 -0.0833  0.0787  0.0571
  245loPI   C2A 3912  15.272   8.979   9.822 -0.1043 -0.3264  0.1194
  245loPI   C3A 3913  15.309   8.890   9.405 -0.1159 -0.1602 -0.0325
  245loPI   C4A 3914  15.451   8.876   8.997  0.1029 -0.1870  0.2589
  245loPI   C5A 3915  15.479   8.869   8.592  0.2753 -0.1090  0.2290
  245loPI   C6A 3916  15.289   9.076   8.256  0.2328 -0.3063 -0.0563
  245loPI   C1B 3917  15.075   9.510   9.892 -0.0917  0.2415 -0.0382
  245loPI   C2B 3918  15.008   9.322   9.463 -0.0049 -0.3677 -0.1723
  245loPI   C3B 3919  15.108   9.225   9.092 -0.0974  0.1271 -0.0924
  245loPI   C4B 3920  15.152   9.310   8.685  0.1015 -0.2596  0.0819
  246loPI    C1 3921   1.575   5.774  10.589 -0.3002  0.1332  0.1083
  246loPI    C2 3922   1.747   5.525  10.851 -0.1700  0.1906  0.0777
  246loPI    C3 3923   1.524   5.830  10.982  0.0219  0.3113  0.1279
  246loPI   PO4 3924   1.814   5.876  10.415  0.0551  0.0553  0.1215
  246loPI   GL1 3925   2.113   5.763  10.072  0.1259  0.0801  0.1947
  246loPI   GL2 3926   2.473   5.820  10.058 -0.2181 -0.0644 -0.1825
  246loPI   C1A 3927   2.211   6.007   9.658 -0.0031 -0.5779  0.1469
  246loPI   C2A 3928   2.091   6.073   9.183 -0.1775 -0.3306  0.2957
  246loPI   C3A 3929   2.004   6.080   8.771  0.0953 -0.0631 -0.0399
  246loPI   C4A 3930   1.978   6.133   8.311 -0.0344 -0.1712  0.1368
  246loPI   C5A 3931   2.078   6.434   8.018  0.1190 -0.0489 -0.2284
  246loPI   C6A 3932   2.453   6.593   7.826  0.0314 -0.0367  0.0325
  246loPI   C1B 3933   2.715   5.947   9.753  0.0313 -0.1146 -0.1409
  246loPI   C2B 3934   2.624   5.883   9.332 -0.0595 -0.1228  0.2373
  246loPI   C3B 3935   2.555   5.938   8.883  0.0070  0.0212  0.0950
  246loPI   C4B 3936   2.368   5.835   8.559  0.0148 -0.0505  0.3225
  247loPI    C1 3937  18.036  12.093  10.907 -0.1185  0.2134  0.1024
  247loPI    C2 3938  17.904  12.315  10.602 -0.0317  0.0865 -0.0289
  247loPI    C3 3939  17.931  12.474  10.968 -0.0194  0.2763 -0.1112
  247loPI   PO4 3940  18.302  12.036  10.833  0.3336  0.0626  0.2901
  247loPI   GL1 3941  18.262  12.013  10.376 -0.1015  0.1682  0.0189
  247loPI   GL2 3942  18.350  11.724  10.348 -0.2679  0.0732  0.4027
  247loPI   C1A 3943  18.230  12.075   9.913 -0.0033 -0.0610  0.0147
  247loPI   C2A 3944  18.190  11.892   9.495  0.1276 -0.2853 -0.3653
  247loPI   C3A 3945  18.234  11.924   9.101 -0.1417 -0.1205 -0.1162
  247loPI   C4A 3946  18.422  12.232   8.844  0.2231  0.2217 -0.0764
  247loPI   C5A 3947  18.687  12.453   8.367 -0.0165 -0.2069  0.1409
  247loPI   C6A 3948  18.713  12.817   8.148 -0.1933  0.5392  0.2776
  247loPI   C1B 3949  18.548  11.709   9.916  0.2934 -0.2238  0.1589
  247loPI   C2B 3950  18.463  11.479   9.570 -0.0618 -0.0264  0.2416
  247loPI   C3B 3951  18.529  11.438   9.181  0.0859 -0.0585 -0.2502
  247loPI   C4B 3952  18.460  11.456   8.758 -0.1167  0.1073 -0.2293
  248loPI    C1 3953  14.063  16.717  10.745 -0.2145  0.0373 -0.4900
  248loPI    C2 3954  14.027  16.628  11.133 -0.0023  0.0516 -0.4662
  248loPI    C3 3955  13.889  16.977  10.994 -0.0335  0.0682 -0.3940
  248loPI   PO4 3956  14.006  16.469  10.642 -0.0988 -0.0459  0.2757
  248loPI   GL1 3957  14.196  16.231  10.448 -0.0840  0.2492  0.1711
  248loPI   GL2 3958  14.333  16.030  10.633 -0.3666  0.2408  0.1327
  248loPI   C1A 3959  14.250  16.205   9.989 -0.2102  0.1815 -0.0471
  248loPI   C2A 3960  13.970  16.257   9.635 -0.0416  0.1068 -0.0661
  248loPI   C3A 3961  13.868  16.205   9.210  0.0334  0.4511 -0.2352
  248loPI   C4A 3962  14.096  16.535   8.894 -0.0479 -0.0130 -0.0617
  248loPI   C5A 3963  14.322  16.890   8.797 -0.3156  0.1138 -0.0418
  248loPI   C6A 3964  14.685  16.966   8.541  0.2959  0.0059 -0.2207
  248loPI   C1B 3965  14.407  15.716  10.225 -0.1581 -0.2078  0.0390
  248loPI   C2B 3966  14.320  15.492   9.804 -0.0090  0.3935  0.1764
  248loPI   C3B 3967  14.401  15.482   9.366  0.1776 -0.0050  0.2238
  248loPI   C4B 3968  14.566  15.533   8.927  0.3892 -0.0731  0.2893
  249loPI    C1 3969   0.262   8.967  10.459 -0.0680 -0.1868  0.0786
  249loPI    C2 3970   0.130   9.303  10.631  0.1661 -0.0557  0.0068
  249loPI    C3 3971   0.144   8.963  10.841  0.3308  0.0748  0.2108
  249loPI   PO4 3972   0.134   8.933  10.256  0.1781  0.1160  0.0491
  249loPI   GL1 3973   0.158   9.135   9.904 -0.1639 -0.2078 -0.1596
  249loPI   GL2 3974   0.242   9.454  10.002 -0.0610  0.0462 -0.2556
  249loPI   C1A 3975   0.200   9.231   9.471 -0.1017 -0.0183 -0.0462
  249loPI   C2A 3976   0.215   9.029   9.123 -0.2165  0.2205  0.1445
  249loPI   C3A 3977   0.311   8.799   8.681 -0.1181  0.0063  0.1103
  249loPI   C4A 3978   0.348   8.790   8.273 -0.1597 -0.0427  0.0161
  249loPI   C5A 3979   0.417   8.472   7.967  0.3464 -0.2558 -0.0060
  249loPI   C6A 3980   0.351   8.110   7.838  0.0907 -0.0104 -0.0128
  249loPI   C1B 3981   0.241   9.699   9.600  0.1328 -0.1027 -0.1865
  249loPI   C2B 3982   0.451  10.035   9.303  0.0516 -0.1095 -0.0528
  249loPI   C3B 3983   0.363  10.087   8.830 -0.2466  0.0407  0.2932
  249loPI   C4B 3984   0.169  10.138   8.391  0.0960  0.1497  0.0565
  250loPI    C1 3985  14.509   3.103  11.054  0.1586 -0.0842  0.1176
  250loPI    C2 3986  14.302   2.778  11.162  0.0384 -0.0507 -0.0091
  250loPI    C3 3987  14.131   3.139  11.179  0.0973 -0.0189 -0.0819
  250loPI   PO4 3988  14.623   3.156  10.853 -0.0968  0.3099  0.0058
  250loPI   GL1 3989  14.499   3.114  10.348  0.0375  0.3718  0.0339
  250loPI   GL2 3990  14.610   2.714  10.227  0.0751  0.2300 -0.0527
  250loPI   C1A 3991  14.302   3.052   9.995 -0.0371  0.5583 -0.0345
  250loPI   C2A 3992  14.166   2.852   9.621 -0.4615 -0.0259 -0.0357
  250loPI   C3A 3993  14.088   2.931   9.139  0.1508  0.0928 -0.1648
  250loPI   C4A 3994  14.123   2.901   8.748  0.1500  0.0328  0.1595
  250loPI   C5A 3995  14.038   2.732   8.409 -0.0740 -0.0119 -0.1941
  250loPI   C6A 3996  14.101   2.444   8.129 -0.3202 -0.2391  0.0011
  250loPI   C1B 3997  14.529   2.588   9.837 -0.2003  0.1324  0.1129
  250loPI   C2B 3998  14.494   2.558   9.354  0.0281 -0.0252  0.0588
  250loPI   C3B 3999  14.566   2.521   8.855 -0.0362  0.1172  0.1734
  250loPI   C4B 4000  14.534   2.267   8.421 -0.3345 -0.2741  0.0235
  251loPI    C1 4001   2.694  10.808  10.782  0.0268 -0.1291 -0.1029
  251loPI    C2 4002   2.356  10.742  10.985  0.0071  0.0887 -0.0627
  251loPI    C3 4003   2.650  10.471  10.993 -0.0279  0.0561  0.1867
  251loPI   PO4 4004   2.718  10.770  10.509  0.2190  0.0184  0.2737
  251loPI   GL1 4005   2.693  10.711  10.059  0.0851 -0.0712  0.4140
  251loPI   GL2 4006   2.880  10.556   9.840  0.0822  0.0468 -0.1540
  251loPI   C1A 4007   2.464  10.722   9.700 -0.0910  0.4879 -0.3013
  251loPI   C2A 4008   2.438  10.693   9.264  0.0739 -0.1871  0.2454
  251loPI   C3A 4009   2.524  10.557   8.866 -0.0407  0.0631  0.3161
  251loPI   C4A 4010   2.479  10.451   8.443  0.0171 -0.1048  0.0082
  251loPI   C5A 4011   2.330  10.297   8.057 -0.1531  0.1797  0.0685
  251loPI   C6A 4012   2.120   9.890   7.773 -0.0124 -0.2308 -0.1219
  251loPI   C1B 4013   2.759  10.390   9.480  0.1208 -0.1038  0.0906
  251loPI   C2B 4014   2.587  10.131   9.132  0.1233  0.2135  0.2657
  251loPI   C3B 4015   2.388  10.087   8.770  0.0141 -0.0297  0.1541
  251loPI   C4B 4016   2.434   9.950   8.352  0.0343  0.0318 -0.1537
  252loPI    C1 4017   7.131  13.070  10.549 -0.0478 -0.0897  0.2395
  252loPI    C2 4018   7.396  12.770  10.571  0.0650 -0.0098  0.0048
  252loPI    C3 4019   7.196  12.885  10.898  0.0359 -0.3257  0.1015
  252loPI   PO4 4020   7.123  13.042  10.252  0.2710  0.0388 -0.2931
  252loPI   GL1 4021   7.088  12.875   9.864  0.1918  0.0801 -0.0646
  252loPI   GL2 4022   7.276  13.054   9.813 -0.0515 -0.1061  0.2753
  252loPI   C1A 4023   6.944  12.906   9.485 -0.0662  0.1753 -0.0250
  252loPI   C2A 4024   6.862  12.922   8.977  0.1507  0.0094  0.0085
  252loPI   C3A 4025   6.777  12.737   8.557  0.0489  0.1481 -0.0433
  252loPI   C4A 4026   6.616  12.433   8.405 -0.2046 -0.2723  0.2366
  252loPI   C5A 4027   6.668  12.066   8.109  0.1380 -0.0982 -0.1178
  252loPI   C6A 4028   7.020  12.006   7.863  0.1975  0.0778  0.1660
  252loPI   C1B 4029   7.415  13.015   9.332  0.2076  0.0472 -0.2135
  252loPI   C2B 4030   7.377  12.999   8.986  0.0180 -0.1258 -0.2458
  252loPI   C3B 4031   7.198  13.022   8.624  0.1560  0.0756 -0.1032
  252loPI   C4B 4032   7.220  12.928   8.266 -0.1275 -0.2099  0.1244
  253loPI    C1 4033  15.500  14.883  11.046  0.1762 -0.0588  0.0680
  253loPI    C2 4034  15.350  14.787  11.404 -0.1952 -0.2127 -0.1237
  253loPI    C3 4035  15.631  14.557  11.237  0.1600 -0.0044  0.1729
  253loPI   PO4 4036  15.304  14.975  10.884 -0.1590  0.2385  0.3530
  253loPI   GL1 4037  15.439  15.112  10.540  0.3003 -0.2326 -0.2346
  253loPI   GL2 4038  15.657  14.917  10.452  0.0209 -0.0988  0.0725
  253loPI   C1A 4039  15.218  15.119  10.242  0.1632 -0.1705 -0.2428
  253loPI   C2A 4040  15.208  15.098   9.793  0.1718  0.1687  0.2149
  253loPI   C3A 4041  15.332  15.155   9.382  0.0622  0.0508 -0.1082
  253loPI   C4A 4042  15.270  15.363   9.031 -0.2389 -0.4533 -0.0152
  253loPI   C5A 4043  15.105  15.605   8.703  0.0160 -0.0715 -0.1313
  253loPI   C6A 4044  14.833  15.845   8.338  0.0875 -0.3475 -0.2522
  253loPI   C1B 4045  15.613  14.844   9.982 -0.3632 -0.0475  0.1083
  253loPI   C2B 4046  15.508  14.734   9.618  0.1886 -0.1250  0.1445
  253loPI   C3B 4047  15.443  14.639   9.218  0.0170 -0.4937 -0.2499
  253loPI   C4B 4048  15.067  14.828   9.071  0.0429  0.0512 -0.0862
  254loPI    C1 4049   2.737   1.448  10.874 -0.0250 -0.0969  0.0253
  254loPI    C2 4050   3.090   1.471  11.060 -0.0577  0.1867  0.0563
  254loPI    C3 4051   2.811   1.751  11.124 -0.3705 -0.1489  0.1962
  254loPI   PO4 4052   2.760   1.437  10.623 -0.0362 -0.1829  0.1867
  254loPI   GL1 4053   2.793   1.182  10.298  0.0349 -0.0614  0.2426
  254loPI   GL2 4054   3.088   1.307  10.115 -0.0842  0.3959 -0.1603
  254loPI   C1A 4055   2.509   1.253   9.999 -0.2105 -0.1989  0.2879
  254loPI   C2A 4056   2.433   1.216   9.484  0.0951  0.1394 -0.2591
  254loPI   C3A 4057   2.638   1.178   9.045 -0.1740 -0.3059 -0.0360
  254loPI   C4A 4058   2.643   1.116   8.670 -0.0012 -0.2964  0.0387
  254loPI   C5A 4059   2.691   1.132   8.191 -0.0328 -0.0753  0.3062
  254loPI   C6A 4060   3.020   1.096   7.988  0.1143 -0.1428  0.0870
  254loPI   C1B 4061   2.916   1.357   9.718 -0.0497 -0.0104 -0.1388
  254loPI   C2B 4062   2.983   1.588   9.339  0.1247  0.3677 -0.0554
  254loPI   C3B 4063   3.123   1.909   9.014 -0.1174  0.1599 -0.1490
  254loPI   C4B 4064   3.371   2.114   8.769 -0.2127 -0.0474  0.1102
  255loPI    C1 4065  12.140  13.773  11.260  0.0462  0.0607  0.2041
  255loPI    C2 4066  12.461  14.010  11.289  0.1459 -0.0554  0.0613
  255loPI    C3 4067  12.094  14.169  11.294  0.2106  0.0965  0.0246
  255loPI   PO4 4068  12.178  13.623  10.941 -0.1937 -0.1101 -0.2126
  255loPI   GL1 4069  12.207  13.479  10.531 -0.2314 -0.0497  0.0456
  255loPI   GL2 4070  12.147  13.768  10.403  0.0010  0.1415  0.0424
  255loPI   C1A 4071  12.356  13.284  10.034  0.0133 -0.0122 -0.0951
  255loPI   C2A 4072  12.386  13.047   9.705 -0.0955  0.2278 -0.2047
  255loPI   C3A 4073  12.422  12.915   9.169  0.0756  0.0961  0.0646
  255loPI   C4A 4074  12.533  12.835   8.796  0.2291 -0.1160  0.0262
  255loPI   C5A 4075  12.742  13.168   8.492 -0.0912  0.1118 -0.1291
  255loPI   C6A 4076  12.967  13.115   8.144 -0.1896  0.1302  0.0147
  255loPI   C1B 4077  12.410  13.758   9.978 -0.0040 -0.3027 -0.1325
  255loPI   C2B 4078  12.388  13.662   9.582 -0.1267 -0.3165 -0.2071
  255loPI   C3B 4079  12.507  13.906   9.093 -0.3470  0.0487 -0.0311
  255loPI   C4B 4080  12.360  14.196   8.644 -0.1277  0.2718  0.0296
  256loPI    C1 4081  17.973   2.744  10.791  0.1430 -0.0777  0.2181
  256loPI    C2 4082  17.953   2.350  10.859 -0.2087 -0.0919  0.0585
  256loPI    C3 4083  17.734   2.602  11.079 -0.1928 -0.0090 -0.0202
  256loPI   PO4 4084  17.928   2.771  10.589  0.3529 -0.1386  0.1260
  256loPI   GL1 4085  17.947   2.633  10.165 -0.0331  0.1306  0.1772
  256loPI   GL2 4086  18.251   2.762   9.922 -0.1303 -0.0066 -0.0430
  256loPI   C1A 4087  17.782   2.526   9.728  0.1344 -0.0820  0.0737
  256loPI   C2A 4088  17.800   2.485   9.324 -0.3284 -0.0684  0.3812
  256loPI   C3A 4089  17.723   2.311   8.968  0.0847  0.4029  0.1796
  256loPI   C4A 4090  17.728   2.013   8.645  0.0601  0.1460  0.1857
  256loPI   C5A 4091  17.534   1.905   8.293  0.0564 -0.1684  0.3122
  256loPI   C6A 4092  17.516   1.685   7.869 -0.0400 -0.1620 -0.2993
  256loPI   C1B 4093  18.275   2.630   9.454 -0.0338 -0.1357 -0.0835
  256loPI   C2B 4094  18.226   2.442   9.006 -0.0023 -0.1129 -0.1374
  256loPI   C3B 4095  18.178   2.330   8.584  0.2829 -0.1233 -0.2308
  256loPI   C4B 4096  18.268   2.424   8.073 -0.2029  0.2311 -0.1473
  257loPI    C1 4097   6.152  18.065  10.366  0.2509  0.0050 -0.1308
  257loPI    C2 4098   5.856  18.068  10.096  0.0805  0.1696  0.0544
  257loPI    C3 4099   6.147  17.794  10.072 -0.1636 -0.0855 -0.0462
  257loPI   PO4 4100   6.219  18.317  10.361 -0.3378 -0.0455  0.0546
  257loPI   GL1 4101   6.282  18.410   9.952  0.3548 -0.0285 -0.1206
  257loPI   GL2 4102   6.495  18.132   9.981 -0.1113 -0.0956 -0.1128
  257loPI   C1A 4103   6.335  18.492   9.505  0.1510  0.1122 -0.1125
  257loPI   C2A 4104   6.325  18.380   9.030  0.0506 -0.1217 -0.0043
  257loPI   C3A 4105   6.159  18.390   8.639  0.2374  0.1778  0.2012
  257loPI   C4A 4106   5.911  18.375   8.294  0.0927  0.3075 -0.0018
  257loPI   C5A 4107   5.935  18.313   7.872 -0.1627 -0.0279 -0.1210
  257loPI   C6A 4108   5.795  18.099   7.499  0.3300  0.0892  0.0706
  257loPI   C1B 4109   6.307  18.036   9.618 -0.1382  0.2761  0.3109
  257loPI   C2B 4110   6.307  17.838   9.251 -0.1938  0.1309 -0.3770
  257loPI   C3B 4111   6.280  17.965   8.774 -0.2564 -0.2236  0.0729
  257loPI   C4B 4112   6.169  17.952   8.288 -0.0444  0.0764  0.0445
  258loPI    C1 4113   6.162  16.479  10.483  0.1902 -0.0620  0.2089
  258loPI    C2 4114   5.872  16.651  10.697  0.1165  0.0914 -0.0102
  258loPI    C3 4115   6.138  16.412  10.876 -0.0404  0.0874  0.2219
  258loPI   PO4 4116   5.959  16.355  10.200 -0.1021  0.2308  0.1048
  258loPI   GL1 4117   5.861  16.582   9.791  0.3465 -0.0382 -0.3132
  258loPI   GL2 4118   6.146  16.800   9.758 -0.1061 -0.2516  0.0687
  258loPI   C1A 4119   5.939  16.408   9.377  0.4300 -0.2287  0.1484
  258loPI   C2A 4120   5.841  16.369   8.914  0.3152 -0.1650 -0.2182
  258loPI   C3A 4121   6.133  16.412   8.683 -0.1898 -0.1851 -0.0550
  258loPI   C4A 4122   6.376  16.451   8.291  0.2706 -0.3278 -0.2622
  258loPI   C5A 4123   6.212  16.474   7.950 -0.1870 -0.3180 -0.2048
  258loPI   C6A 4124   6.110  16.534   7.542  0.1136 -0.1422  0.1798
  258loPI   C1B 4125   6.237  16.807   9.442  0.2588 -0.0628 -0.2041
  258loPI   C2B 4126   6.207  16.822   9.058  0.1199 -0.0562  0.4792
  258loPI   C3B 4127   5.961  17.211   8.893  0.1174  0.4070  0.1587
  258loPI   C4B 4128   5.887  17.572   8.934  0.0176 -0.0503  0.0145
  259loPI    C1 4129   6.371   3.098  10.341  0.0292  0.0423 -0.0264
  259loPI    C2 4130   6.468   3.306  10.668 -0.1038 -0.0676  0.0842
  259loPI    C3 4131   6.447   2.907  10.684 -0.0432 -0.0777 -0.0766
  259loPI   PO4 4132   6.569   3.300  10.066  0.1093 -0.1667 -0.0870
  259loPI   GL1 4133   6.758   3.408   9.643 -0.1160 -0.0755  0.0249
  259loPI   GL2 4134   6.669   3.719   9.733 -0.1583  0.7433 -0.2795
  259loPI   C1A 4135   6.983   3.247   9.160  0.1952 -0.2257  0.1126
  259loPI   C2A 4136   7.073   3.429   8.795  0.2987  0.2672 -0.1246
  259loPI   C3A 4137   7.195   3.512   8.344  0.0338  0.1567  0.2417
  259loPI   C4A 4138   7.232   3.695   7.943 -0.1869  0.1240 -0.0675
  259loPI   C5A 4139   7.310   3.585   7.534  0.0052  0.2161  0.1273
  259loPI   C6A 4140   7.534   3.608   7.200 -0.2689 -0.1292 -0.1189
  259loPI   C1B 4141   6.774   3.836   9.296 -0.0948 -0.1133  0.0153
  259loPI   C2B 4142   6.883   3.879   8.897  0.1973 -0.0560 -0.1535
  259loPI   C3B 4143   6.808   3.884   8.506 -0.0790  0.2854 -0.1232
  259loPI   C4B 4144   6.829   3.995   8.022 -0.0887  0.0117  0.2183
  260loPI    C1 4145   2.631  15.838  10.767  0.0339  0.2763  0.0219
  260loPI    C2 4146   2.353  15.827  11.054  0.1903 -0.2027  0.1641
  260loPI    C3 4147   2.740  15.832  11.151  0.2442 -0.3340 -0.0368
  260loPI   PO4 4148   2.525  16.003  10.624  0.2430  0.1898  0.2798
  260loPI   GL1 4149   2.554  16.108  10.238 -0.1510 -0.0183 -0.2655
  260loPI   GL2 4150   2.328  15.918  10.044  0.2242 -0.2073 -0.0734
  260loPI   C1A 4151   2.779  16.176   9.862 -0.3275  0.3469  0.1119
  260loPI   C2A 4152   2.733  16.138   9.445  0.1009 -0.0544  0.2464
  260loPI   C3A 4153   2.720  16.202   8.954  0.3900  0.0046 -0.0045
  260loPI   C4A 4154   2.684  16.507   8.502 -0.1112  0.0366  0.0201
  260loPI   C5A 4155   2.878  16.635   8.136  0.1486 -0.1583 -0.2213
  260loPI   C6A 4156   3.150  16.655   7.803 -0.1420 -0.3181 -0.1210
  260loPI   C1B 4157   2.366  15.730   9.672  0.2418 -0.1051  0.6525
  260loPI   C2B 4158   2.362  15.722   9.302 -0.1342  0.3366 -0.2257
  260loPI   C3B 4159   2.337  15.804   8.906 -0.0175 -0.0544  0.0457
  260loPI   C4B 4160   2.490  15.996   8.463  0.1126 -0.1472 -0.0715
  261loPI    C1 4161   7.046  11.487  10.669 -0.4660 -0.3082  0.0414
  261loPI    C2 4162   7.224  11.171  10.838  0.0426  0.0558  0.2120
  261loPI    C3 4163   6.945  11.374  11.039 -0.1441 -0.1628  0.1780
  261loPI   PO4 4164   7.262  11.659  10.590 -0.2959 -0.1936 -0.0899
  261loPI   GL1 4165   7.427  11.677  10.207 -0.2039 -0.2205 -0.1840
  261loPI   GL2 4166   7.228  11.447  10.023  0.2103  0.0872 -0.0899
  261loPI   C1A 4167   7.414  11.980   9.812 -0.1088  0.1875 -0.0544
  261loPI   C2A 4168   7.100  12.128   9.530 -0.0726  0.2022 -0.0282
  261loPI   C3A 4169   6.808  12.317   9.280 -0.1463  0.0928 -0.2197
  261loPI   C4A 4170   6.608  12.116   8.976  0.0528  0.0651 -0.3962
  261loPI   C5A 4171   6.280  12.207   8.647  0.2539 -0.0836 -0.1988
  261loPI   C6A 4172   6.167  12.316   8.164  0.2318 -0.0531  0.0570
  261loPI   C1B 4173   7.297  11.491   9.612 -0.3065 -0.1223  0.3684
  261loPI   C2B 4174   7.415  11.830   9.325 -0.0257  0.1095 -0.0139
  261loPI   C3B 4175   7.268  12.078   8.992 -0.0941  0.1486 -0.1397
  261loPI   C4B 4176   7.074  12.345   8.738  0.0757 -0.1808 -0.2776
  262loPI    C1 4177  16.808  14.314  10.864 -0.0251 -0.1026  0.1282
  262loPI    C2 4178  16.472  14.102  10.817 -0.1305  0.0938 -0.0230
  262loPI    C3 4179  16.518  14.337  11.138 -0.0520 -0.0845  0.0982
  262loPI   PO4 4180  16.885  14.364  10.594  0.1511  0.0040 -0.0361
  262loPI   GL1 4181  16.723  14.575  10.260 -0.0128  0.1495  0.2811
  262loPI   GL2 4182  16.432  14.595  10.271 -0.0676  0.0600  0.1233
  262loPI   C1A 4183  16.847  14.583   9.845  0.1651 -0.2494 -0.3078
  262loPI   C2A 4184  17.053  14.611   9.405 -0.1723 -0.2510  0.2711
  262loPI   C3A 4185  17.246  14.496   9.000 -0.0744  0.2236  0.0264
  262loPI   C4A 4186  17.379  14.270   8.610 -0.1227 -0.0657  0.2740
  262loPI   C5A 4187  17.565  14.477   8.327 -0.0330 -0.2986  0.2203
  262loPI   C6A 4188  17.689  14.949   8.342  0.1103  0.2561 -0.3344
  262loPI   C1B 4189  16.377  14.614   9.932 -0.2303  0.1470  0.0693
  262loPI   C2B 4190  16.040  14.593   9.666 -0.0431  0.1456 -0.0512
  262loPI   C3B 4191  15.939  14.609   9.278 -0.2539  0.0176  0.1490
  262loPI   C4B 4192  15.802  14.586   8.831 -0.1121  0.4445  0.2442
  263loPI    C1 4193  17.015  10.528  10.723 -0.0461  0.0868 -0.0435
  263loPI    C2 4194  16.762  10.815  10.840 -0.1171  0.1275 -0.2916
  263loPI    C3 4195  16.943  10.585  11.113 -0.2955  0.2052 -0.1048
  263loPI   PO4 4196  17.198  10.640  10.543 -0.3225 -0.1651 -0.1156
  263loPI   GL1 4197  17.212  10.570  10.111  0.3576 -0.1577 -0.2640
  263loPI   GL2 4198  17.134  10.892  10.042 -0.1344 -0.3073  0.0596
  263loPI   C1A 4199  17.220  10.687   9.612  0.1233 -0.2370 -0.1788
  263loPI   C2A 4200  17.219  10.739   9.158  0.0395 -0.0402  0.2290
  263loPI   C3A 4201  17.285  10.739   8.765 -0.1694 -0.1311  0.0322
  263loPI   C4A 4202  17.084  10.677   8.337  0.2170 -0.0568  0.0751
  263loPI   C5A 4203  16.843  10.285   8.110  0.0271 -0.1972 -0.4107
  263loPI   C6A 4204  16.427  10.154   8.113 -0.1650  0.1612 -0.1194
  263loPI   C1B 4205  17.443  10.980   9.931 -0.2916  0.1997  0.1356
  263loPI   C2B 4206  17.654  11.018   9.545  0.1131 -0.2254  0.2869
  263loPI   C3B 4207  17.658  11.129   9.109  0.0318 -0.1344 -0.2639
  263loPI   C4B 4208  17.782  10.776   8.908 -0.1110  0.0851  0.3218
  264loPI    C1 4209  10.558   0.002  10.806  0.0877 -0.1620  0.0349
  264loPI    C2 4210  10.465  -0.251  11.101  0.0089 -0.0029  0.1486
  264loPI    C3 4211  10.394   0.140  11.144 -0.1958 -0.0023 -0.1636
  264loPI   PO4 4212  10.401  -0.065  10.615  0.1329  0.2970 -0.2616
  264loPI   GL1 4213  10.418  -0.144  10.193  0.2221 -0.1200 -0.0514
  264loPI   GL2 4214  10.171  -0.208  10.083 -0.0888  0.1205 -0.1734
  264loPI   C1A 4215  10.572   0.137  10.005  0.1433 -0.0587 -0.1845
  264loPI   C2A 4216  10.520   0.300   9.708 -0.1834 -0.0201 -0.1203
  264loPI   C3A 4217  10.654   0.488   9.314  0.0131  0.0888 -0.2953
  264loPI   C4A 4218  10.569   0.487   8.922  0.1463 -0.0038 -0.0170
  264loPI   C5A 4219  10.461   0.660   8.494 -0.1384 -0.1014  0.1231
  264loPI   C6A 4220  10.897   0.761   8.282  0.0423 -0.0235 -0.0727
  264loPI   C1B 4221  10.298  -0.103   9.653 -0.3093 -0.1709 -0.1154
  264loPI   C2B 4222  10.393   0.034   9.295  0.0831  0.1356  0.0271
  264loPI   C3B 4223  10.381  -0.083   8.890 -0.0139  0.0381 -0.0657
  264loPI   C4B 4224  10.479  -0.006   8.595  0.1897 -0.1811 -0.1723
  265loPI    C1 4225  11.549  10.749  10.725 -0.0558  0.0842  0.1824
  265loPI    C2 4226  11.827  10.470  10.655 -0.0784  0.1478 -0.1790
  265loPI    C3 4227  11.927  10.809  10.841  0.0289  0.0594 -0.0739
  265loPI   PO4 4228  11.425  10.715  10.449 -0.3189 -0.0478 -0.1795
  265loPI   GL1 4229  11.547  10.904  10.151 -0.0159 -0.1356  0.1400
  265loPI   GL2 4230  11.332  10.797   9.922  0.0983 -0.2261 -0.1875
  265loPI   C1A 4231  11.738  11.072   9.774  0.0966  0.0017 -0.1410
  265loPI   C2A 4232  11.784  11.119   9.396  0.2304 -0.2141  0.1068
  265loPI   C3A 4233  11.834  11.090   8.946  0.0373 -0.1955 -0.1455
  265loPI   C4A 4234  12.122  11.481   8.839  0.1430 -0.2468 -0.1364
  265loPI   C5A 4235  12.270  11.584   8.459 -0.1731 -0.0107 -0.0988
  265loPI   C6A 4236  12.638  11.545   8.282 -0.0015  0.1301 -0.1911
  265loPI   C1B 4237  11.412  10.812   9.538 -0.1225 -0.0087  0.0733
  265loPI   C2B 4238  11.380  10.734   9.102  0.0957  0.2208  0.0058
  265loPI   C3B 4239  11.640  10.698   8.656 -0.1531 -0.2939  0.0595
  265loPI   C4B 4240  11.525  10.618   8.288 -0.2726 -0.2014  0.1413
  266loPI    C1 4241   4.354   4.826  10.340  0.1313 -0.0059  0.0916
  266loPI    C2 4242   3.963   4.783  10.413  0.1315 -0.0568  0.0631
  266loPI    C3 4243   4.136   5.141  10.452 -0.0199  0.0743 -0.4050
  266loPI   PO4 4244   4.415   4.705  10.077 -0.1389 -0.2710  0.2862
  266loPI   GL1 4245   4.475   4.792   9.643 -0.3377 -0.1663  0.1375
  266loPI   GL2 4246   4.597   4.419   9.625  0.3303  0.0908  0.0315
  266loPI   C1A 4247   4.268   4.623   9.276  0.3251 -0.3209  0.0724
  266loPI   C2A 4248   4.275   4.432   8.972 -0.0012  0.2117 -0.1867
  266loPI   C3A 4249   4.270   4.462   8.461  0.2553  0.1080 -0.0086
  266loPI   C4A 4250   4.423   4.769   8.023  0.3324 -0.1519  0.0241
  266loPI   C5A 4251   4.363   5.130   7.738  0.0522  0.2859 -0.0606
  266loPI   C6A 4252   4.568   5.109   7.349  0.2390  0.2057  0.1638
  266loPI   C1B 4253   4.815   4.544   9.277 -0.0372  0.0659  0.0358
  266loPI   C2B 4254   4.670   4.675   8.872 -0.0366 -0.2515  0.3641
  266loPI   C3B 4255   4.691   4.717   8.402 -0.4249  0.0930 -0.2814
  266loPI   C4B 4256   5.047   4.684   8.225 -0.3978  0.1031  0.2745
  267loPI    C1 4257  10.477  12.851  10.112  0.1790  0.0714  0.0082
  267loPI    C2 4258  10.702  13.107  10.322  0.1003  0.0346  0.1377
  267loPI    C3 4259  10.669  12.725  10.439 -0.1454  0.0740  0.2038
  267loPI   PO4 4260  10.232  12.962  10.115 -0.0279 -0.0195  0.3354
  267loPI   GL1 4261   9.912  12.931   9.890  0.0189 -0.1177  0.2633
  267loPI   GL2 4262   9.579  13.042   9.940  0.0282 -0.1834 -0.2897
  267loPI   C1A 4263  10.058  13.205   9.509 -0.2201  0.0725 -0.1388
  267loPI   C2A 4264  10.422  13.490   9.407  0.1146 -0.2373 -0.0884
  267loPI   C3A 4265  10.575  13.588   9.016 -0.0223 -0.3027  0.0714
  267loPI   C4A 4266  10.803  13.490   8.682  0.3041  0.0779 -0.4703
  267loPI   C5A 4267  10.795  13.409   8.274 -0.0573 -0.0054 -0.1578
  267loPI   C6A 4268  10.856  13.283   7.815  0.3224  0.0928  0.0464
  267loPI   C1B 4269   9.605  13.073   9.481  0.4639  0.1572  0.1265
  267loPI   C2B 4270   9.382  13.115   9.100 -0.2082  0.0553  0.0891
  267loPI   C3B 4271   9.351  13.241   8.726 -0.1050  0.1378  0.0207
  267loPI   C4B 4272   9.502  13.130   8.337 -0.1502  0.1022  0.0158
  268loPI    C1 4273   9.369  14.782  10.887  0.0033  0.2666 -0.0917
  268loPI    C2 4274   9.444  14.874  11.269  0.0440  0.3745 -0.1253
  268loPI    C3 4275   9.742  14.755  11.030 -0.0525 -0.1239 -0.0088
  268loPI   PO4 4276   9.231  14.955  10.746  0.1450  0.0980  0.0414
  268loPI   GL1 4277   9.368  15.096  10.367  0.1172 -0.2450  0.1082
  268loPI   GL2 4278   9.224  15.339  10.300  0.0646  0.2383 -0.0582
  268loPI   C1A 4279   9.796  15.148  10.239 -0.1697  0.1873 -0.1720
  268loPI   C2A 4280  10.147  15.148  10.087  0.0304  0.0979  0.1594
  268loPI   C3A 4281  10.268  15.077   9.586  0.2202 -0.0875  0.0130
  268loPI   C4A 4282  10.066  14.972   9.220  0.3773  0.2624 -0.2583
  268loPI   C5A 4283  10.114  14.873   8.791  0.0030  0.2453  0.1129
  268loPI   C6A 4284   9.918  14.815   8.483 -0.2577 -0.0005  0.1038
  268loPI   C1B 4285   9.379  15.364   9.992 -0.0978 -0.0806  0.2267
  268loPI   C2B 4286   9.548  15.158   9.706  0.0992 -0.1179 -0.0338
  268loPI   C3B 4287   9.556  15.134   9.310  0.1612 -0.0421  0.2274
  268loPI   C4B 4288   9.606  14.998   8.902 -0.1747 -0.0801 -0.0209
  269loPI    C1 4289   5.803   8.599  10.525  0.0053 -0.2141 -0.0339
  269loPI    C2 4290   5.478   8.831  10.503  0.1275 -0.0618 -0.2879
  269loPI    C3 4291   5.583   8.666  10.853  0.0802  0.3267 -0.0851
  269loPI   PO4 4292   6.043   8.775  10.339  0.1234  0.1032 -0.0239
  269loPI   GL1 4293   5.820   8.724  10.015  0.1849 -0.1734  0.4321
  269loPI   GL2 4294   5.706   8.523  10.033  0.0229 -0.1295 -0.1665
  269loPI   C1A 4295   5.913   8.802   9.531  0.3980 -0.0883 -0.1043
  269loPI   C2A 4296   6.028   9.098   9.233 -0.1633  0.1385  0.0273
  269loPI   C3A 4297   6.021   9.315   8.788 -0.0506 -0.2262 -0.0676
  269loPI   C4A 4298   5.858   9.297   8.382  0.2056 -0.0365 -0.1333
  269loPI   C5A 4299   5.696   9.348   8.063 -0.0967  0.0135  0.1223
  269loPI   C6A 4300   5.270   9.184   7.830 -0.1817  0.1315 -0.1227
  269loPI   C1B 4301   5.805   8.316   9.648 -0.0692  0.2176 -0.0161
  269loPI   C2B 4302   5.764   8.330   9.283  0.0111  0.3889  0.0609
  269loPI   C3B 4303   5.819   8.629   8.999 -0.2246 -0.1820  0.0122
  269loPI   C4B 4304   5.738   8.942   8.749  0.0172  0.2198  0.0895
  270loPI    C1 4305  15.358   3.152  10.694  0.2019 -0.2529  0.1379
  270loPI    C2 4306  15.536   2.954  10.992  0.1222 -0.3664  0.1104
  270loPI    C3 4307  15.140   3.011  10.998  0.1255 -0.3362  0.0452
  270loPI   PO4 4308  15.421   3.053  10.501 -0.1002  0.2564  0.0886
  270loPI   GL1 4309  15.437   3.168  10.045 -0.1895 -0.2829  0.0838
  270loPI   GL2 4310  15.647   2.886  10.034  0.0388  0.0898  0.0211
  270loPI   C1A 4311  15.222   3.309   9.761 -0.4203 -0.0182  0.0561
  270loPI   C2A 4312  15.194   3.177   9.344  0.2242 -0.2692 -0.1105
  270loPI   C3A 4313  15.205   3.186   8.960 -0.0255  0.1641 -0.0762
  270loPI   C4A 4314  15.190   3.084   8.462  0.0391 -0.2019 -0.0873
  270loPI   C5A 4315  15.056   3.006   8.091  0.0568 -0.0173  0.2004
  270loPI   C6A 4316  15.256   2.710   7.824 -0.0513 -0.1071  0.1381
  270loPI   C1B 4317  15.627   2.825   9.610  0.1000  0.0938 -0.2887
  270loPI   C2B 4318  15.499   2.764   9.149 -0.0527 -0.0312  0.1744
  270loPI   C3B 4319  15.582   2.821   8.779  0.1973  0.0086 -0.1619
  270loPI   C4B 4320  15.503   2.730   8.273 -0.1296  0.1232 -0.1494
  271loPI    C1 4321   4.570  17.577  10.653 -0.1219 -0.1973 -0.0461
  271loPI    C2 4322   4.591  17.591  11.052 -0.0475  0.0008 -0.0558
  271loPI    C3 4323   4.235  17.601  10.871 -0.0899 -0.2537  0.0095
  271loPI   PO4 4324   4.652  17.364  10.540  0.2633 -0.1542 -0.0088
  271loPI   GL1 4325   4.572  17.210  10.088  0.0003 -0.2327 -0.1892
  271loPI   GL2 4326   4.897  17.245   9.834  0.1593 -0.1764 -0.0414
  271loPI   C1A 4327   4.437  17.085   9.696  0.3573  0.2395 -0.1392
  271loPI   C2A 4328   4.318  17.156   9.325  0.0988  0.1040 -0.0259
  271loPI   C3A 4329   4.385  17.293   9.000  0.0458 -0.1991  0.4676
  271loPI   C4A 4330   4.420  17.498   8.634 -0.1857 -0.0187 -0.0189
  271loPI   C5A 4331   4.219  17.272   8.266 -0.1789  0.1098  0.1101
  271loPI   C6A 4332   3.818  17.085   8.273  0.0181 -0.1437 -0.1684
  271loPI   C1B 4333   4.890  17.288   9.442  0.2261  0.0326  0.1920
  271loPI   C2B 4334   4.947  17.239   8.993 -0.0017 -0.1755  0.0777
  271loPI   C3B 4335   4.852  17.345   8.548 -0.2642  0.1470  0.1294
  271loPI   C4B 4336   4.725  17.363   8.186 -0.0632 -0.1958  0.1779
  272loPI    C1 4337   7.027   6.073  10.277 -0.1189 -0.0081 -0.0132
  272loPI    C2 4338   7.355   6.007  10.497 -0.1940 -0.0028  0.1016
  272loPI    C3 4339   7.014   5.816  10.583 -0.2035 -0.0611 -0.0611
  272loPI   PO4 4340   7.139   5.958   9.991  0.2157 -0.1483 -0.1597
  272loPI   GL1 4341   7.028   5.690   9.752  0.1730  0.1405  0.1028
  272loPI   GL2 4342   7.271   5.420   9.861 -0.0762 -0.0166  0.1210
  272loPI   C1A 4343   7.084   5.588   9.389  0.2111  0.1871 -0.0203
  272loPI   C2A 4344   7.498   5.628   9.093 -0.1459 -0.2502  0.2060
  272loPI   C3A 4345   7.627   5.577   8.582  0.2799  0.1543  0.0789
  272loPI   C4A 4346   7.745   5.783   8.232  0.0000  0.0687 -0.1558
  272loPI   C5A 4347   7.672   6.146   7.956  0.1114 -0.0216 -0.1058
  272loPI   C6A 4348   7.513   6.466   7.663  0.1945 -0.0047 -0.0622
  272loPI   C1B 4349   7.401   5.254   9.405  0.1355  0.0508 -0.1560
  272loPI   C2B 4350   7.432   5.128   8.899 -0.2886 -0.0290  0.3441
  272loPI   C3B 4351   7.402   5.131   8.425  0.0802  0.1404 -0.1748
  272loPI   C4B 4352   7.571   5.352   8.058  0.2620  0.2107  0.2543
  273loPI    C1 4353  16.610   1.097  10.622 -0.0596  0.1331 -0.1311
  273loPI    C2 4354  16.752   1.071  10.996 -0.0709 -0.0363 -0.1380
  273loPI    C3 4355  16.984   1.214  10.704 -0.0097 -0.0486 -0.0955
  273loPI   PO4 4356  16.351   1.203  10.592  0.0187 -0.1833  0.0797
  273loPI   GL1 4357  16.008   1.120  10.362 -0.0034 -0.0762 -0.2146
  273loPI   GL2 4358  15.791   1.131  10.520 -0.0992  0.1512 -0.0243
  273loPI   C1A 4359  15.835   1.105   9.978  0.2359  0.1533  0.1800
  273loPI   C2A 4360  15.798   1.000   9.531 -0.2447 -0.0519 -0.0429
  273loPI   C3A 4361  15.727   1.100   9.120 -0.0321 -0.1506 -0.2153
  273loPI   C4A 4362  15.554   0.997   8.715 -0.2189  0.1612 -0.1421
  273loPI   C5A 4363  15.439   0.676   8.462  0.3270 -0.0432  0.1038
  273loPI   C6A 4364  15.472   0.324   8.298 -0.0815 -0.0383 -0.1043
  273loPI   C1B 4365  15.450   1.024  10.366 -0.2377  0.0141 -0.4379
  273loPI   C2B 4366  15.309   1.094   9.925  0.4188 -0.0287 -0.0634
  273loPI   C3B 4367  15.293   1.188   9.405 -0.1322 -0.1247  0.0854
  273loPI   C4B 4368  15.060   1.244   9.013 -0.0261 -0.1589  0.1526
  274loPI    C1 4369  11.309   6.682  10.770 -0.1099 -0.3782  0.0686
  274loPI    C2 4370  11.036   6.834  11.020  0.0022 -0.1107  0.0313
  274loPI    C3 4371  11.414   6.786  11.142  0.0110 -0.1743 -0.0209
  274loPI   PO4 4372  11.109   6.530  10.613  0.0588  0.4182  0.0240
  274loPI   GL1 4373  11.054   6.331  10.258 -0.3026 -0.1145 -0.1627
  274loPI   GL2 4374  10.815   6.438  10.153 -0.0230  0.0797 -0.1917
  274loPI   C1A 4375  11.404   6.249   9.966 -0.0932 -0.0948 -0.2525
  274loPI   C2A 4376  11.403   6.086   9.469 -0.1014  0.0712 -0.0916
  274loPI   C3A 4377  11.342   5.975   9.130  0.0787  0.2188 -0.3474
  274loPI   C4A 4378  11.278   6.039   8.699  0.2058  0.1956  0.1842
  274loPI   C5A 4379  11.090   6.102   8.321  0.2223  0.1990 -0.0147
  274loPI   C6A 4380  10.944   5.808   8.052 -0.1295 -0.4874  0.0209
  274loPI   C1B 4381  11.050   6.538   9.764  0.1232 -0.1413 -0.5037
  274loPI   C2B 4382  11.023   6.362   9.386 -0.2274  0.1678 -0.0620
  274loPI   C3B 4383  10.848   6.442   8.917 -0.0027  0.0106 -0.0035
  274loPI   C4B 4384  10.677   6.326   8.483  0.0386 -0.1034  0.1560
  275loPI    C1 4385  13.423  14.259  10.981  0.1456 -0.1037  0.0104
  275loPI    C2 4386  13.187  14.498  11.198  0.2333 -0.0199  0.0144
  275loPI    C3 4387  13.367  14.185  11.370  0.2658  0.0193  0.0523
  275loPI   PO4 4388  13.270  14.223  10.777  0.0346  0.3258 -0.0761
  275loPI   GL1 4389  13.058  14.061  10.497 -0.1851 -0.0096  0.0561
  275loPI   GL2 4390  13.192  14.355  10.315  0.0245 -0.0981  0.1286
  275loPI   C1A 4391  12.987  13.831  10.171  0.3654 -0.0471  0.1007
  275loPI   C2A 4392  13.049  13.759   9.734 -0.0473  0.0479 -0.1718
  275loPI   C3A 4393  12.959  13.616   9.324 -0.1079 -0.1266  0.0329
  275loPI   C4A 4394  13.020  13.458   8.831 -0.0081  0.0575  0.0981
  275loPI   C5A 4395  13.169  13.403   8.483 -0.2290  0.0326 -0.0997
  275loPI   C6A 4396  13.490  13.232   8.263 -0.1502 -0.0331 -0.0442
  275loPI   C1B 4397  13.213  14.240   9.826 -0.1670 -0.0535 -0.0436
  275loPI   C2B 4398  13.243  14.124   9.379 -0.1556  0.0489 -0.1163
  275loPI   C3B 4399  13.088  13.996   9.028  0.1239 -0.3081  0.0723
  275loPI   C4B 4400  13.037  13.887   8.561  0.1979 -0.0501  0.2169
  276loPI    C1 4401  14.479   1.372  10.582 -0.1191  0.0946  0.2700
  276loPI    C2 4402  14.593   1.197  10.923  0.0270 -0.0519  0.1474
  276loPI    C3 4403  14.812   1.151  10.592 -0.0483  0.1895  0.0620
  276loPI   PO4 4404  14.433   1.593  10.580 -0.3234 -0.0223 -0.0558
  276loPI   GL1 4405  14.297   1.767  10.176 -0.3000 -0.0184 -0.3544
  276loPI   GL2 4406  14.475   1.450  10.097  0.0762 -0.3985  0.1099
  276loPI   C1A 4407  13.937   1.743   9.884 -0.3930 -0.0727 -0.1555
  276loPI   C2A 4408  13.821   1.917   9.531  0.0086  0.2203 -0.1665
  276loPI   C3A 4409  13.874   1.808   9.106  0.2361  0.2691 -0.2241
  276loPI   C4A 4410  13.972   1.859   8.715  0.0029  0.0042 -0.4055
  276loPI   C5A 4411  13.777   1.606   8.345  0.0586  0.0922  0.0364
  276loPI   C6A 4412  13.505   1.458   8.072 -0.1152  0.4011 -0.0896
  276loPI   C1B 4413  14.362   1.540   9.711  0.2616  0.1912  0.1521
  276loPI   C2B 4414  14.215   1.618   9.352  0.4077 -0.1716  0.3611
  276loPI   C3B 4415  14.293   1.497   8.922  0.2102  0.2405 -0.1907
  276loPI   C4B 4416  14.242   1.387   8.512  0.3842  0.1566 -0.1911
  277loPI    C1 4417  11.401   1.743  10.854 -0.0731  0.0830 -0.0001
  277loPI    C2 4418  11.319   2.061  10.625 -0.0416  0.1046  0.0186
  277loPI    C3 4419  11.602   2.085  10.906 -0.0211  0.0521  0.0025
  277loPI   PO4 4420  11.468   1.555  10.715  0.1253 -0.1445  0.3068
  277loPI   GL1 4421  11.516   1.522  10.281  0.2403  0.1016 -0.0282
  277loPI   GL2 4422  11.090   1.675  10.353  0.2226  0.0136 -0.0894
  277loPI   C1A 4423  11.398   1.419   9.863  0.2919  0.1586  0.2035
  277loPI   C2A 4424  11.454   1.465   9.379  0.0618  0.0433 -0.2054
  277loPI   C3A 4425  11.507   1.479   8.925  0.0582 -0.1792  0.0360
  277loPI   C4A 4426  11.445   1.335   8.440 -0.0492  0.3402 -0.1480
  277loPI   C5A 4427  11.367   1.075   8.077 -0.3359 -0.0084  0.1308
  277loPI   C6A 4428  11.330   1.074   7.661 -0.0198  0.1266  0.2360
  277loPI   C1B 4429  11.052   1.879   9.988  0.3299 -0.2390 -0.2189
  277loPI   C2B 4430  11.131   1.826   9.498  0.0767  0.1376 -0.2394
  277loPI   C3B 4431  11.204   1.932   9.150 -0.0190 -0.0754 -0.0962
  277loPI   C4B 4432  11.312   1.965   8.729 -0.0144  0.2271 -0.1987
  278loPI    C1 4433   8.302   3.619   9.905 -0.4708 -0.2771  0.1233
  278loPI    C2 4434   8.388   3.461  10.262 -0.1520 -0.1057  0.1262
  278loPI    C3 4435   8.336   3.856  10.226 -0.1228 -0.1155 -0.0278
  278loPI   PO4 4436   8.074   3.513   9.780  0.0617  0.2220  0.0772
  278loPI   GL1 4437   7.896   3.354   9.468 -0.1414  0.2970 -0.2399
  278loPI   GL2 4438   7.746   3.723   9.437  0.1135  0.0290  0.1111
  278loPI   C1A 4439   8.076   3.180   9.151 -0.0780  0.3910  0.1643
  278loPI   C2A 4440   8.213   2.909   8.813  0.1511  0.0312  0.2056
  278loPI   C3A 4441   8.061   2.696   8.384 -0.1949  0.1296 -0.0188
  278loPI   C4A 4442   8.192   3.017   8.068 -0.1559  0.0255 -0.1013
  278loPI   C5A 4443   8.004   3.118   7.677  0.3429 -0.0280  0.0300
  278loPI   C6A 4444   7.816   3.482   7.598  0.0300 -0.4382  0.2141
  278loPI   C1B 4445   7.920   3.681   9.020 -0.0026 -0.1725 -0.0310
  278loPI   C2B 4446   8.122   3.460   8.673 -0.3120 -0.1558 -0.0585
  278loPI   C3B 4447   8.475   3.259   8.385  0.0111  0.1137  0.0390
  278loPI   C4B 4448   8.583   2.854   8.451 -0.0677 -0.2120 -0.2318
  279loPI    C1 4449  16.387   9.802  10.878  0.1370  0.0833  0.2818
  279loPI    C2 4450  16.346   9.460  11.080  0.0197 -0.0182  0.0881
  279loPI    C3 4451  16.498   9.781  11.262  0.2207 -0.1989  0.2444
  279loPI   PO4 4452  16.525   9.776  10.663 -0.1279 -0.1536  0.0336
  279loPI   GL1 4453  16.716   9.867  10.223  0.1812 -0.0189 -0.0273
  279loPI   GL2 4454  16.363   9.964  10.219 -0.4231  0.0511  0.1316
  279loPI   C1A 4455  16.675   9.638   9.848  0.0705  0.0779  0.0382
  279loPI   C2A 4456  16.600   9.431   9.523 -0.0333  0.2049 -0.1148
  279loPI   C3A 4457  16.583   9.415   9.089 -0.2819  0.2256 -0.2804
  279loPI   C4A 4458  16.733   9.467   8.626 -0.0244 -0.0577  0.0570
  279loPI   C5A 4459  16.733   9.159   8.251 -0.0717 -0.0400  0.0913
  279loPI   C6A 4460  16.673   8.710   8.130 -0.0656  0.2620 -0.1128
  279loPI   C1B 4461  16.269   9.929   9.794 -0.1816 -0.0579  0.2695
  279loPI   C2B 4462  16.379   9.867   9.412 -0.1078 -0.0918 -0.1268
  279loPI   C3B 4463  16.247   9.946   9.001 -0.1449 -0.0840  0.5510
  279loPI   C4B 4464  16.036  10.207   8.942 -0.2096 -0.4359 -0.1830
  280loPI    C1 4465   9.847   0.373  10.952  0.0748  0.3563 -0.1416
  280loPI    C2 4466  10.200   0.364  10.764  0.0978 -0.0014 -0.0897
  280loPI    C3 4467  10.140   0.620  11.066  0.3604 -0.0326 -0.0089
  280loPI   PO4 4468   9.695   0.251  10.621 -0.0431  0.0206  0.0550
  280loPI   GL1 4469   9.626   0.122  10.183 -0.3726 -0.1977  0.0286
  280loPI   GL2 4470   9.466   0.243  10.004  0.0695 -0.0314 -0.1013
  280loPI   C1A 4471   9.956   0.233   9.826 -0.1662 -0.2080 -0.1999
  280loPI   C2A 4472   9.977   0.306   9.366  0.1661 -0.1364 -0.0553
  280loPI   C3A 4473  10.016   0.336   8.944  0.1053 -0.3178  0.1514
  280loPI   C4A 4474   9.963   0.605   8.507 -0.0214 -0.1277  0.1126
  280loPI   C5A 4475   9.964   0.826   8.075 -0.0342 -0.3498 -0.1031
  280loPI   C6A 4476   9.736   1.029   7.718  0.0478 -0.0686  0.0352
  280loPI   C1B 4477   9.481   0.196   9.608  0.1202 -0.4241  0.2929
  280loPI   C2B 4478   9.531   0.177   9.205 -0.3545 -0.2048 -0.0987
  280loPI   C3B 4479   9.514   0.276   8.797  0.1263  0.1011  0.2170
  280loPI   C4B 4480   9.540   0.312   8.411  0.3410 -0.1271 -0.3691
  281loPI    C1 4481   4.691   2.143  10.462  0.0210  0.2047 -0.0223
  281loPI    C2 4482   5.028   2.264  10.641  0.1047 -0.0724  0.0122
  281loPI    C3 4483   4.963   1.874  10.578 -0.3821 -0.0549  0.3510
  281loPI   PO4 4484   4.616   2.246  10.252  0.1663 -0.1342 -0.0392
  281loPI   GL1 4485   4.441   2.356   9.936 -0.2771  0.0854 -0.4830
  281loPI   GL2 4486   4.606   2.599   9.863 -0.0042 -0.3321 -0.0742
  281loPI   C1A 4487   4.370   2.294   9.498 -0.0943 -0.2409 -0.0715
  281loPI   C2A 4488   4.318   2.363   9.075 -0.2294 -0.0038  0.0513
  281loPI   C3A 4489   4.395   2.237   8.685 -0.1933 -0.1792  0.2229
  281loPI   C4A 4490   4.239   2.063   8.299  0.1514  0.0913 -0.2098
  281loPI   C5A 4491   4.393   1.891   7.842  0.3962 -0.1997  0.0792
  281loPI   C6A 4492   4.635   2.177   7.538  0.0458 -0.2015  0.0229
  281loPI   C1B 4493   4.668   2.670   9.407  0.1479  0.4652 -0.0808
  281loPI   C2B 4494   4.686   2.675   8.940  0.3463 -0.0904 -0.3476
  281loPI   C3B 4495   4.569   2.637   8.523 -0.0246 -0.1812 -0.0477
  281loPI   C4B 4496   4.574   2.462   8.040 -0.2399  0.0343  0.1400
  282loPI    C1 4497   2.410   4.954  11.018  0.1883 -0.1766 -0.1243
  282loPI    C2 4498   2.558   5.297  10.875  0.0443 -0.1030 -0.0985
  282loPI    C3 4499   2.767   5.085  11.142 -0.0051  0.1264  0.1261
  282loPI   PO4 4500   2.334   4.782  10.776  0.0988  0.0883  0.1099
  282loPI   GL1 4501   2.501   4.951  10.364 -0.3294  0.0520  0.0030
  282loPI   GL2 4502   2.295   4.808  10.285  0.1818 -0.1248  0.1827
  282loPI   C1A 4503   2.743   4.788  10.050 -0.3112  0.2844  0.1016
  282loPI   C2A 4504   2.958   4.845   9.674 -0.1539  0.2106  0.1268
  282loPI   C3A 4505   2.907   4.833   9.266 -0.1647  0.0380  0.1345
  282loPI   C4A 4506   2.822   4.670   8.964  0.1710 -0.3075  0.3515
  282loPI   C5A 4507   2.649   4.710   8.572  0.3136 -0.0946  0.1118
  282loPI   C6A 4508   2.373   4.831   8.240 -0.0140  0.0978  0.0293
  282loPI   C1B 4509   2.284   4.813   9.897  0.2244  0.0809  0.1981
  282loPI   C2B 4510   1.922   4.627   9.602 -0.0927  0.0391 -0.1475
  282loPI   C3B 4511   1.698   4.530   9.132  0.0953  0.1827  0.2486
  282loPI   C4B 4512   1.503   4.667   8.775  0.2237 -0.0614 -0.0464
  283loPI    C1 4513   5.156  12.724  10.828  0.0875 -0.0435 -0.1143
  283loPI    C2 4514   5.503  12.833  10.993  0.1006  0.0031 -0.1722
  283loPI    C3 4515   5.274  12.558  11.172  0.1444  0.0074 -0.1092
  283loPI   PO4 4516   5.326  12.799  10.544  0.0126 -0.2867 -0.2556
  283loPI   GL1 4517   5.274  13.025  10.153  0.0794 -0.3764  0.0069
  283loPI   GL2 4518   5.231  12.657  10.013  0.0743  0.0646  0.1712
  283loPI   C1A 4519   5.243  13.304   9.845 -0.1976 -0.1012 -0.0113
  283loPI   C2A 4520   5.388  13.593   9.562  0.0328  0.0453 -0.1720
  283loPI   C3A 4521   5.461  13.935   9.268  0.0937 -0.1745  0.1649
  283loPI   C4A 4522   5.456  14.071   8.896  0.0520 -0.0396 -0.1836
  283loPI   C5A 4523   5.630  14.258   8.530  0.0868  0.0864  0.2711
  283loPI   C6A 4524   5.901  13.945   8.256  0.2071  0.4217 -0.2079
  283loPI   C1B 4525   5.514  12.744   9.732  0.0695  0.2154  0.0715
  283loPI   C2B 4526   5.602  13.056   9.456 -0.1714 -0.2072  0.0526
  283loPI   C3B 4527   5.577  13.183   9.090  0.2702 -0.1726  0.0758
  283loPI   C4B 4528   5.409  13.562   8.992  0.2271 -0.0977  0.1956
  284loPI    C1 4529   5.973   2.829  10.087 -0.0404 -0.0459  0.0385
  284loPI    C2 4530   5.974   2.740  10.477  0.2993  0.0300  0.0582
  284loPI    C3 4531   5.773   3.060  10.346  0.0263 -0.1033  0.1421
  284loPI   PO4 4532   6.286   2.831   9.924  0.0495 -0.3470  0.1607
  284loPI   GL1 4533   6.461   2.675   9.579 -0.1697 -0.1990  0.0899
  284loPI   GL2 4534   6.512   3.021   9.468  0.1228 -0.1970  0.0962
  284loPI   C1A 4535   6.790   2.453   9.438 -0.1926 -0.2466 -0.0795
  284loPI   C2A 4536   6.859   2.357   9.059 -0.2744 -0.2870  0.1652
  284loPI   C3A 4537   6.950   2.517   8.608  0.0331 -0.2633 -0.0306
  284loPI   C4A 4538   7.155   2.505   8.198  0.1114 -0.0956 -0.2406
  284loPI   C5A 4539   7.319   2.493   7.762  0.1087  0.0548 -0.0163
  284loPI   C6A 4540   7.631   2.753   7.688 -0.0826  0.1718  0.0147
  284loPI   C1B 4541   6.708   2.881   9.046  0.2558  0.0541  0.2150
  284loPI   C2B 4542   6.550   2.960   8.625 -0.1155 -0.0488  0.0713
  284loPI   C3B 4543   6.342   3.074   8.303 -0.0270 -0.1842 -0.1802
  284loPI   C4B 4544   5.980   3.145   7.984  0.3397  0.1285 -0.1266
  285loPI    C1 4545   5.025   7.226  10.822  0.0729 -0.0254  0.2596
  285loPI    C2 4546   5.403   7.099  10.859  0.1399  0.0564 -0.1090
  285loPI    C3 4547   5.316   7.486  10.910  0.1072  0.0393 -0.0343
  285loPI   PO4 4548   4.923   7.103  10.557  0.2521  0.2810 -0.2836
  285loPI   GL1 4549   5.070   6.864  10.112  0.0080 -0.0265  0.0646
  285loPI   GL2 4550   4.880   7.048   9.898  0.0314  0.1699  0.1844
  285loPI   C1A 4551   5.336   7.083   9.725 -0.1220 -0.0018  0.1135
  285loPI   C2A 4552   5.395   7.018   9.265 -0.1004  0.1991  0.0969
  285loPI   C3A 4553   5.492   6.933   8.802  0.0776 -0.1137  0.0038
  285loPI   C4A 4554   5.532   6.716   8.362  0.0115 -0.0408  0.3793
  285loPI   C5A 4555   5.774   6.830   7.943 -0.1295  0.0218  0.2634
  285loPI   C6A 4556   6.031   7.115   7.656  0.1051  0.0142 -0.0319
  285loPI   C1B 4557   4.957   6.796   9.562  0.3107  0.0139 -0.0868
  285loPI   C2B 4558   4.924   6.448   9.251  0.0607  0.3274  0.2140
  285loPI   C3B 4559   4.742   6.315   8.863 -0.1035 -0.0430 -0.1584
  285loPI   C4B 4560   4.550   6.112   8.416 -0.1121  0.1758  0.1945
  286loPI    C1 4561  13.983  10.447  11.082  0.2085  0.0318 -0.1659
  286loPI    C2 4562  13.863  10.370  11.456  0.1580 -0.2575 -0.2393
  286loPI    C3 4563  13.852  10.744  11.315 -0.1646 -0.2005 -0.0711
  286loPI   PO4 4564  14.127  10.397  11.017 -0.1265  0.2434  0.0879
  286loPI   GL1 4565  14.218  10.479  10.623  0.1679  0.1196 -0.0030
  286loPI   GL2 4566  13.887  10.558  10.534 -0.1700 -0.0277  0.1123
  286loPI   C1A 4567  14.210  10.569  10.143 -0.2809  0.1004  0.1552
  286loPI   C2A 4568  14.280  10.490   9.677 -0.1847  0.0108  0.1522
  286loPI   C3A 4569  14.441  10.417   9.317  0.0305 -0.2922 -0.0893
  286loPI   C4A 4570  14.470  10.509   8.814  0.0669  0.3504 -0.3282
  286loPI   C5A 4571  14.248  10.391   8.493  0.2333 -0.4654 -0.0345
  286loPI   C6A 4572  14.385  10.193   8.133 -0.1522  0.1782 -0.3911
  286loPI   C1B 4573  13.826  10.280  10.172  0.0530 -0.0699 -0.0982
  286loPI   C2B 4574  13.863  10.285   9.824 -0.2861 -0.1880  0.1589
  286loPI   C3B 4575  13.900  10.414   9.356  0.2311  0.1278 -0.1813
  286loPI   C4B 4576  14.003  10.385   8.940 -0.1862  0.0805  0.2617
  287loPI    C1 4577   6.137   2.307   9.926 -0.0386 -0.0617 -0.0720
  287loPI    C2 4578   6.297   2.469  10.254  0.0937  0.1102 -0.2193
  287loPI    C3 4579   6.531   2.372   9.944 -0.0264 -0.0787 -0.2527
  287loPI   PO4 4580   5.980   2.412   9.778  0.1231  0.2384 -0.0500
  287loPI   GL1 4581   6.099   2.424   9.269  0.2980 -0.0927 -0.0478
  287loPI   GL2 4582   6.345   2.203   9.444 -0.3438 -0.0007  0.0381
  287loPI   C1A 4583   6.353   2.470   8.935 -0.0221 -0.1897  0.2990
  287loPI   C2A 4584   6.494   2.400   8.556  0.2632 -0.2874  0.0011
  287loPI   C3A 4585   6.604   2.606   8.196 -0.3176  0.1223 -0.2092
  287loPI   C4A 4586   6.348   2.813   7.802 -0.2337  0.1204  0.0597
  287loPI   C5A 4587   6.249   2.659   7.311  0.3760 -0.0506 -0.2760
  287loPI   C6A 4588   6.183   2.498   6.934  0.3538  0.0133 -0.2530
  287loPI   C1B 4589   6.430   1.979   9.136  0.3073 -0.1030  0.1483
  287loPI   C2B 4590   6.442   1.956   8.732  0.2651  0.1517 -0.0421
  287loPI   C3B 4591   6.562   1.952   8.318 -0.1504 -0.1225  0.0514
  287loPI   C4B 4592   6.589   1.758   7.891 -0.4063 -0.0436 -0.0779
  288loPI    C1 4593   8.291  13.510  10.441  0.1698 -0.1678 -0.0055
  288loPI    C2 4594   8.052  13.197  10.367 -0.0588 -0.0237  0.1129
  288loPI    C3 4595   7.980  13.435  10.681  0.1258  0.1358  0.0367
  288loPI   PO4 4596   8.354  13.539  10.139 -0.0985 -0.2629 -0.0120
  288loPI   GL1 4597   8.545  13.468   9.747  0.0844 -0.3030  0.2696
  288loPI   GL2 4598   8.834  13.622   9.857  0.1478 -0.2231  0.1054
  288loPI   C1A 4599   8.298  13.340   9.389 -0.0773  0.0351  0.1418
  288loPI   C2A 4600   8.164  13.426   8.989 -0.0591  0.1756 -0.2139
  288loPI   C3A 4601   8.248  13.530   8.627  0.4259  0.1486  0.3372
  288loPI   C4A 4602   8.365  13.600   8.116 -0.0940 -0.1101 -0.0882
  288loPI   C5A 4603   8.789  13.769   7.759 -0.3065  0.1333  0.1092
  288loPI   C6A 4604   9.062  14.222   7.858  0.1669  0.1118 -0.0558
  288loPI   C1B 4605   8.758  13.634   9.340 -0.2572 -0.0948 -0.0118
  288loPI   C2B 4606   8.695  13.459   8.907 -0.2893 -0.2024 -0.3579
  288loPI   C3B 4607   8.699  13.458   8.460  0.0399 -0.0910 -0.1606
  288loPI   C4B 4608   8.947  13.719   8.201  0.0746  0.1700 -0.1182
  289loPI    C1 4609  14.197  11.600  11.183 -0.0675  0.0173  0.0279
  289loPI    C2 4610  14.568  11.604  11.333 -0.0771  0.0013  0.0519
  289loPI    C3 4611  14.260  11.498  11.564 -0.0791 -0.1255 -0.0078
  289loPI   PO4 4612  14.132  11.465  10.907 -0.1454 -0.2713  0.1822
  289loPI   GL1 4613  14.254  11.577  10.482 -0.0304 -0.0243 -0.1851
  289loPI   GL2 4614  14.567  11.719  10.400  0.3661  0.0971  0.0098
  289loPI   C1A 4615  14.182  11.760  10.098 -0.4158  0.1186  0.3415
  289loPI   C2A 4616  14.056  11.888   9.703 -0.1065 -0.3008 -0.0873
  289loPI   C3A 4617  14.052  11.823   9.205  0.3689  0.4233 -0.0500
  289loPI   C4A 4618  13.932  11.912   8.758  0.1652  0.3028 -0.0373
  289loPI   C5A 4619  13.682  12.033   8.463 -0.0135  0.2252 -0.1685
  289loPI   C6A 4620  13.432  12.048   8.038  0.2997  0.0682 -0.1532
  289loPI   C1B 4621  14.595  12.035  10.027 -0.0392  0.2291  0.1192
  289loPI   C2B 4622  14.552  11.933   9.664 -0.0466 -0.1321  0.2745
  289loPI   C3B 4623  14.568  11.886   9.243 -0.2320 -0.0294 -0.2877
  289loPI   C4B 4624  14.538  11.767   8.841  0.0319 -0.1335  0.0725
  290loPI    C1 4625  10.316   6.716  10.652 -0.0894  0.2625 -0.0023
  290loPI    C2 4626  10.512   6.966  10.895 -0.0952  0.3021 -0.0383
  290loPI    C3 4627  10.698   6.810  10.577 -0.0232  0.0849  0.1091
  290loPI   PO4 4628  10.094   6.815  10.568  0.1685 -0.2256  0.0165
  290loPI   GL1 4629   9.739   6.633  10.255 -0.2377 -0.1535 -0.2181
  290loPI   GL2 4630   9.831   6.412  10.018 -0.1526  0.1971  0.3576
  290loPI   C1A 4631   9.617   6.928   9.904 -0.1175  0.1699 -0.0865
  290loPI   C2A 4632   9.558   6.834   9.432  0.0424 -0.0274 -0.1562
  290loPI   C3A 4633   9.638   6.821   9.031  0.1391 -0.1534  0.2342
  290loPI   C4A 4634   9.617   6.743   8.574 -0.0559 -0.1703 -0.1543
  290loPI   C5A 4635   9.786   7.066   8.235 -0.2159 -0.3886 -0.0145
  290loPI   C6A 4636  10.043   7.419   8.120  0.2370 -0.1958 -0.3261
  290loPI   C1B 4637   9.893   6.605   9.652  0.2086  0.1647 -0.0786
  290loPI   C2B 4638   9.999   6.562   9.214  0.2191 -0.2249  0.0645
  290loPI   C3B 4639   9.957   6.422   8.839 -0.2144 -0.0206  0.1173
  290loPI   C4B 4640  10.126   6.578   8.429  0.1879 -0.2465 -0.0660
  291loPI    C1 4641   5.905   1.864  10.075 -0.1304  0.1024  0.2272
  291loPI    C2 4642   5.901   1.807  10.471  0.0455 -0.1132  0.2000
  291loPI    C3 4643   6.225   1.963  10.294 -0.1292  0.2253  0.1707
  291loPI   PO4 4644   5.778   1.594   9.964 -0.2473  0.2726  0.0187
  291loPI   GL1 4645   5.564   1.555   9.626 -0.0179 -0.4398  0.0690
  291loPI   GL2 4646   5.182   1.736   9.574 -0.1354 -0.0658 -0.1763
  291loPI   C1A 4647   5.406   1.851   9.159 -0.0702  0.1802 -0.1399
  291loPI   C2A 4648   5.519   1.868   8.698 -0.0095 -0.2542  0.0400
  291loPI   C3A 4649   5.677   1.900   8.279  0.1149 -0.2104 -0.1365
  291loPI   C4A 4650   5.851   1.924   7.853 -0.0850 -0.1098  0.0071
  291loPI   C5A 4651   6.180   1.861   7.528  0.1954 -0.2501 -0.0095
  291loPI   C6A 4652   6.564   1.657   7.351 -0.0918 -0.1973  0.0129
  291loPI   C1B 4653   4.943   1.707   9.232  0.0632  0.0870 -0.1971
  291loPI   C2B 4654   5.020   1.683   8.817 -0.2512  0.0498 -0.0608
  291loPI   C3B 4655   5.031   1.668   8.376  0.1033  0.2031 -0.1639
  291loPI   C4B 4656   4.914   1.788   7.997  0.4249  0.0818  0.1706
  292loPI    C1 4657   9.885   8.549  10.768 -0.3947 -0.0242  0.0614
  292loPI    C2 4658   9.708   8.875  10.916  0.1579  0.2329  0.1806
  292loPI    C3 4659   9.787   8.565  11.156 -0.3088  0.0305  0.0814
  292loPI   PO4 4660   9.853   8.533  10.519  0.0168 -0.3523  0.1795
  292loPI   GL1 4661   9.776   8.247  10.179  0.1428 -0.2479 -0.1572
  292loPI   GL2 4662   9.442   8.376  10.173  0.1684 -0.0254 -0.0030
  292loPI   C1A 4663   9.904   8.191   9.721 -0.1714  0.1747 -0.0331
  292loPI   C2A 4664  10.033   8.076   9.241  0.0037  0.1561 -0.0761
  292loPI   C3A 4665  10.214   8.041   8.829 -0.0169  0.1282 -0.3245
  292loPI   C4A 4666  10.023   7.898   8.402  0.1142  0.1158  0.1850
  292loPI   C5A 4667  10.081   7.888   7.927 -0.0930  0.0447 -0.3249
  292loPI   C6A 4668   9.890   8.307   7.628  0.0505  0.4564 -0.1214
  292loPI   C1B 4669   9.437   8.385   9.725  0.0424 -0.1851 -0.1392
  292loPI   C2B 4670   9.582   8.309   9.373  0.1336 -0.2145 -0.0930
  292loPI   C3B 4671   9.694   8.356   8.947  0.0239  0.2768 -0.0651
  292loPI   C4B 4672   9.810   8.392   8.532 -0.3989 -0.0661  0.2827
  293loPI    C1 4673  10.210   4.089  10.569 -0.1111  0.4575 -0.0587
  293loPI    C2 4674  10.036   3.806  10.792  0.2911  0.3047  0.0690
  293loPI    C3 4675   9.869   4.169  10.764 -0.1668  0.0954 -0.0018
  293loPI   PO4 4676  10.348   3.999  10.374 -0.0220  0.1591 -0.0087
  293loPI   GL1 4677  10.500   3.961   9.957  0.2704  0.3661  0.0344
  293loPI   GL2 4678  10.312   4.229   9.957  0.1341 -0.2736  0.1961
  293loPI   C1A 4679  10.497   3.587   9.667  0.1579 -0.0670 -0.3538
  293loPI   C2A 4680  10.635   3.815   9.303 -0.2379 -0.1535 -0.1706
  293loPI   C3A 4681  10.671   3.695   8.836 -0.1364 -0.1138 -0.0192
  293loPI   C4A 4682  10.618   3.783   8.454  0.1534  0.0858 -0.0169
  293loPI   C5A 4683  10.542   3.590   8.000 -0.1303 -0.0024 -0.0322
  293loPI   C6A 4684  10.659   3.733   7.574 -0.0069  0.0711 -0.1100
  293loPI   C1B 4685  10.310   4.161   9.500 -0.4110  0.0740  0.0608
  293loPI   C2B 4686  10.263   4.160   9.023 -0.2542 -0.0447 -0.0687
  293loPI   C3B 4687  10.224   4.201   8.570  0.0319 -0.0610 -0.1514
  293loPI   C4B 4688  10.096   3.924   8.256  0.1153  0.0658  0.0991
  294loPI    C1 4689   3.683  11.021  10.341 -0.0957  0.3502 -0.1335
  294loPI    C2 4690   3.874  10.956  10.687  0.0357  0.1361 -0.2436
  294loPI    C3 4691   3.600  10.695  10.558 -0.1274  0.2964 -0.2261
  294loPI   PO4 4692   3.595  11.240  10.319 -0.0622  0.1592  0.1165
  294loPI   GL1 4693   3.499  11.443   9.958  0.0430  0.2122 -0.1512
  294loPI   GL2 4694   3.634  11.682   9.952  0.0650 -0.0449  0.0523
  294loPI   C1A 4695   3.346  11.285   9.643  0.2455  0.1358 -0.4319
  294loPI   C2A 4696   3.304  11.207   9.147  0.2058  0.1512  0.3006
  294loPI   C3A 4697   2.954  11.269   8.904  0.0138 -0.0074  0.2299
  294loPI   C4A 4698   2.560  11.470   8.679 -0.0272  0.1313  0.3847
  294loPI   C5A 4699   2.498  11.768   8.340 -0.0839 -0.1238 -0.0953
  294loPI   C6A 4700   2.624  11.827   7.863 -0.2124 -0.1639  0.0020
  294loPI   C1B 4701   3.479  11.658   9.424 -0.0495  0.2700 -0.2296
  294loPI   C2B 4702   3.509  11.621   8.955  0.3108  0.1371 -0.2167
  294loPI   C3B 4703   3.459  11.373   8.658  0.0494  0.1337  0.1390
  294loPI   C4B 4704   3.083  11.214   8.398  0.0836  0.0595  0.1104
  295loPI    C1 4705   5.389   3.111   9.954  0.0673 -0.3461  0.3670
  295loPI    C2 4706   5.272   3.272  10.301 -0.1486  0.0588  0.1138
  295loPI    C3 4707   5.000   3.155  10.033  0.0183  0.0920 -0.0729
  295loPI   PO4 4708   5.566   3.255   9.881  0.1324  0.4416  0.0392
  295loPI   GL1 4709   5.810   3.046   9.541 -0.2294  0.1487 -0.0992
  295loPI   GL2 4710   5.968   2.858   9.520 -0.0049 -0.0345 -0.1836
  295loPI   C1A 4711   5.638   3.132   9.152 -0.1221  0.0538  0.0259
  295loPI   C2A 4712   5.650   3.212   8.758  0.0109 -0.2420  0.1790
  295loPI   C3A 4713   5.621   2.902   8.458 -0.0060  0.1948 -0.0108
  295loPI   C4A 4714   5.562   2.445   8.445 -0.0131 -0.1430  0.3382
  295loPI   C5A 4715   5.230   2.155   8.392 -0.0561  0.3856  0.0318
  295loPI   C6A 4716   4.786   2.117   8.384  0.0161 -0.0665 -0.0623
  295loPI   C1B 4717   6.159   2.914   9.103 -0.1283  0.1334  0.2608
  295loPI   C2B 4718   6.138   3.255   8.824  0.3507  0.0540 -0.0653
  295loPI   C3B 4719   6.024   3.501   8.468 -0.3223 -0.1237  0.1303
  295loPI   C4B 4720   6.121   3.693   8.025  0.0198  0.1025  0.0875
  296loPI    C1 4721  17.554   7.637  10.865  0.0755  0.0474 -0.1409
  296loPI    C2 4722  17.475   7.245  10.892 -0.0604  0.0896  0.1042
  296loPI    C3 4723  17.805   7.395  11.062 -0.0499  0.0945  0.0795
  296loPI   PO4 4724  17.623   7.680  10.550  0.0309  0.0176 -0.0763
  296loPI   GL1 4725  17.542   7.854  10.227 -0.1173  0.2451  0.1791
  296loPI   GL2 4726  17.577   8.187  10.109 -0.1699  0.1060  0.1272
  296loPI   C1A 4727  17.504   7.916   9.737  0.2227  0.0332  0.1234
  296loPI   C2A 4728  17.666   7.887   9.345  0.1723  0.0219  0.1539
  296loPI   C3A 4729  17.656   7.763   8.950 -0.0132  0.2860 -0.0537
  296loPI   C4A 4730  17.588   7.912   8.579 -0.1436  0.0172  0.0802
  296loPI   C5A 4731  17.621   7.693   8.211 -0.0604 -0.2021 -0.0124
  296loPI   C6A 4732  17.715   7.547   7.742  0.1373  0.1107  0.1006
  296loPI   C1B 4733  17.342   8.582   9.856  0.2593  0.0266 -0.2381
  296loPI   C2B 4734  17.302   8.747   9.503  0.2704 -0.0479  0.0164
  296loPI   C3B 4735  17.389   8.738   9.140  0.0224 -0.1889  0.2051
  296loPI   C4B 4736  17.382   8.982   8.755  0.0896 -0.2218  0.0666
  297loPI    C1 4737   3.110   1.772  10.334 -0.2312 -0.2263  0.0845
  297loPI    C2 4738   3.259   1.468  10.546 -0.0317 -0.1855  0.0047
  297loPI    C3 4739   3.194   1.821  10.722 -0.0149 -0.1975  0.0354
  297loPI   PO4 4740   3.332   1.839  10.156 -0.0733  0.4319  0.1298
  297loPI   GL1 4741   3.596   2.022   9.919 -0.0219  0.1502  0.2110
  297loPI   GL2 4742   3.771   1.945   9.737  0.2777 -0.2848  0.0747
  297loPI   C1A 4743   3.505   2.391   9.711  0.0748  0.3085  0.4736
  297loPI   C2A 4744   3.621   2.767   9.455  0.0977 -0.1609  0.2207
  297loPI   C3A 4745   3.635   2.899   9.007  0.3077 -0.0880  0.2250
  297loPI   C4A 4746   3.675   3.026   8.576 -0.0081 -0.3624  0.0617
  297loPI   C5A 4747   3.857   3.116   8.184 -0.4256 -0.2977 -0.1315
  297loPI   C6A 4748   3.874   2.943   7.732  0.0442 -0.0918  0.0905
  297loPI   C1B 4749   3.948   1.813   9.417  0.0689 -0.1333  0.2081
  297loPI   C2B 4750   4.346   1.834   9.167  0.1730 -0.0400  0.3302
  297loPI   C3B 4751   4.543   1.586   8.909 -0.1123 -0.1369 -0.2043
  297loPI   C4B 4752   4.582   1.404   8.482 -0.0425 -0.2107 -0.0010
  298loPI    C1 4753   7.595   8.806  10.598 -0.1614 -0.1647  0.0530
  298loPI    C2 4754   7.571   8.672  10.974 -0.0584  0.1516  0.1760
  298loPI    C3 4755   7.256   8.852  10.806 -0.1896 -0.2146  0.0182
  298loPI   PO4 4756   7.837   8.687  10.517 -0.2772 -0.1658 -0.0188
  298loPI   GL1 4757   8.023   8.610  10.151 -0.3899  0.1264 -0.1176
  298loPI   GL2 4758   8.092   8.359   9.965  0.0247 -0.1172  0.1376
  298loPI   C1A 4759   7.767   8.639   9.681 -0.1597  0.2180 -0.2336
  298loPI   C2A 4760   7.550   9.034   9.467 -0.2066  0.3261  0.0835
  298loPI   C3A 4761   7.178   9.238   9.220  0.1540 -0.4005  0.1462
  298loPI   C4A 4762   7.031   9.477   8.812  0.0028  0.2069  0.1327
  298loPI   C5A 4763   7.247   9.631   8.419  0.1352  0.0380  0.1987
  298loPI   C6A 4764   7.196   9.533   8.034  0.0092 -0.3761 -0.1749
  298loPI   C1B 4765   8.197   8.269   9.531  0.2936 -0.0061  0.1611
  298loPI   C2B 4766   7.946   8.448   9.249  0.0397  0.0088 -0.1826
  298loPI   C3B 4767   7.838   8.897   9.109 -0.1230 -0.2984  0.0526
  298loPI   C4B 4768   7.589   9.251   8.943  0.0318 -0.0723  0.2388
  299loPI    C1 4769   1.646  10.038  10.387  0.0240  0.1225  0.1971
  299loPI    C2 4770   1.512  10.137  10.751 -0.0036 -0.1463  0.2618
  299loPI    C3 4771   1.898  10.047  10.698  0.0256  0.0131  0.1993
  299loPI   PO4 4772   1.380  10.254  10.243 -0.0527  0.0063 -0.0568
  299loPI   GL1 4773   1.392  10.378   9.906 -0.1795  0.0136  0.3385
  299loPI   GL2 4774   1.540  10.556   9.713  0.0354  0.0413 -0.2677
  299loPI   C1A 4775   1.689  10.098   9.563 -0.0045  0.0774  0.1334
  299loPI   C2A 4776   1.616   9.985   9.182 -0.1513  0.4522 -0.1447
  299loPI   C3A 4777   1.434   9.839   8.756 -0.2347 -0.0415  0.2950
  299loPI   C4A 4778   1.464   9.688   8.375  0.0421 -0.1707 -0.0245
  299loPI   C5A 4779   1.705   9.599   7.943 -0.0095 -0.1255 -0.2314
  299loPI   C6A 4780   2.087   9.336   7.852 -0.0721 -0.1407 -0.0687
  299loPI   C1B 4781   1.533  10.464   9.304 -0.0823  0.1619  0.1302
  299loPI   C2B 4782   1.631  10.396   8.861  0.0021  0.1775 -0.0599
  299loPI   C3B 4783   1.505  10.556   8.429 -0.1958  0.0381  0.1899
  299loPI   C4B 4784   1.348  10.391   7.956  0.2446  0.0460  0.1371
  300loPI    C1 4785   0.765  12.098  10.715  0.0291 -0.2084  0.0036
  300loPI    C2 4786   0.584  12.353  10.965 -0.0234 -0.2271 -0.0150
  300loPI    C3 4787   0.897  12.137  11.090  0.2184  0.0739 -0.0891
  300loPI   PO4 4788   0.619  12.164  10.530 -0.2732  0.0470 -0.2903
  300loPI   GL1 4789   0.600  12.458  10.235  0.1317  0.0483 -0.3247
  300loPI   GL2 4790   0.544  12.143  10.063  0.0765  0.2629 -0.0039
  300loPI   C1A 4791   0.648  12.666   9.846  0.0645  0.0802  0.1257
  300loPI   C2A 4792   0.803  12.910   9.529 -0.1884  0.0627  0.0257
  300loPI   C3A 4793   1.047  12.886   9.172  0.0410  0.2171 -0.0193
  300loPI   C4A 4794   1.088  13.189   8.881 -0.2178 -0.2759  0.3132
  300loPI   C5A 4795   1.252  13.481   8.533 -0.2383 -0.1755  0.0912
  300loPI   C6A 4796   0.946  13.760   8.238 -0.1285  0.0836 -0.5024
  300loPI   C1B 4797   0.736  12.081   9.693  0.1846  0.3314 -0.0379
  300loPI   C2B 4798   0.582  11.891   9.297 -0.4310  0.0195 -0.2350
  300loPI   C3B 4799   0.630  11.852   8.849 -0.1516  0.1068  0.2910
  300loPI   C4B 4800   0.823  11.973   8.488 -0.0184 -0.1353 -0.2385
  301loPI    C1 4801  11.784   9.991  10.891 -0.1992  0.2979 -0.5073
  301loPI    C2 4802  11.432   9.827  10.987 -0.0698  0.1388 -0.2974
  301loPI    C3 4803  11.520  10.197  11.111 -0.0695  0.0896 -0.1486
  301loPI   PO4 4804  11.786  10.001  10.548  0.1195  0.4017 -0.2532
  301loPI   GL1 4805  11.836  10.109  10.216 -0.3278  0.3593  0.1284
  301loPI   GL2 4806  11.499  10.280  10.160 -0.0294 -0.0704 -0.0440
  301loPI   C1A 4807  11.692  10.102   9.708 -0.0490  0.0581 -0.0286
  301loPI   C2A 4808  11.813  10.073   9.310 -0.2486 -0.0153  0.0576
  301loPI   C3A 4809  11.831  10.244   8.993 -0.0890 -0.0466  0.0175
  301loPI   C4A 4810  11.957  10.275   8.573  0.0910  0.1554 -0.0578
  301loPI   C5A 4811  11.785  10.189   8.221  0.1077 -0.0701  0.1644
  301loPI   C6A 4812  11.505  10.311   7.858 -0.1950 -0.0446 -0.1222
  301loPI   C1B 4813  11.267  10.239   9.770 -0.2108 -0.0785 -0.0251
  301loPI   C2B 4814  11.375  10.319   9.371 -0.0354  0.2199 -0.0950
  301loPI   C3B 4815  11.377  10.142   8.980 -0.2142 -0.0554  0.2293
  301loPI   C4B 4816  11.404  10.198   8.528  0.0662  0.3455  0.2052
  302loPI    C1 4817   7.877  15.211  10.639 -0.0195  0.1439 -0.1118
  302loPI    C2 4818   7.779  14.932  10.908 -0.0326  0.0244 -0.2390
  302loPI    C3 4819   7.624  15.299  10.936 -0.0309  0.0140 -0.0821
  302loPI   PO4 4820   7.960  15.109  10.425 -0.0594 -0.1463  0.3653
  302loPI   GL1 4821   7.926  15.081  10.018 -0.0260  0.2147  0.2526
  302loPI   GL2 4822   7.639  14.976  10.015 -0.0595 -0.3792  0.0029
  302loPI   C1A 4823   8.171  14.933   9.741  0.0050  0.0110  0.3848
  302loPI   C2A 4824   8.279  14.933   9.385  0.1682 -0.3357 -0.1159
  302loPI   C3A 4825   8.323  14.875   8.963  0.3837 -0.1783 -0.0381
  302loPI   C4A 4826   8.164  14.911   8.607  0.0459 -0.0024  0.4085
  302loPI   C5A 4827   8.053  14.787   8.245  0.1727  0.1982  0.0769
  302loPI   C6A 4828   7.681  14.747   8.017 -0.1309  0.0180  0.2544
  302loPI   C1B 4829   7.684  14.859   9.516  0.0309 -0.0182  0.0963
  302loPI   C2B 4830   7.744  14.841   9.017  0.0962 -0.1590 -0.2633
  302loPI   C3B 4831   7.702  14.635   8.603 -0.2170  0.0144  0.0787
  302loPI   C4B 4832   7.765  14.354   8.319  0.1266  0.0889  0.0253
  303loPI    C1 4833   9.293   1.545  10.795 -0.1287  0.0982 -0.0906
  303loPI    C2 4834   8.971   1.724  10.951 -0.1551 -0.0789  0.0621
  303loPI    C3 4835   9.063   1.349  11.057  0.0582 -0.0575 -0.0402
  303loPI   PO4 4836   9.222   1.512  10.392  0.0457  0.0027 -0.1861
  303loPI   GL1 4837   9.042   1.639  10.056  0.0577  0.2114  0.0752
  303loPI   GL2 4838   8.956   1.482   9.808 -0.0250 -0.3483 -0.1527
  303loPI   C1A 4839   9.340   1.764   9.729 -0.1245 -0.1956 -0.0611
  303loPI   C2A 4840   9.522   1.734   9.281  0.1911 -0.0566 -0.0940
  303loPI   C3A 4841   9.461   1.805   8.819  0.0982  0.0714 -0.0662
  303loPI   C4A 4842   9.389   1.712   8.366  0.1972 -0.1881  0.1785
  303loPI   C5A 4843   9.454   2.025   7.999 -0.1754  0.0307 -0.3450
  303loPI   C6A 4844   9.798   2.198   7.734 -0.1225  0.3487 -0.1843
  303loPI   C1B 4845   8.984   1.608   9.403 -0.2034  0.0084  0.2291
  303loPI   C2B 4846   9.099   2.023   9.204 -0.0030 -0.3521  0.3945
  303loPI   C3B 4847   9.436   2.276   9.074  0.1507 -0.2871 -0.0559
  303loPI   C4B 4848   9.478   2.581   8.878 -0.1384 -0.1066 -0.0875
  304loPI    C1 4849  12.926   8.529  11.044 -0.0425 -0.1152 -0.0763
  304loPI    C2 4850  13.090   8.867  11.183 -0.0005 -0.1741  0.0184
  304loPI    C3 4851  12.744   8.735  11.334 -0.0397 -0.1501 -0.0497
  304loPI   PO4 4852  12.963   8.520  10.797  0.2129  0.3060 -0.1221
  304loPI   GL1 4853  12.853   8.487  10.405 -0.0098 -0.0243 -0.1389
  304loPI   GL2 4854  12.934   8.860  10.272 -0.0681 -0.0209  0.0821
  304loPI   C1A 4855  12.889   8.343  10.049 -0.2777 -0.1046  0.0113
  304loPI   C2A 4856  12.751   8.119   9.717 -0.1281  0.0599  0.1062
  304loPI   C3A 4857  12.752   8.174   9.281 -0.0145  0.1251 -0.4455
  304loPI   C4A 4858  12.557   8.188   8.962  0.2426 -0.0277 -0.0734
  304loPI   C5A 4859  12.212   8.385   8.686  0.1484 -0.0611 -0.0170
  304loPI   C6A 4860  11.937   8.280   8.336 -0.2747 -0.0033  0.3460
  304loPI   C1B 4861  13.170   8.704   9.932  0.0811 -0.0376 -0.0176
  304loPI   C2B 4862  13.233   8.557   9.658  0.0306  0.0718  0.0664
  304loPI   C3B 4863  13.509   8.480   9.313  0.1726  0.0413  0.3148
  304loPI   C4B 4864  13.593   8.494   8.860  0.0122  0.0444 -0.0998
  305loPI    C1 4865   2.061   3.141  10.559  0.2155 -0.0794 -0.0444
  305loPI    C2 4866   2.415   3.113  10.744  0.2197  0.0398 -0.0331
  305loPI    C3 4867   2.129   3.347  10.896  0.1673  0.0138 -0.0913
  305loPI   PO4 4868   1.975   2.895  10.496 -0.1169  0.0268 -0.0366
  305loPI   GL1 4869   2.120   2.917  10.071 -0.2516 -0.1043 -0.0634
  305loPI   GL2 4870   1.833   2.864  10.017 -0.2531 -0.0749 -0.1044
  305loPI   C1A 4871   2.266   2.983   9.725  0.0079 -0.1831  0.0314
  305loPI   C2A 4872   2.243   2.911   9.334 -0.0197 -0.2044  0.0221
  305loPI   C3A 4873   2.072   2.817   8.963  0.0366  0.0421  0.0498
  305loPI   C4A 4874   1.887   2.693   8.502 -0.2334  0.3095 -0.2122
  305loPI   C5A 4875   1.772   2.551   8.077 -0.3509  0.1873 -0.1104
  305loPI   C6A 4876   2.027   2.628   7.735  0.2124 -0.2542  0.0433
  305loPI   C1B 4877   1.894   2.698   9.588  0.1807 -0.3689 -0.1709
  305loPI   C2B 4878   1.886   2.478   9.285  0.0557 -0.0199 -0.0314
  305loPI   C3B 4879   1.735   2.317   8.858  0.1841 -0.0243  0.0313
  305loPI   C4B 4880   1.493   2.311   8.479  0.0711 -0.0695 -0.1519
  306loPI    C1 4881   2.654   6.662  10.478 -0.1377  0.0269  0.0074
  306loPI    C2 4882   2.422   6.610  10.799  0.0740 -0.3249  0.1093
  306loPI    C3 4883   2.683   6.912  10.789 -0.0360 -0.2256  0.2057
  306loPI   PO4 4884   2.525   6.625  10.272 -0.0315  0.0977 -0.0783
  306loPI   GL1 4885   2.528   6.362   9.951  0.1580  0.0886  0.1121
  306loPI   GL2 4886   2.922   6.502   9.974 -0.2421 -0.0766 -0.0524
  306loPI   C1A 4887   2.450   6.426   9.499 -0.2243  0.0703 -0.1884
  306loPI   C2A 4888   2.478   6.402   9.081  0.0362 -0.0226 -0.0009
  306loPI   C3A 4889   2.420   6.383   8.645 -0.1194  0.2187 -0.2112
  306loPI   C4A 4890   2.517   6.267   8.276 -0.1010  0.1583  0.3476
  306loPI   C5A 4891   2.432   5.928   8.110 -0.3623 -0.1666  0.0459
  306loPI   C6A 4892   2.433   5.503   8.111  0.1634  0.1130 -0.1966
  306loPI   C1B 4893   2.959   6.876   9.610 -0.0246  0.0212 -0.2349
  306loPI   C2B 4894   2.899   6.825   9.103 -0.1041  0.0905  0.0786
  306loPI   C3B 4895   2.958   6.723   8.669  0.0246  0.0511 -0.0128
  306loPI   C4B 4896   2.910   6.537   8.201 -0.2547 -0.1392 -0.0681
  307loPI    C1 4897  13.544  16.409  10.461  0.0403 -0.1946  0.0668
  307loPI    C2 4898  13.554  16.363  10.858 -0.1154  0.0175  0.0970
  307loPI    C3 4899  13.521  16.729  10.700  0.1167 -0.0512 -0.1159
  307loPI   PO4 4900  13.365  16.267  10.369 -0.2580  0.0656 -0.0549
  307loPI   GL1 4901  13.252  16.188  10.061  0.1496 -0.1260 -0.0854
  307loPI   GL2 4902  13.196  16.533   9.982  0.0256 -0.2281 -0.1658
  307loPI   C1A 4903  13.117  16.114   9.679 -0.3456  0.0594 -0.2177
  307loPI   C2A 4904  13.282  16.214   9.267 -0.3063 -0.1060  0.0807
  307loPI   C3A 4905  13.074  16.254   8.925 -0.1292 -0.1802 -0.1544
  307loPI   C4A 4906  12.768  16.152   8.581  0.2062 -0.0899  0.0748
  307loPI   C5A 4907  12.323  16.011   8.390  0.1408  0.1251  0.1120
  307loPI   C6A 4908  11.916  15.855   8.293 -0.0164 -0.0647 -0.0026
  307loPI   C1B 4909  12.782  16.547   9.794 -0.3005 -0.0533 -0.0245
  307loPI   C2B 4910  12.494  16.288   9.753 -0.0639 -0.1392 -0.1284
  307loPI   C3B 4911  12.169  16.149   9.446 -0.1646 -0.0315 -0.0946
  307loPI   C4B 4912  12.038  16.266   9.047 -0.2889  0.1093 -0.1390
  308loPI    C1 4913  13.280   7.315  10.532 -0.1597  0.1769 -0.1728
  308loPI    C2 4914  12.960   7.082  10.591 -0.3113  0.4199 -0.0190
  308loPI    C3 4915  13.195   7.181  10.899 -0.0272  0.1607 -0.1474
  308loPI   PO4 4916  13.233   7.510  10.447 -0.2083 -0.1457 -0.0748
  308loPI   GL1 4917  13.014   7.585  10.114 -0.0196 -0.2326  0.2421
  308loPI   GL2 4918  13.030   7.174   9.981 -0.0850  0.1492 -0.2854
  308loPI   C1A 4919  13.117   7.675   9.745 -0.0288  0.1136 -0.0588
  308loPI   C2A 4920  13.039   7.732   9.369 -0.1273 -0.0216 -0.3184
  308loPI   C3A 4921  12.829   7.753   9.070 -0.0835  0.0861 -0.1558
  308loPI   C4A 4922  12.767   7.804   8.582 -0.2815 -0.1707 -0.0391
  308loPI   C5A 4923  12.419   8.001   8.391  0.1749 -0.0706  0.3200
  308loPI   C6A 4924  12.426   8.374   8.236  0.1026  0.1006  0.1826
  308loPI   C1B 4925  13.062   7.206   9.523 -0.0731 -0.5647 -0.1134
  308loPI   C2B 4926  13.097   7.247   9.085  0.4889 -0.0393 -0.0297
  308loPI   C3B 4927  13.101   7.452   8.743 -0.1738  0.1437  0.0503
  308loPI   C4B 4928  13.160   7.638   8.329  0.4646 -0.2384  0.1004
  309loPI    C1 4929  16.660  11.623  10.624 -0.1163  0.0664 -0.2329
  309loPI    C2 4930  16.324  11.630  10.407 -0.3104  0.0762  0.0614
  309loPI    C3 4931  16.498  11.281  10.495 -0.3310  0.0607  0.0410
  309loPI   PO4 4932  16.787  11.748  10.499 -0.0911  0.0708 -0.2116
  309loPI   GL1 4933  16.882  11.743  10.040 -0.1052 -0.1711  0.0058
  309loPI   GL2 4934  16.743  11.502  10.066 -0.3246  0.1459 -0.0469
  309loPI   C1A 4935  16.789  11.617   9.583  0.3127  0.2480  0.4960
  309loPI   C2A 4936  16.400  11.490   9.444 -0.1386  0.0229 -0.1485
  309loPI   C3A 4937  16.217  11.100   9.230 -0.2325  0.2371 -0.2641
  309loPI   C4A 4938  16.163  10.846   8.837 -0.0284 -0.0229 -0.0462
  309loPI   C5A 4939  15.759  10.722   8.659 -0.3300  0.2047  0.0411
  309loPI   C6A 4940  15.466  10.781   8.276 -0.2721 -0.1205  0.2475
  309loPI   C1B 4941  16.374  11.453   9.973  0.2696  0.1076 -0.0223
  309loPI   C2B 4942  16.224  11.067   9.777  0.1432  0.4109 -0.0728
  309loPI   C3B 4943  16.166  10.662   9.685  0.0787  0.1055 -0.2859
  309loPI   C4B 4944  15.955  10.350   9.477 -0.0691 -0.0015 -0.3861
  310loPI    C1 4945   4.471  12.659  10.526  0.0280  0.1540 -0.1573
  310loPI    C2 4946   4.257  12.699  10.861 -0.0425 -0.4712 -0.1151
  310loPI    C3 4947   4.655  12.737  10.872 -0.0714 -0.1616 -0.0296
  310loPI   PO4 4948   4.369  12.669  10.347 -0.0484  0.1689  0.2086
  310loPI   GL1 4949   4.269  12.752   9.913 -0.3017  0.0656 -0.1367
  310loPI   GL2 4950   4.283  12.407   9.890 -0.2227  0.1905 -0.0148
  310loPI   C1A 4951   4.367  12.575   9.426  0.0720  0.3268 -0.0834
  310loPI   C2A 4952   4.506  12.621   9.035  0.2647  0.1792  0.0506
  310loPI   C3A 4953   4.370  12.260   8.652 -0.3959 -0.2065 -0.2459
  310loPI   C4A 4954   4.189  12.134   8.261  0.2658  0.0868  0.2151
  310loPI   C5A 4955   3.985  12.217   7.968  0.0252 -0.0604 -0.0578
  310loPI   C6A 4956   3.585  12.316   7.947 -0.1311 -0.1354 -0.1862
  310loPI   C1B 4957   4.406  12.107   9.640  0.5667  0.0154  0.3818
  310loPI   C2B 4958   4.582  11.763   9.343  0.0448  0.0705  0.4898
  310loPI   C3B 4959   4.530  11.773   8.816  0.0263 -0.3384 -0.1543
  310loPI   C4B 4960   4.542  11.742   8.373  0.2151 -0.1672  0.0191
  311loPI    C1 4961   5.729   6.837  10.549 -0.3783 -0.0414  0.0056
  311loPI    C2 4962   5.725   6.727  10.933 -0.0551  0.0801  0.0468
  311loPI    C3 4963   6.052   6.895  10.777 -0.1437 -0.0728 -0.3127
  311loPI   PO4 4964   5.679   6.711  10.361 -0.2879  0.0253 -0.0577
  311loPI   GL1 4965   5.670   6.561   9.865 -0.1388 -0.0526  0.4233
  311loPI   GL2 4966   5.382   6.530   9.645  0.2672  0.0800  0.0213
  311loPI   C1A 4967   5.782   6.785   9.478  0.2017 -0.0874  0.0154
  311loPI   C2A 4968   5.933   6.606   9.129  0.2047 -0.0960  0.1710
  311loPI   C3A 4969   5.798   6.550   8.688  0.0624 -0.2104 -0.1003
  311loPI   C4A 4970   6.028   6.592   8.373 -0.6798  0.0684  0.1421
  311loPI   C5A 4971   6.151   6.525   7.988  0.4004 -0.2603 -0.0926
  311loPI   C6A 4972   6.367   6.737   7.653 -0.4252 -0.0242 -0.0639
  311loPI   C1B 4973   5.410   6.551   9.199  0.1738  0.0584  0.1760
  311loPI   C2B 4974   5.299   6.419   8.806 -0.0757 -0.2658 -0.2838
  311loPI   C3B 4975   5.001   6.466   8.398  0.0457 -0.1193 -0.2521
  311loPI   C4B 4976   4.906   6.302   8.029 -0.2146  0.0780  0.1942
  312loPI    C1 4977  13.962   5.420  10.417  0.1090 -0.1728  0.0272
  312loPI    C2 4978  14.037   5.362  10.806 -0.0562  0.0017  0.0863
  312loPI    C3 4979  13.666   5.448  10.684  0.0091  0.0207 -0.1022
  312loPI   PO4 4980  14.056   5.241  10.298  0.0141 -0.1166  0.3777
  312loPI   GL1 4981  14.444   5.307   9.987  0.0560 -0.0667  0.2255
  312loPI   GL2 4982  14.122   5.296   9.781  0.0517  0.0005  0.0985
  312loPI   C1A 4983  14.638   5.435   9.536  0.3098  0.1048  0.3570
  312loPI   C2A 4984  14.588   5.532   8.999  0.0460 -0.0249  0.1223
  312loPI   C3A 4985  14.310   5.317   8.713  0.1509  0.0179  0.0563
  312loPI   C4A 4986  14.337   5.234   8.347 -0.0236 -0.2664  0.0228
  312loPI   C5A 4987  14.534   5.259   7.955  0.0462 -0.1221  0.0832
  312loPI   C6A 4988  14.504   5.223   7.496  0.1165  0.2508  0.1064
  312loPI   C1B 4989  14.373   5.026   9.491  0.1313 -0.0533  0.2101
  312loPI   C2B 4990  14.546   5.022   9.050  0.3493  0.0991 -0.1174
  312loPI   C3B 4991  14.656   4.979   8.676  0.0499  0.0441  0.0472
  312loPI   C4B 4992  14.708   4.899   8.234 -0.1786  0.0451  0.2271
  313loPI    C1 4993  12.732  12.195  11.111 -0.3091  0.1111 -0.0687
  313loPI    C2 4994  12.971  12.186  11.432 -0.1293  0.1451 -0.2002
  313loPI    C3 4995  12.578  12.249  11.476 -0.1346 -0.0365  0.0282
  313loPI   PO4 4996  12.838  12.206  10.927  0.0617  0.1859  0.0654
  313loPI   GL1 4997  13.155  12.118  10.597  0.0232 -0.0129  0.0297
  313loPI   GL2 4998  13.098  12.457  10.569 -0.0062  0.1183  0.3192
  313loPI   C1A 4999  13.517  11.956  10.148  0.1439 -0.1884  0.0728
  313loPI   C2A 5000  13.566  11.874   9.826 -0.1133 -0.1410 -0.0046
  313loPI   C3A 5001  13.453  11.880   9.512  0.2724  0.1949  0.1749
  313loPI   C4A 5002  13.549  11.744   9.134  0.0843 -0.0923 -0.1236
  313loPI   C5A 5003  13.437  11.697   8.728  0.1332  0.0364 -0.0455
  313loPI   C6A 5004  13.349  11.520   8.442  0.1455 -0.1250 -0.0526
  313loPI   C1B 5005  13.044  12.408  10.106 -0.1027 -0.0756 -0.3286
  313loPI   C2B 5006  13.211  12.263   9.812  0.2089 -0.0426  0.2370
  313loPI   C3B 5007  13.189  12.258   9.414 -0.1626  0.2491 -0.0205
  313loPI   C4B 5008  13.175  12.053   9.039  0.0095  0.0423  0.2303
  314loPI    C1 5009   9.997  11.128  10.856  0.0666 -0.0488  0.0817
  314loPI    C2 5010  10.253  11.362  11.056  0.1357 -0.0728  0.0214
  314loPI    C3 5011   9.967  11.165  11.253  0.0841  0.0538  0.0739
  314loPI   PO4 5012  10.145  10.954  10.782 -0.0901  0.0235 -0.0347
  314loPI   GL1 5013  10.058  10.813  10.395 -0.2262  0.0673 -0.0910
  314loPI   GL2 5014   9.944  11.142  10.387  0.0957 -0.2692 -0.0783
  314loPI   C1A 5015  10.043  10.677   9.989 -0.2920 -0.1190  0.0122
  314loPI   C2A 5016  10.010  10.746   9.612  0.0710  0.0636  0.1509
  314loPI   C3A 5017   9.963  10.713   9.233  0.1589  0.0516  0.1389
  314loPI   C4A 5018   9.789  10.797   8.870  0.1129  0.1923  0.0424
  314loPI   C5A 5019   9.370  10.724   8.623 -0.0534  0.0766 -0.0689
  314loPI   C6A 5020   8.934  10.720   8.869  0.0827 -0.2148 -0.0173
  314loPI   C1B 5021  10.169  11.183  10.070 -0.3349 -0.0028  0.0183
  314loPI   C2B 5022  10.235  11.382   9.729  0.0176  0.0393 -0.1312
  314loPI   C3B 5023  10.214  11.225   9.398  0.0307  0.1797  0.1330
  314loPI   C4B 5024   9.969  11.247   9.043 -0.2284  0.0966 -0.0921
  315loPI    C1 5025  10.975  11.254  10.985  0.2264  0.1382 -0.3329
  315loPI    C2 5026  11.288  11.115  11.192  0.0559  0.1728 -0.0455
  315loPI    C3 5027  11.298  11.484  11.037  0.1647  0.1660 -0.0556
  315loPI   PO4 5028  10.920  11.028  10.849  0.1512 -0.4507  0.1209
  315loPI   GL1 5029  10.946  10.871  10.394  0.1782 -0.0255 -0.0045
  315loPI   GL2 5030  11.083  10.494  10.280 -0.0981 -0.0958 -0.1362
  315loPI   C1A 5031  10.894  11.104  10.009 -0.0341  0.1895  0.2101
  315loPI   C2A 5032  10.977  11.123   9.539 -0.0243  0.0647 -0.3109
  315loPI   C3A 5033  10.896  11.061   9.078  0.2759  0.1158 -0.1665
  315loPI   C4A 5034  11.262  11.112   8.751 -0.1942 -0.2255  0.1282
  315loPI   C5A 5035  11.605  11.186   8.374 -0.1160 -0.0390 -0.0974
  315loPI   C6A 5036  12.026  11.133   8.451  0.1009  0.0661 -0.1081
  315loPI   C1B 5037  10.887  10.517   9.967 -0.0155  0.3579 -0.0076
  315loPI   C2B 5038  10.860  10.582   9.520  0.1454  0.0602 -0.2524
  315loPI   C3B 5039  10.935  10.490   9.107 -0.1239  0.0075  0.0263
  315loPI   C4B 5040  11.120  10.598   8.717 -0.2964  0.2833  0.0329
  316loPI    C1 5041   2.149   7.000  10.639  0.3186 -0.1149  0.0052
  316loPI    C2 5042   2.342   7.163  10.329  0.0263  0.2930  0.0295
  316loPI    C3 5043   2.359   7.336  10.689  0.0342  0.0444  0.1510
  316loPI   PO4 5044   2.042   6.793  10.453 -0.1217 -0.0386  0.0582
  316loPI   GL1 5045   2.012   6.883  10.012 -0.0010 -0.2386  0.0281
  316loPI   GL2 5046   1.735   6.780   9.907  0.2381 -0.0114 -0.0177
  316loPI   C1A 5047   2.360   6.973   9.764  0.1191  0.0503  0.3641
  316loPI   C2A 5048   2.431   6.904   9.236  0.1548  0.1129 -0.2257
  316loPI   C3A 5049   2.416   6.900   8.783  0.1531 -0.0261  0.1382
  316loPI   C4A 5050   2.490   6.800   8.350  0.3910 -0.2093  0.1373
  316loPI   C5A 5051   2.569   7.096   7.951 -0.1934 -0.0152  0.1784
  316loPI   C6A 5052   2.790   7.089   7.633  0.2719  0.0505  0.0821
  316loPI   C1B 5053   1.918   6.927   9.511 -0.1041 -0.0998  0.3130
  316loPI   C2B 5054   1.835   7.096   9.107  0.2993 -0.2864 -0.1256
  316loPI   C3B 5055   1.972   7.235   8.635 -0.1280 -0.0102  0.0383
  316loPI   C4B 5056   2.382   7.311   8.389 -0.0347  0.1761 -0.4083
  317loPI    C1 5057  17.056  17.114  10.893 -0.2074  0.3643  0.0570
  317loPI    C2 5058  16.886  16.959  11.220 -0.2473 -0.1327 -0.1895
  317loPI    C3 5059  17.281  17.023  11.211 -0.2481 -0.1029 -0.0417
  317loPI   PO4 5060  16.963  16.993  10.735  0.0368  0.1323  0.1628
  317loPI   GL1 5061  16.991  17.194  10.338  0.2454  0.0859  0.1239
  317loPI   GL2 5062  17.157  17.010  10.181  0.1070 -0.1048 -0.1648
  317loPI   C1A 5063  16.749  17.351   9.988  0.1491  0.1458 -0.0127
  317loPI   C2A 5064  16.656  17.333   9.659  0.1136  0.1051 -0.2234
  317loPI   C3A 5065  16.463  17.489   9.444 -0.2717  0.1649  0.0193
  317loPI   C4A 5066  16.666  17.739   9.228  0.1079 -0.0207 -0.1444
  317loPI   C5A 5067  16.740  17.711   8.721 -0.0649  0.2321 -0.0477
  317loPI   C6A 5068  16.841  17.641   8.230  0.0369  0.2855 -0.0569
  317loPI   C1B 5069  17.078  17.077   9.658  0.2114  0.2754  0.0503
  317loPI   C2B 5070  16.888  17.067   9.309  0.2554 -0.1980 -0.1760
  317loPI   C3B 5071  16.716  17.266   8.957 -0.1975 -0.3950 -0.0302
  317loPI   C4B 5072  16.892  17.202   8.475 -0.0719 -0.3166 -0.1607
  318loPI    C1 5073  13.356   0.360  11.000  0.0505  0.1721  0.2433
  318loPI    C2 5074  13.123   0.081  11.166  0.1659 -0.0914 -0.0281
  318loPI    C3 5075  13.286   0.366  11.394 -0.1355 -0.1096  0.2175
  318loPI   PO4 5076  13.189   0.381  10.737  0.0275 -0.2745  0.1770
  318loPI   GL1 5077  13.092   0.481  10.406  0.0668 -0.2515 -0.0988
  318loPI   GL2 5078  12.845   0.254  10.345  0.3424 -0.1635  0.2524
  318loPI   C1A 5079  13.037   0.702  10.114  0.1754  0.0676  0.3847
  318loPI   C2A 5080  12.954   0.648   9.717  0.0759 -0.2751 -0.0038
  318loPI   C3A 5081  13.053   0.636   9.343  0.1547 -0.1609  0.2626
  318loPI   C4A 5082  13.015   0.746   8.868 -0.1656 -0.0358 -0.0255
  318loPI   C5A 5083  13.229   0.948   8.519 -0.0357  0.1316 -0.1620
  318loPI   C6A 5084  13.334   1.004   8.030 -0.0129  0.1979  0.0652
  318loPI   C1B 5085  12.967   0.084  10.055  0.0604  0.2405 -0.0412
  318loPI   C2B 5086  12.878   0.125   9.625  0.3654  0.1454  0.0677
  318loPI   C3B 5087  12.870   0.216   9.154 -0.1612 -0.1073  0.1833
  318loPI   C4B 5088  12.782   0.266   8.719  0.2047 -0.1627  0.0671
  319loPI    C1 5089   1.678   0.721  10.649  0.0293  0.1115 -0.0947
  319loPI    C2 5090   1.533   0.861  10.995  0.2660  0.1686 -0.0167
  319loPI    C3 5091   1.777   0.544  10.994  0.0801  0.0236 -0.1540
  319loPI   PO4 5092   1.801   0.916  10.526  0.1776 -0.1533  0.0422
  319loPI   GL1 5093   1.782   1.072  10.080 -0.2085 -0.3875 -0.2315
  319loPI   GL2 5094   2.073   1.369  10.042  0.4398  0.0886 -0.0268
  319loPI   C1A 5095   1.814   0.816   9.665  0.1023 -0.1178  0.0452
  319loPI   C2A 5096   2.014   0.686   9.251  0.1286  0.0238 -0.1416
  319loPI   C3A 5097   1.936   0.611   8.792 -0.0951 -0.3409 -0.1945
  319loPI   C4A 5098   2.029   0.630   8.333  0.3610  0.2023  0.2188
  319loPI   C5A 5099   1.949   0.309   8.095 -0.0150  0.0178 -0.2051
  319loPI   C6A 5100   1.806  -0.082   7.950  0.0309 -0.0215  0.0959
  319loPI   C1B 5101   1.976   1.308   9.532  0.1375 -0.2245  0.1103
  319loPI   C2B 5102   1.965   1.175   9.128  0.0563 -0.1695  0.0360
  319loPI   C3B 5103   2.157   1.082   8.842  0.1362  0.0213 -0.0288
  319loPI   C4B 5104   2.194   1.153   8.508  0.0068 -0.0520 -0.0228
  320loPI    C1 5105   8.247   2.849  10.363 -0.0912  0.1456 -0.1893
  320loPI    C2 5106   8.314   2.465  10.275  0.0940  0.0995  0.1351
  320loPI    C3 5107   8.016   2.563  10.523  0.1407  0.1527  0.1702
  320loPI   PO4 5108   8.248   3.025  10.136 -0.0872 -0.0540  0.1060
  320loPI   GL1 5109   8.272   3.010   9.636  0.1477  0.0677  0.5064
  320loPI   GL2 5110   8.439   2.748   9.525 -0.1871  0.2993  0.0341
  320loPI   C1A 5111   8.568   3.144   9.266  0.5117  0.1145  0.1990
  320loPI   C2A 5112   8.752   3.106   8.863  0.4087  0.2938 -0.1991
  320loPI   C3A 5113   8.997   3.126   8.455  0.0899  0.1045 -0.0879
  320loPI   C4A 5114   9.252   3.119   8.155 -0.2493  0.1678  0.0460
  320loPI   C5A 5115   9.613   3.006   7.948  0.0375  0.1336 -0.2083
  320loPI   C6A 5116   9.896   3.082   7.596 -0.2542 -0.0581  0.4427
  320loPI   C1B 5117   8.079   2.716   9.282 -0.0897  0.1439  0.0116
  320loPI   C2B 5118   7.742   2.720   9.046  0.2003 -0.1893 -0.1595
  320loPI   C3B 5119   7.679   2.832   8.651  0.0672  0.0649 -0.3066
  320loPI   C4B 5120   7.616   2.786   8.235  0.1440 -0.1133  0.1309
  321loPI    C1 5121  12.762  16.378  10.253  0.1021  0.1509  0.0078
  321loPI    C2 5122  12.913  16.043  10.412 -0.3338  0.0088  0.1386
  321loPI    C3 5123  12.753  16.036  10.045  0.1819  0.2141 -0.1005
  321loPI   PO4 5124  12.621  16.503  10.422  0.0969  0.0009  0.0736
  321loPI   GL1 5125  12.223  16.692  10.256 -0.0100 -0.2541  0.0893
  321loPI   GL2 5126  12.475  16.800  10.049  0.0366 -0.0321  0.1096
  321loPI   C1A 5127  12.080  17.042   9.894 -0.1981 -0.1226 -0.3351
  321loPI   C2A 5128  11.781  16.959   9.587  0.0684 -0.1557 -0.1845
  321loPI   C3A 5129  11.626  17.205   9.255 -0.0933 -0.3802 -0.0197
  321loPI   C4A 5130  11.594  17.276   8.834  0.0499 -0.0774 -0.0438
  321loPI   C5A 5131  11.799  17.426   8.537  0.0546 -0.1815  0.1524
  321loPI   C6A 5132  12.002  17.753   8.338 -0.1903 -0.0382 -0.1603
  321loPI   C1B 5133  12.402  16.825   9.577 -0.1140 -0.0525 -0.0105
  321loPI   C2B 5134  12.341  16.704   9.165 -0.1740  0.4203 -0.2615
  321loPI   C3B 5135  12.202  16.643   8.763 -0.0160  0.2557 -0.0370
  321loPI   C4B 5136  12.042  16.372   8.468 -0.0506  0.0348  0.4664
  322loPI    C1 5137   5.377   2.154  10.031  0.0599 -0.0760  0.2138
  322loPI    C2 5138   5.381   1.797  10.211 -0.0340  0.0283  0.4259
  322loPI    C3 5139   5.043   1.933  10.046  0.0466 -0.0579  0.1868
  322loPI   PO4 5140   5.558   2.124   9.841 -0.1446 -0.1142  0.1621
  322loPI   GL1 5141   5.561   2.278   9.399 -0.1361  0.1264  0.1507
  322loPI   GL2 5142   5.577   2.579   9.226  0.2612 -0.2019  0.1892
  322loPI   C1A 5143   5.735   2.200   9.005 -0.2887  0.2162  0.0163
  322loPI   C2A 5144   5.938   2.112   8.635  0.0927 -0.3679 -0.0063
  322loPI   C3A 5145   6.097   2.256   8.274 -0.3739  0.1617 -0.1720
  322loPI   C4A 5146   6.345   2.255   7.879  0.2636  0.6052  0.1529
  322loPI   C5A 5147   6.589   2.449   7.619  0.0450 -0.0288 -0.0673
  322loPI   C6A 5148   6.872   2.711   7.818  0.0758 -0.3068  0.2119
  322loPI   C1B 5149   5.740   2.694   8.861  0.1568 -0.1600  0.3141
  322loPI   C2B 5150   6.065   2.728   8.619  0.0204  0.2231 -0.1383
  322loPI   C3B 5151   5.970   2.702   8.166  0.1133  0.0869 -0.0710
  322loPI   C4B 5152   5.757   2.398   7.955  0.0241  0.0171  0.0903
  323loPI    C1 5153  10.798   8.528  10.784  0.3428  0.0460  0.0999
  323loPI    C2 5154  10.710   8.711  10.439 -0.0359  0.1542  0.2487
  323loPI    C3 5155  10.998   8.856  10.674  0.1048  0.1811  0.0617
  323loPI   PO4 5156  10.923   8.300  10.799  0.1631  0.4773 -0.0549
  323loPI   GL1 5157  10.836   8.021  10.482  0.1315 -0.0609 -0.1434
  323loPI   GL2 5158  10.553   7.826  10.487  0.0727  0.0140  0.0301
  323loPI   C1A 5159  11.063   7.919  10.131  0.0205  0.3343  0.1392
  323loPI   C2A 5160  11.070   7.966   9.727  0.0948 -0.0588  0.1671
  323loPI   C3A 5161  11.040   7.973   9.169 -0.1766  0.1050 -0.0974
  323loPI   C4A 5162  11.102   7.961   8.760  0.0884  0.2821  0.0884
  323loPI   C5A 5163  11.296   7.935   8.407  0.0106  0.1966  0.0615
  323loPI   C6A 5164  11.523   7.961   7.982 -0.3689  0.1132 -0.0845
  323loPI   C1B 5165  10.631   7.564  10.086 -0.0252 -0.1737 -0.0851
  323loPI   C2B 5166  10.491   7.270   9.743 -0.1408 -0.0260 -0.2662
  323loPI   C3B 5167  10.648   7.337   9.374  0.0530 -0.0721 -0.3808
  323loPI   C4B 5168  10.419   7.203   8.989  0.1020 -0.0239 -0.1110
  324loPI    C1 5169  10.136   3.082  10.560 -0.1098  0.0711 -0.0104
  324loPI    C2 5170  10.359   3.412  10.525  0.1397 -0.0756  0.1627
  324loPI    C3 5171  10.524   3.072  10.655 -0.1325 -0.2504  0.0612
  324loPI   PO4 5172   9.922   3.138  10.315  0.4777 -0.1153  0.1772
  324loPI   GL1 5173  10.151   3.055   9.979  0.0097  0.0760  0.2987
  324loPI   GL2 5174  10.201   3.373  10.043 -0.1429 -0.2330 -0.2146
  324loPI   C1A 5175  10.063   3.342   9.545 -0.1000  0.0669 -0.0586
  324loPI   C2A 5176  10.177   3.543   9.212 -0.2624 -0.1410  0.1129
  324loPI   C3A 5177  10.140   3.710   8.828  0.3065 -0.0028 -0.0222
  324loPI   C4A 5178   9.729   4.077   8.769 -0.2947  0.0173 -0.0160
  324loPI   C5A 5179   9.650   4.384   8.406  0.1804 -0.2461  0.0085
  324loPI   C6A 5180   9.811   4.349   7.972  0.3767 -0.0061 -0.1533
  324loPI   C1B 5181  10.032   3.788   9.830  0.0993 -0.0425  0.2834
  324loPI   C2B 5182   9.637   3.989   9.715  0.0578  0.1795  0.0388
  324loPI   C3B 5183   9.534   4.350   9.454  0.1087 -0.0046 -0.0337
  324loPI   C4B 5184   9.435   4.727   9.428  0.1675  0.0869 -0.0076
  325loPI    C1 5185   0.195   9.878  10.662  0.2538 -0.0071  0.1078
  325loPI    C2 5186   0.443   9.650  10.878  0.0165 -0.2090  0.1716
  325loPI    C3 5187   0.153   9.858  11.059 -0.0685 -0.2346  0.0660
  325loPI   PO4 5188   0.193   9.752  10.416 -0.0054  0.1659  0.0278
  325loPI   GL1 5189   0.530   9.826  10.009 -0.0545  0.3044  0.0385
  325loPI   GL2 5190   0.290  10.064   9.948  0.3196 -0.2384  0.2276
  325loPI   C1A 5191   0.780   9.776   9.631 -0.2478 -0.4882 -0.4164
  325loPI   C2A 5192   0.773   9.790   9.080 -0.2690  0.0610  0.2494
  325loPI   C3A 5193   0.929   9.826   8.718 -0.1799  0.0705  0.1043
  325loPI   C4A 5194   0.905   9.644   8.309  0.2120  0.2405  0.0566
  325loPI   C5A 5195   1.055   9.323   8.030 -0.0274 -0.0815  0.1584
  325loPI   C6A 5196   1.046   9.082   7.707 -0.0251 -0.0892 -0.2052
  325loPI   C1B 5197  -0.000  10.139   9.562  0.0167  0.0502  0.0208
  325loPI   C2B 5198   0.004   9.919   9.143 -0.1697  0.2466 -0.5303
  325loPI   C3B 5199  -0.049   9.924   8.745  0.0721 -0.1317  0.0081
  325loPI   C4B 5200  -0.128   9.727   8.344 -0.1916  0.1854 -0.0606
  326loPI    C1 5201   6.705   1.634  10.421  0.2176  0.1695 -0.0106
  326loPI    C2 5202   6.720   2.011  10.288  0.0095  0.2183  0.0989
  326loPI    C3 5203   6.726   1.938  10.681 -0.0776  0.1145  0.0814
  326loPI   PO4 5204   6.668   1.504  10.161  0.1214  0.3778  0.0150
  326loPI   GL1 5205   6.521   1.393   9.788 -0.2263 -0.1027  0.0267
  326loPI   GL2 5206   6.830   1.232   9.753 -0.0058 -0.0795  0.0831
  326loPI   C1A 5207   6.544   1.544   9.409 -0.0490 -0.0374  0.1038
  326loPI   C2A 5208   6.592   1.546   8.962 -0.2227 -0.0378 -0.2590
  326loPI   C3A 5209   6.621   1.442   8.548 -0.0571 -0.0716  0.0941
  326loPI   C4A 5210   6.718   1.313   8.095  0.2535  0.0701  0.2078
  326loPI   C5A 5211   6.709   1.166   7.675  0.1543 -0.1287  0.0846
  326loPI   C6A 5212   6.710   0.922   7.377 -0.2083  0.2514  0.3249
  326loPI   C1B 5213   6.767   1.112   9.345 -0.2137 -0.5406  0.0152
  326loPI   C2B 5214   6.762   1.036   8.919 -0.1586 -0.1483  0.1479
  326loPI   C3B 5215   6.785   0.997   8.489 -0.0416  0.0112 -0.1890
  326loPI   C4B 5216   6.969   0.878   8.079  0.2187  0.2528 -0.3388
  327loPI    C1 5217  11.617   8.988  10.871  0.1345 -0.0040  0.1669
  327loPI    C2 5218  11.875   8.683  10.866  0.1555  0.0161 -0.0238
  327loPI    C3 5219  11.837   8.906  11.195  0.1801 -0.1572  0.0979
  327loPI   PO4 5220  11.607   8.942  10.528  0.0755 -0.1162 -0.0561
  327loPI   GL1 5221  11.723   8.978  10.037  0.1996 -0.3249  0.0910
  327loPI   GL2 5222  11.405   8.761  10.055 -0.1033  0.0791  0.1574
  327loPI   C1A 5223  11.711   9.242   9.739  0.0059  0.3508 -0.0503
  327loPI   C2A 5224  11.814   9.216   9.291 -0.1280 -0.0231  0.2053
  327loPI   C3A 5225  11.992   9.235   8.863 -0.1366 -0.0900 -0.0293
  327loPI   C4A 5226  12.199   8.952   8.502  0.0437  0.2215  0.1351
  327loPI   C5A 5227  12.010   8.762   8.147 -0.1785 -0.0305  0.1337
  327loPI   C6A 5228  11.620   8.549   8.036 -0.1904 -0.3495 -0.0729
  327loPI   C1B 5229  11.493   8.772   9.631  0.0056 -0.1122  0.0084
  327loPI   C2B 5230  11.482   8.818   9.162 -0.0253  0.0673 -0.1293
  327loPI   C3B 5231  11.459   9.160   8.922 -0.1191  0.1977 -0.0438
  327loPI   C4B 5232  11.305   9.222   8.516 -0.1058  0.1286 -0.1109
  328loPI    C1 5233   2.881   2.773  10.751  0.1715  0.0450 -0.0177
  328loPI    C2 5234   2.815   3.035  11.046 -0.0656  0.1869 -0.1934
  328loPI    C3 5235   2.867   2.647  11.131  0.3239  0.2912  0.0719
  328loPI   PO4 5236   2.925   2.981  10.539  0.0690  0.2160 -0.3507
  328loPI   GL1 5237   2.806   2.782  10.084  0.3784 -0.3801  0.0646
  328loPI   GL2 5238   2.526   2.584   9.910 -0.1261  0.1642  0.1892
  328loPI   C1A 5239   2.770   3.060   9.732 -0.1467 -0.1170  0.0727
  328loPI   C2A 5240   2.717   2.983   9.289  0.0838 -0.1406 -0.2339
  328loPI   C3A 5241   2.585   2.915   8.871  0.0106  0.0074 -0.3079
  328loPI   C4A 5242   2.458   3.017   8.616  0.1545 -0.0332  0.0001
  328loPI   C5A 5243   2.441   3.248   8.282 -0.1583  0.0070 -0.2739
  328loPI   C6A 5244   2.225   3.176   7.897  0.1865 -0.1032  0.2431
  328loPI   C1B 5245   2.607   2.563   9.496 -0.1137  0.2622  0.2957
  328loPI   C2B 5246   2.514   2.477   9.084 -0.0998 -0.0937  0.0155
  328loPI   C3B 5247   2.344   2.499   8.648  0.3669  0.2595 -0.1625
  328loPI   C4B 5248   2.360   2.734   8.250  0.1191 -0.1108  0.1838
  329loPI    C1 5249  17.104  16.250  10.693 -0.0180  0.1159  0.1346
  329loPI    C2 5250  17.007  16.246  11.081 -0.2525  0.0259  0.0764
  329loPI    C3 5251  17.123  16.587  10.908  0.0412  0.0273  0.2695
  329loPI   PO4 5252  16.845  16.163  10.485 -0.3311 -0.0002 -0.0980
  329loPI   GL1 5253  16.576  16.356  10.229 -0.2700  0.0636  0.0263
  329loPI   GL2 5254  16.383  16.095  10.443  0.0776  0.0344 -0.0713
  329loPI   C1A 5255  16.364  16.388   9.931  0.2748  0.1221  0.1860
  329loPI   C2A 5256  16.250  16.406   9.500 -0.2077  0.1021 -0.3291
  329loPI   C3A 5257  16.392  16.472   9.055 -0.0042 -0.1112 -0.2819
  329loPI   C4A 5258  16.310  16.287   8.632 -0.0091  0.1552 -0.0967
  329loPI   C5A 5259  16.430  15.991   8.410 -0.0122  0.1068 -0.2131
  329loPI   C6A 5260  16.476  15.580   8.126 -0.2327 -0.1319  0.1760
  329loPI   C1B 5261  16.514  15.891  10.015 -0.2973  0.1609  0.1618
  329loPI   C2B 5262  16.538  15.978   9.639 -0.0343 -0.0316 -0.1675
  329loPI   C3B 5263  16.399  15.922   9.197 -0.2509  0.1150  0.3310
  329loPI   C4B 5264  16.077  15.881   8.864  0.1966 -0.1279 -0.2186
  330loPI    C1 5265  16.563   1.569  10.911 -0.1072 -0.1149 -0.0383
  330loPI    C2 5266  16.625   1.767  11.253 -0.1218 -0.0758 -0.0583
  330loPI    C3 5267  16.900   1.510  11.118 -0.0356  0.0424 -0.1092
  330loPI   PO4 5268  16.484   1.785  10.724  0.0229  0.2225 -0.0507
  330loPI   GL1 5269  16.327   1.750  10.340  0.0526  0.0828 -0.0359
  330loPI   GL2 5270  16.137   1.599  10.313  0.0269  0.2398  0.0807
  330loPI   C1A 5271  16.522   1.784   9.992  0.4052  0.1303 -0.0778
  330loPI   C2A 5272  16.546   1.585   9.695  0.0545 -0.0137 -0.0007
  330loPI   C3A 5273  16.596   1.525   9.262 -0.1463  0.1174 -0.1826
  330loPI   C4A 5274  16.598   1.561   8.814 -0.2963 -0.0043 -0.1586
  330loPI   C5A 5275  16.865   1.677   8.474  0.1313 -0.1254  0.0467
  330loPI   C6A 5276  17.028   1.821   8.161  0.1740  0.2622  0.1048
  330loPI   C1B 5277  16.070   1.546   9.818 -0.1825  0.1275 -0.4164
  330loPI   C2B 5278  16.091   1.517   9.441 -0.2043 -0.4809  0.0686
  330loPI   C3B 5279  16.086   1.477   9.037 -0.1360 -0.1069  0.0134
  330loPI   C4B 5280  16.058   1.150   8.743 -0.0854  0.0237 -0.3034
  331loPI    C1 5281   1.844  15.256  10.825  0.1869  0.1271  0.1797
  331loPI    C2 5282   1.867  15.650  10.891 -0.0109  0.1501  0.1166
  331loPI    C3 5283   2.001  15.393  11.166 -0.2013  0.2562  0.3115
  331loPI   PO4 5284   1.949  15.200  10.597 -0.3513 -0.2336  0.2517
  331loPI   GL1 5285   2.180  15.195  10.261 -0.1423  0.2295 -0.4697
  331loPI   GL2 5286   2.322  14.931  10.118  0.1514 -0.2365  0.1411
  331loPI   C1A 5287   2.047  15.406   9.906 -0.0932 -0.1981 -0.2396
  331loPI   C2A 5288   2.031  15.435   9.491  0.1802 -0.1666 -0.1843
  331loPI   C3A 5289   2.062  15.381   9.128 -0.1323  0.2669  0.2028
  331loPI   C4A 5290   1.962  15.520   8.810 -0.0090 -0.0745  0.0743
  331loPI   C5A 5291   2.097  15.548   8.444  0.1013  0.0733 -0.1081
  331loPI   C6A 5292   2.094  15.443   8.006  0.2157  0.0496 -0.2436
  331loPI   C1B 5293   2.109  14.960   9.625 -0.0998  0.3113 -0.1224
  331loPI   C2B 5294   2.228  14.875   9.255  0.0602  0.0281  0.0351
  331loPI   C3B 5295   2.169  14.657   8.767  0.2056 -0.0811 -0.1851
  331loPI   C4B 5296   1.795  14.519   8.527 -0.1307  0.2303 -0.0343
  332loPI    C1 5297   1.253   4.768  10.500 -0.1209 -0.0721  0.1415
  332loPI    C2 5298   1.413   4.668  10.852 -0.1123 -0.0125  0.1547
  332loPI    C3 5299   1.438   5.045  10.722  0.0753 -0.0797 -0.0096
  332loPI   PO4 5300   1.447   4.596  10.305  0.0048  0.2781 -0.0814
  332loPI   GL1 5301   1.451   4.484   9.921 -0.2942 -0.1575  0.0250
  332loPI   GL2 5302   1.297   4.229   9.840 -0.2514 -0.4104 -0.1734
  332loPI   C1A 5303   1.471   4.857   9.666  0.1218 -0.0647 -0.0572
  332loPI   C2A 5304   1.253   4.761   9.264 -0.0305  0.2809 -0.0263
  332loPI   C3A 5305   0.993   4.704   8.898  0.1395 -0.3554 -0.0840
  332loPI   C4A 5306   1.106   4.814   8.470 -0.1545  0.0140  0.0180
  332loPI   C5A 5307   1.099   4.509   8.054  0.1164  0.2580 -0.0278
  332loPI   C6A 5308   0.670   4.330   7.739 -0.0725  0.0886  0.0511
  332loPI   C1B 5309   1.323   4.286   9.450  0.0245  0.1294 -0.1727
  332loPI   C2B 5310   1.221   4.283   9.001 -0.0160  0.0223  0.0689
  332loPI   C3B 5311   1.273   4.288   8.566  0.3281  0.0460  0.1218
  332loPI   C4B 5312   1.087   4.038   8.219  0.2024  0.0718 -0.2784
  333loPI    C1 5313   9.699   0.974  10.394 -0.1135  0.0162 -0.1600
  333loPI    C2 5314   9.719   0.770  10.737 -0.0891  0.0698 -0.1295
  333loPI    C3 5315   9.944   0.660  10.425  0.2619  0.3189  0.0280
  333loPI   PO4 5316   9.712   1.208  10.481  0.0419 -0.1632  0.2558
  333loPI   GL1 5317   9.659   1.608  10.075  0.2383  0.1747 -0.3324
  333loPI   GL2 5318   9.564   1.989  10.128  0.0400 -0.0454 -0.1681
  333loPI   C1A 5319   9.859   1.778   9.690 -0.1842 -0.2729  0.2257
  333loPI   C2A 5320  10.027   1.771   9.233  0.3791  0.1099  0.0512
  333loPI   C3A 5321   9.954   1.981   8.898 -0.0825  0.0310  0.0749
  333loPI   C4A 5322   9.912   1.872   8.441  0.1719 -0.2000  0.1161
  333loPI   C5A 5323  10.092   1.948   8.021  0.1117 -0.2011 -0.0999
  333loPI   C6A 5324  10.385   2.112   7.655  0.2842 -0.2531 -0.1084
  333loPI   C1B 5325   9.787   2.268   9.809  0.4260  0.0875 -0.2278
  333loPI   C2B 5326   9.853   2.424   9.407  0.1130  0.0147 -0.1261
  333loPI   C3B 5327   9.996   2.487   9.006 -0.2942  0.1579 -0.1654
  333loPI   C4B 5328  10.173   2.371   8.528  0.1226  0.1073 -0.0457
  334loPI    C1 5329  15.130  11.144  10.976  0.0803 -0.2320  0.1265
  334loPI    C2 5330  15.271  11.053  11.339 -0.1271  0.3968  0.3785
  334loPI    C3 5331  14.889  11.164  11.295 -0.1769  0.0709 -0.0807
  334loPI   PO4 5332  15.102  11.008  10.775  0.0703  0.0621 -0.4124
  334loPI   GL1 5333  15.392  11.090  10.541 -0.0203 -0.2849  0.0016
  334loPI   GL2 5334  15.361  10.813  10.405 -0.2298  0.1234  0.0331
  334loPI   C1A 5335  15.319  11.172  10.115  0.1451 -0.1634  0.1715
  334loPI   C2A 5336  15.300  11.163   9.591  0.5052  0.4603  0.0355
  334loPI   C3A 5337  15.295  11.118   9.128  0.1212 -0.1645 -0.0406
  334loPI   C4A 5338  15.301  10.940   8.690 -0.0289 -0.2428 -0.0793
  334loPI   C5A 5339  14.937  11.165   8.358 -0.2560  0.1223  0.0499
  334loPI   C6A 5340  14.984  11.487   8.182 -0.2996  0.0396 -0.1137
  334loPI   C1B 5341  15.700  10.778  10.100  0.0995  0.0866  0.2262
  334loPI   C2B 5342  15.701  10.824   9.666  0.0311 -0.3055 -0.1070
  334loPI   C3B 5343  15.784  10.798   9.205 -0.2240 -0.0850  0.3079
  334loPI   C4B 5344  16.263  10.609   9.234 -0.1178 -0.0141  0.2483
  335loPI    C1 5345   7.695   1.973  10.191  0.0820  0.1060  0.0340
  335loPI    C2 5346   8.014   2.067  10.413  0.0527  0.1251  0.0681
  335loPI    C3 5347   7.981   1.701  10.255  0.0670  0.1071  0.1065
  335loPI   PO4 5348   7.749   2.181  10.019  0.0374 -0.0349  0.4721
  335loPI   GL1 5349   7.822   2.334   9.582  0.0376 -0.0116  0.1742
  335loPI   GL2 5350   7.709   2.768   9.563  0.2222  0.0838  0.2845
  335loPI   C1A 5351   7.789   2.225   9.149 -0.0197  0.0116 -0.0547
  335loPI   C2A 5352   8.058   2.306   8.898 -0.2158  0.0798 -0.0094
  335loPI   C3A 5353   8.397   2.406   8.607 -0.2289  0.3066 -0.0466
  335loPI   C4A 5354   8.623   2.270   8.290  0.1033  0.0284  0.0096
  335loPI   C5A 5355   8.946   2.163   8.056  0.0377 -0.0469  0.0195
  335loPI   C6A 5356   9.001   2.193   7.609 -0.2191 -0.0770  0.0986
  335loPI   C1B 5357   7.203   2.732   9.444 -0.1902  0.0724  0.1924
  335loPI   C2B 5358   7.193   2.740   9.017 -0.0626  0.1214  0.2832
  335loPI   C3B 5359   7.145   2.967   8.642 -0.0443  0.1220 -0.0112
  335loPI   C4B 5360   6.897   3.028   8.271 -0.3492 -0.0868 -0.1770
  336loPI    C1 5361  11.680  16.580  10.606  0.2273 -0.2376 -0.1549
  336loPI    C2 5362  11.769  16.515  10.990  0.2675 -0.0255 -0.1272
  336loPI    C3 5363  11.396  16.615  10.886  0.3331  0.2536 -0.1010
  336loPI   PO4 5364  11.821  16.460  10.485  0.0277 -0.0195  0.1440
  336loPI   GL1 5365  11.795  16.185  10.177 -0.3460 -0.2625 -0.1060
  336loPI   GL2 5366  11.514  16.039  10.110  0.2071 -0.0886  0.1281
  336loPI   C1A 5367  12.019  16.443   9.859 -0.0136 -0.2302  0.0149
  336loPI   C2A 5368  11.934  16.552   9.386  0.0229 -0.3196 -0.0368
  336loPI   C3A 5369  11.824  16.755   9.046 -0.1571  0.2114 -0.2176
  336loPI   C4A 5370  11.745  16.787   8.584  0.1423 -0.0301 -0.0132
  336loPI   C5A 5371  11.587  17.067   8.249  0.1699  0.0945 -0.1262
  336loPI   C6A 5372  11.679  17.405   7.873 -0.0723 -0.0474  0.0088
  336loPI   C1B 5373  11.385  15.789   9.843  0.0403  0.1113  0.2693
  336loPI   C2B 5374  11.276  15.489   9.621 -0.1748  0.0527 -0.0095
  336loPI   C3B 5375  11.205  15.187   9.333  0.1858  0.3197 -0.0814
  336loPI   C4B 5376  10.968  14.813   9.239 -0.3725  0.1162 -0.1261
  337loPI    C1 5377   1.903  17.064  10.744  0.2670 -0.0276 -0.0099
  337loPI    C2 5378   2.246  17.189  10.908  0.2294  0.0601  0.0026
  337loPI    C3 5379   2.150  16.801  10.917  0.2004  0.0710  0.2405
  337loPI   PO4 5380   1.956  17.167  10.496  0.0106  0.0474  0.0817
  337loPI   GL1 5381   1.829  17.220  10.081 -0.0406  0.1431  0.0859
  337loPI   GL2 5382   2.153  17.308  10.009  0.3242 -0.1834  0.1198
  337loPI   C1A 5383   1.670  17.451   9.658  0.0258  0.0365 -0.2999
  337loPI   C2A 5384   1.479  17.577   9.282  0.2845 -0.1105  0.1866
  337loPI   C3A 5385   1.090  17.631   9.074  0.0601  0.0625  0.0159
  337loPI   C4A 5386   0.977  17.805   8.730  0.1024  0.5259 -0.0472
  337loPI   C5A 5387   0.933  17.884   8.306 -0.0651  0.0763  0.0579
  337loPI   C6A 5388   0.974  18.203   7.963  0.0038 -0.0735  0.0167
  337loPI   C1B 5389   2.112  17.221   9.538  0.3444  0.1210 -0.4056
  337loPI   C2B 5390   2.066  17.337   9.110  0.0071 -0.3042 -0.0512
  337loPI   C3B 5391   1.811  17.496   8.750  0.1331 -0.4182 -0.2810
  337loPI   C4B 5392   1.485  17.670   8.785 -0.1793  0.0048 -0.2850
  338loPI    C1 5393   3.531  13.165  10.780  0.0108 -0.0343 -0.1390
  338loPI    C2 5394   3.897  13.135  10.939 -0.0899 -0.0776  0.0884
  338loPI    C3 5395   3.644  12.826  10.960 -0.2094  0.0210  0.1085
  338loPI   PO4 5396   3.579  13.280  10.510  0.0268  0.0476 -0.2688
  338loPI   GL1 5397   3.538  13.141  10.137  0.1363  0.4364  0.0412
  338loPI   GL2 5398   3.901  13.184  10.085  0.0421 -0.1225 -0.0200
  338loPI   C1A 5399   3.506  13.093   9.714  0.0582 -0.1384 -0.0929
  338loPI   C2A 5400   3.536  12.964   9.290 -0.2674 -0.3487  0.0629
  338loPI   C3A 5401   3.695  13.053   8.879  0.3301 -0.2539 -0.0871
  338loPI   C4A 5402   3.699  13.150   8.417  0.0590  0.1185  0.1030
  338loPI   C5A 5403   3.629  13.124   8.098 -0.0794  0.1262  0.0399
  338loPI   C6A 5404   3.545  12.882   7.662  0.0557 -0.1864 -0.2373
  338loPI   C1B 5405   3.928  13.242   9.567 -0.1675 -0.0618 -0.1339
  338loPI   C2B 5406   3.870  13.420   9.177 -0.0596 -0.1445 -0.0254
  338loPI   C3B 5407   3.967  13.485   8.750 -0.3031  0.4193  0.0668
  338loPI   C4B 5408   4.213  13.791   8.548  0.2816 -0.1346 -0.0331
  339loPI    C1 5409   8.727  17.072  10.516  0.2134 -0.0526  0.1371
  339loPI    C2 5410   9.021  17.005  10.779  0.1893 -0.1006  0.1519
  339loPI    C3 5411   8.732  17.268  10.864  0.1800 -0.1181  0.1746
  339loPI   PO4 5412   8.695  16.857  10.380 -0.0536 -0.0228 -0.3164
  339loPI   GL1 5413   8.637  16.826   9.963 -0.0214 -0.4273  0.0894
  339loPI   GL2 5414   8.901  16.696   9.884 -0.0000 -0.0309 -0.2830
  339loPI   C1A 5415   8.628  16.872   9.515  0.0968  0.1685  0.0971
  339loPI   C2A 5416   8.513  16.868   9.014  0.0580  0.1854 -0.2320
  339loPI   C3A 5417   8.354  16.826   8.541 -0.3029  0.1202 -0.3223
  339loPI   C4A 5418   8.360  16.951   8.115 -0.2210  0.0646  0.1620
  339loPI   C5A 5419   8.178  17.332   7.980 -0.0637  0.2800  0.1999
  339loPI   C6A 5420   8.168  17.775   8.026  0.0514  0.1012  0.0709
  339loPI   C1B 5421   9.051  16.641   9.436  0.0857 -0.4022 -0.0135
  339loPI   C2B 5422   9.059  16.788   8.988  0.0023 -0.0138 -0.1328
  339loPI   C3B 5423   8.946  16.805   8.643  0.1592  0.0264  0.2183
  339loPI   C4B 5424   8.873  17.074   8.401 -0.1000 -0.0041 -0.1146
  340loPI    C1 5425   6.403   8.898  10.703 -0.0385 -0.1210  0.2165
  340loPI    C2 5426   6.771   8.788  10.814  0.1548  0.1665 -0.1183
  340loPI    C3 5427   6.518   8.941  11.084  0.3408  0.1290  0.0802
  340loPI   PO4 5428   6.537   9.010  10.395  0.1346  0.0769  0.0293
  340loPI   GL1 5429   6.747   9.200  10.036  0.0603  0.0981 -0.1906
  340loPI   GL2 5430   6.816   9.004   9.794  0.2981  0.1275  0.1161
  340loPI   C1A 5431   7.011   9.461   9.638 -0.3003  0.0422  0.1418
  340loPI   C2A 5432   7.212   9.851   9.664  0.2682 -0.1224 -0.2080
  340loPI   C3A 5433   7.227  10.030   9.323  0.0430 -0.0343  0.4530
  340loPI   C4A 5434   7.158  10.193   8.976 -0.0349 -0.1820 -0.0581
  340loPI   C5A 5435   7.088  10.530   8.729  0.0685  0.0157 -0.0077
  340loPI   C6A 5436   7.132  10.822   8.403  0.2715  0.0330 -0.0698
  340loPI   C1B 5437   6.873   8.970   9.428  0.1346  0.0546  0.0917
  340loPI   C2B 5438   6.913   8.928   8.987  0.2236  0.2922  0.1590
  340loPI   C3B 5439   7.140   9.000   8.676 -0.0608  0.1016  0.0546
  340loPI   C4B 5440   7.420   9.142   8.456  0.3052  0.1165  0.2520
  341loPI    C1 5441   2.112  10.840  10.547  0.0237 -0.0490 -0.0506
  341loPI    C2 5442   1.824  10.582  10.445  0.1587 -0.2388  0.0421
  341loPI    C3 5443   1.926  10.626  10.830  0.1823 -0.0960  0.0198
  341loPI   PO4 5444   2.256  10.859  10.277  0.1397  0.0398 -0.0477
  341loPI   GL1 5445   2.002  10.616   9.943  0.0181 -0.0783  0.0695
  341loPI   GL2 5446   1.862  10.294  10.016 -0.0385 -0.0462  0.1344
  341loPI   C1A 5447   1.981  10.672   9.511  0.1521 -0.0315 -0.0745
  341loPI   C2A 5448   2.060  10.507   9.109 -0.2668  0.0109  0.1374
  341loPI   C3A 5449   2.081  10.611   8.702  0.1588  0.0996 -0.0557
  341loPI   C4A 5450   1.985  10.578   8.308  0.1051  0.0651  0.2830
  341loPI   C5A 5451   1.718  10.726   7.944  0.0285 -0.1867 -0.0366
  341loPI   C6A 5452   1.665  11.058   7.727  0.1252 -0.0400  0.1709
  341loPI   C1B 5453   2.029   9.847   9.822 -0.0801 -0.0863  0.1176
  341loPI   C2B 5454   2.245   9.496   9.781  0.0141 -0.1660  0.0717
  341loPI   C3B 5455   2.526   9.260   9.561 -0.1241  0.1819 -0.2430
  341loPI   C4B 5456   2.686   9.177   9.130 -0.0144  0.0414  0.3223
  342loPI    C1 5457  14.734  13.110  10.751  0.1570 -0.0710  0.0543
  342loPI    C2 5458  14.578  12.889  11.045  0.1836 -0.0409  0.0910
  342loPI    C3 5459  14.838  12.726  10.789  0.2947 -0.0209  0.1906
  342loPI   PO4 5460  14.515  13.247  10.583  0.3965  0.1886 -0.2183
  342loPI   GL1 5461  14.595  13.250  10.189 -0.2244  0.0188 -0.2252
  342loPI   GL2 5462  14.740  13.537  10.196 -0.1082  0.0031  0.3728
  342loPI   C1A 5463  14.708  12.977   9.819  0.1675 -0.2945  0.0111
  342loPI   C2A 5464  14.673  13.116   9.505 -0.0705 -0.0345  0.1782
  342loPI   C3A 5465  14.762  12.997   9.136 -0.2410 -0.3212  0.1883
  342loPI   C4A 5466  14.872  12.997   8.679  0.0898 -0.0465 -0.0417
  342loPI   C5A 5467  14.962  12.779   8.367 -0.3336 -0.0106 -0.1748
  342loPI   C6A 5468  15.082  12.663   8.051 -0.0322 -0.0504 -0.1584
  342loPI   C1B 5469  14.686  13.561   9.830 -0.0924  0.0495  0.1632
  342loPI   C2B 5470  14.573  13.600   9.373 -0.0319 -0.2995 -0.0114
  342loPI   C3B 5471  14.601  13.389   8.906  0.2706 -0.0617 -0.0802
  342loPI   C4B 5472  14.363  13.065   8.454 -0.0036 -0.1713 -0.1861
  343loPI    C1 5473   9.504  11.272  10.675 -0.0028 -0.0641 -0.0011
  343loPI    C2 5474   9.141  11.312  10.837  0.0047  0.1946 -0.0439
  343loPI    C3 5475   9.441  11.165  11.056 -0.1475 -0.1184 -0.0396
  343loPI   PO4 5476   9.511  11.507  10.525 -0.0883  0.1471  0.1951
  343loPI   GL1 5477   9.627  11.712  10.293  0.3916 -0.3063 -0.0687
  343loPI   GL2 5478   9.297  11.796   9.978  0.0871  0.1739  0.1461
  343loPI   C1A 5479   9.857  11.684   9.849 -0.1934 -0.3915 -0.0562
  343loPI   C2A 5480   9.818  11.578   9.425 -0.3696 -0.1440 -0.1251
  343loPI   C3A 5481   9.748  11.750   8.969  0.0699  0.1402  0.0478
  343loPI   C4A 5482   9.814  11.737   8.510  0.0219 -0.2126 -0.0621
  343loPI   C5A 5483   9.716  11.899   8.140 -0.2374 -0.0650  0.2980
  343loPI   C6A 5484   9.789  12.240   7.958 -0.0236 -0.0435 -0.2276
  343loPI   C1B 5485   9.367  11.590   9.624 -0.0015 -0.0872 -0.0127
  343loPI   C2B 5486   9.362  11.542   9.196 -0.3301  0.1270 -0.1791
  343loPI   C3B 5487   9.474  11.270   8.910  0.1639  0.2194  0.1456
  343loPI   C4B 5488   9.752  11.246   8.576  0.0364 -0.0515  0.1716
  344loPI    C1 5489  14.213   8.612  11.154  0.0349  0.0219 -0.0179
  344loPI    C2 5490  13.819   8.679  11.172  0.0418  0.1240 -0.2134
  344loPI    C3 5491  14.036   8.671  11.508 -0.0999  0.2331 -0.1180
  344loPI   PO4 5492  14.273   8.710  10.943  0.3744  0.0020  0.2069
  344loPI   GL1 5493  14.313   8.399  10.560 -0.1509 -0.1477  0.1459
  344loPI   GL2 5494  14.593   8.144  10.532  0.0509  0.1377  0.0838
  344loPI   C1A 5495  14.175   8.643  10.264  0.3498  0.2377  0.0412
  344loPI   C2A 5496  14.171   8.799   9.792 -0.0387  0.1603 -0.0626
  344loPI   C3A 5497  14.297   8.914   9.368  0.0711 -0.2300 -0.1730
  344loPI   C4A 5498  14.351   8.901   8.892 -0.2773 -0.5266 -0.2533
  344loPI   C5A 5499  14.183   9.075   8.597  0.2732  0.0540 -0.1183
  344loPI   C6A 5500  14.075   9.276   8.179 -0.0948  0.0344 -0.2587
  344loPI   C1B 5501  14.684   7.914  10.083  0.1327  0.0543 -0.0953
  344loPI   C2B 5502  14.837   8.008   9.743 -0.2778  0.0428  0.2228
  344loPI   C3B 5503  14.807   8.011   9.274  0.1929 -0.0296  0.3159
  344loPI   C4B 5504  14.770   8.033   8.897 -0.0540  0.0486 -0.0779
  345loPI    C1 5505  10.625   9.366  10.975 -0.0715 -0.0104  0.1032
  345loPI    C2 5506  10.651   8.969  11.021  0.1638  0.0099  0.1567
  345loPI    C3 5507  10.595   9.204  11.340 -0.0580  0.0146  0.1154
  345loPI   PO4 5508  10.488   9.364  10.767  0.0330  0.0777 -0.2228
  345loPI   GL1 5509  10.363   9.289  10.385 -0.2151  0.0918  0.2583
  345loPI   GL2 5510  10.124   9.489  10.239  0.1416 -0.2116  0.0471
  345loPI   C1A 5511  10.405   9.349   9.859 -0.1011 -0.0728 -0.2013
  345loPI   C2A 5512  10.330   9.276   9.396  0.0645  0.3281  0.0478
  345loPI   C3A 5513  10.304   9.125   8.903 -0.0343 -0.1735 -0.0886
  345loPI   C4A 5514  10.469   8.982   8.430  0.0716 -0.0221  0.0770
  345loPI   C5A 5515  10.723   8.984   8.088 -0.0602  0.1888  0.0034
  345loPI   C6A 5516  11.198   8.920   8.113 -0.1477  0.2720  0.0874
  345loPI   C1B 5517   9.907   9.204   9.937 -0.2194 -0.1652 -0.0963
  345loPI   C2B 5518   9.763   9.325   9.544  0.0913  0.2859 -0.2514
  345loPI   C3B 5519   9.863   9.373   9.113  0.1373  0.0746  0.0434
  345loPI   C4B 5520  10.034   9.602   8.937 -0.0117  0.1783  0.2479
  346loPI    C1 5521   0.751  15.855  10.912 -0.1128  0.1004 -0.0269
  346loPI    C2 5522   0.961  15.997  11.221 -0.1573  0.0637  0.0204
  346loPI    C3 5523   0.567  15.939  11.257 -0.1336 -0.1063  0.0137
  346loPI   PO4 5524   0.842  15.580  10.735  0.0709  0.0119 -0.2081
  346loPI   GL1 5525   0.953  15.333  10.448  0.0471  0.0574 -0.4013
  346loPI   GL2 5526   0.843  15.608  10.211 -0.3362 -0.1267 -0.1700
  346loPI   C1A 5527   1.162  15.320   9.952 -0.0798  0.1041  0.0579
  346loPI   C2A 5528   1.484  15.366   9.695  0.1564 -0.2114  0.0467
  346loPI   C3A 5529   1.572  15.313   9.209  0.0863  0.0147 -0.0444
  346loPI   C4A 5530   1.441  15.165   8.821  0.1290 -0.0577 -0.2192
  346loPI   C5A 5531   1.271  15.108   8.380  0.1528  0.3102  0.1358
  346loPI   C6A 5532   1.443  14.709   8.161 -0.1558  0.1337 -0.2614
  346loPI   C1B 5533   0.898  15.699   9.776 -0.0978  0.1153  0.0162
  346loPI   C2B 5534   1.105  15.720   9.328 -0.0337  0.0192 -0.2041
  346loPI   C3B 5535   1.069  15.522   8.897  0.2148 -0.2158 -0.0831
  346loPI   C4B 5536   0.794  15.401   8.456 -0.0082  0.3455 -0.0651
  347loPI    C1 5537   9.552   2.292  10.686 -0.2183  0.1720 -0.0465
  347loPI    C2 5538   9.297   2.027  10.527 -0.1809  0.0680  0.0650
  347loPI    C3 5539   9.368   2.025  10.920  0.0676  0.0318  0.0217
  347loPI   PO4 5540   9.812   2.233  10.505 -0.2194 -0.1422  0.0452
  347loPI   GL1 5541  10.095   2.220  10.178  0.4581 -0.0781 -0.0425
  347loPI   GL2 5542  10.385   2.204  10.059 -0.2313  0.0374 -0.1145
  347loPI   C1A 5543  10.149   2.605   9.796  0.1476  0.0777 -0.0471
  347loPI   C2A 5544  10.295   2.755   9.418 -0.0521 -0.0299  0.2695
  347loPI   C3A 5545  10.450   2.682   9.041  0.2555 -0.0818  0.0641
  347loPI   C4A 5546  10.525   2.707   8.689 -0.0790 -0.3522  0.0181
  347loPI   C5A 5547  10.376   2.851   8.269  0.0133 -0.3590 -0.3702
  347loPI   C6A 5548  10.140   3.131   8.044  0.2229  0.0726 -0.1099
  347loPI   C1B 5549  10.308   2.115   9.676  0.1014 -0.2307  0.1253
  347loPI   C2B 5550  10.317   2.257   9.284  0.0940 -0.1318  0.1304
  347loPI   C3B 5551  10.444   2.159   8.825  0.2609  0.1757 -0.0455
  347loPI   C4B 5552  10.513   1.961   8.427  0.0470  0.0157  0.3554
  348loPI    C1 5553   1.179   6.477  10.627 -0.0361 -0.1916  0.0753
  348loPI    C2 5554   1.479   6.253  10.769  0.0982  0.1661  0.3731
  348loPI    C3 5555   1.269   6.486  11.017 -0.1942  0.1931  0.1067
  348loPI   PO4 5556   1.203   6.548  10.438 -0.1409  0.2631  0.2728
  348loPI   GL1 5557   1.357   6.402   9.982 -0.4257 -0.2501 -0.0168
  348loPI   GL2 5558   1.226   6.739   9.958 -0.2030 -0.1177 -0.0112
  348loPI   C1A 5559   1.467   6.570   9.549  0.0299 -0.3003 -0.3036
  348loPI   C2A 5560   1.466   6.725   9.124 -0.0901  0.3125  0.0884
  348loPI   C3A 5561   1.595   6.893   8.725  0.0362  0.4022  0.4272
  348loPI   C4A 5562   1.412   6.942   8.329  0.0501 -0.0891 -0.1786
  348loPI   C5A 5563   1.471   7.268   8.052 -0.2720 -0.0208 -0.2908
  348loPI   C6A 5564   1.178   7.452   7.809  0.0619 -0.2127  0.0931
  348loPI   C1B 5565   1.029   6.881   9.615 -0.1387 -0.1388 -0.2325
  348loPI   C2B 5566   0.764   6.943   9.127 -0.0031 -0.2581  0.2088
  348loPI   C3B 5567   0.759   7.195   8.673 -0.0355  0.0340 -0.1094
  348loPI   C4B 5568   1.027   7.394   8.307  0.1211  0.1823  0.0699
  349loPI    C1 5569   6.558   8.381  10.648 -0.2731  0.0949 -0.0976
  349loPI    C2 5570   6.171   8.370  10.749 -0.1917  0.1839  0.2358
  349loPI    C3 5571   6.450   8.427  11.030  0.0804 -0.0975  0.0300
  349loPI   PO4 5572   6.582   8.465  10.435  0.1657  0.1683 -0.0017
  349loPI   GL1 5573   6.483   8.666  10.063 -0.1434 -0.2633  0.1964
  349loPI   GL2 5574   6.299   8.568   9.916 -0.0288  0.1011  0.0313
  349loPI   C1A 5575   6.718   8.534   9.713 -0.0056 -0.1283  0.0143
  349loPI   C2A 5576   6.768   8.453   9.352  0.2611  0.0499  0.0009
  349loPI   C3A 5577   6.892   8.427   8.941 -0.0816 -0.1085  0.0901
  349loPI   C4A 5578   7.246   8.455   8.548  0.2355  0.0166 -0.0622
  349loPI   C5A 5579   7.307   8.689   8.175  0.1079 -0.0530 -0.1368
  349loPI   C6A 5580   7.633   9.039   8.001  0.2491 -0.1468 -0.0266
  349loPI   C1B 5581   6.266   8.493   9.559 -0.0247  0.0701  0.2509
  349loPI   C2B 5582   6.281   8.390   9.213 -0.1144  0.1171  0.0904
  349loPI   C3B 5583   6.359   8.351   8.824  0.1173  0.2741 -0.0094
  349loPI   C4B 5584   6.331   8.418   8.334  0.2960 -0.0879  0.1571
  350loPI    C1 5585   0.861   4.976  10.788 -0.0172 -0.1043  0.1402
  350loPI    C2 5586   0.901   5.242  11.083 -0.1021 -0.3458  0.3736
  350loPI    C3 5587   1.044   4.871  11.127  0.2555 -0.2673 -0.0535
  350loPI   PO4 5588   0.887   5.126  10.588 -0.1415  0.1458  0.1596
  350loPI   GL1 5589   0.926   5.061  10.173 -0.0919 -0.3974 -0.0675
  350loPI   GL2 5590   1.040   4.747   9.995 -0.1039  0.0174  0.1294
  350loPI   C1A 5591   0.853   5.005   9.648  0.0038 -0.0017  0.1486
  350loPI   C2A 5592   0.788   5.030   9.208 -0.0917 -0.1409 -0.4607
  350loPI   C3A 5593   0.829   5.184   8.753 -0.2287  0.3440  0.1752
  350loPI   C4A 5594   0.792   5.358   8.320 -0.2470 -0.1054 -0.2505
  350loPI   C5A 5595   0.528   5.337   7.972 -0.2219  0.1946 -0.0952
  350loPI   C6A 5596   0.026   5.032   8.046  0.1475 -0.3413 -0.0435
  350loPI   C1B 5597   0.964   4.519   9.637 -0.4623 -0.2619 -0.1418
  350loPI   C2B 5598   0.711   4.337   9.214  0.0009 -0.0678 -0.0385
  350loPI   C3B 5599   0.705   4.247   8.775  0.1376  0.0725  0.0485
  350loPI   C4B 5600   0.742   4.435   8.386  0.2320 -0.2942 -0.2104
  351loPI    C1 5601  15.498  13.633  10.854 -0.0806 -0.0005  0.2161
  351loPI    C2 5602  15.495  13.374  11.159 -0.1524  0.0832  0.2875
  351loPI    C3 5603  15.211  13.655  11.133 -0.0060  0.2318  0.2774
  351loPI   PO4 5604  15.609  13.500  10.642 -0.2306  0.0137 -0.0225
  351loPI   GL1 5605  15.457  13.454  10.273 -0.0858  0.0624 -0.0659
  351loPI   GL2 5606  15.212  13.280  10.220  0.0460  0.1213 -0.1383
  351loPI   C1A 5607  15.368  13.654   9.959 -0.2538 -0.0760  0.1588
  351loPI   C2A 5608  15.574  13.688   9.574  0.3662 -0.0371  0.0934
  351loPI   C3A 5609  15.541  13.613   9.150 -0.1339 -0.1326  0.1071
  351loPI   C4A 5610  15.457  13.719   8.690  0.0133 -0.0044  0.0933
  351loPI   C5A 5611  15.268  13.998   8.291 -0.4607  0.2154 -0.0972
  351loPI   C6A 5612  14.999  14.222   8.059 -0.0596  0.1536  0.0796
  351loPI   C1B 5613  15.128  13.265   9.735 -0.0753 -0.4261 -0.0626
  351loPI   C2B 5614  15.064  13.387   9.315 -0.0195  0.1591  0.1604
  351loPI   C3B 5615  15.111  13.386   9.004  0.1130  0.2559 -0.0144
  351loPI   C4B 5616  15.343  13.196   8.606  0.0825  0.1237 -0.0667
  352loPI    C1 5617  16.780  14.745  11.196  0.1374 -0.0109 -0.1348
  352loPI    C2 5618  16.792  15.017  11.490 -0.1078  0.1991 -0.3148
  352loPI    C3 5619  16.441  14.871  11.367  0.0342 -0.3983 -0.0451
  352loPI   PO4 5620  16.949  14.822  11.004 -0.3169 -0.2690  0.1327
  352loPI   GL1 5621  17.036  14.858  10.593  0.0115  0.3176  0.0133
  352loPI   GL2 5622  17.038  15.171  10.618 -0.1387  0.0550 -0.0850
  352loPI   C1A 5623  17.047  14.939  10.122 -0.0053 -0.2402 -0.2141
  352loPI   C2A 5624  17.130  15.034   9.761 -0.1246  0.1904 -0.0021
  352loPI   C3A 5625  17.047  15.172   9.321 -0.3134  0.0187 -0.2639
  352loPI   C4A 5626  17.105  15.267   8.911  0.0499  0.2468  0.0525
  352loPI   C5A 5627  17.306  15.413   8.470 -0.2776  0.1083 -0.1859
  352loPI   C6A 5628  17.489  15.736   8.294  0.0734 -0.2661 -0.0637
  352loPI   C1B 5629  17.342  15.359  10.309 -0.3496  0.0889 -0.2117
  352loPI   C2B 5630  17.313  15.531   9.843 -0.0281 -0.0545  0.2443
  352loPI   C3B 5631  17.016  15.949   9.918 -0.0333  0.1390 -0.0031
  352loPI   C4B 5632  16.840  16.334   9.819  0.0021  0.2554  0.3803
  353loPI    C1 5633   2.794  13.813  11.054  0.1873  0.0007 -0.0726
  353loPI    C2 5634   2.810  14.212  11.086 -0.3277  0.0155  0.1019
  353loPI    C3 5635   3.078  13.985  11.277 -0.0841  0.2726  0.0722
  353loPI   PO4 5636   2.801  13.757  10.741 -0.1415 -0.0646 -0.1461
  353loPI   GL1 5637   2.631  13.566  10.383 -0.0201 -0.0629  0.0417
  353loPI   GL2 5638   2.836  13.840  10.239 -0.1056  0.1714  0.0893
  353loPI   C1A 5639   2.455  13.520  10.093  0.2584 -0.0557  0.2067
  353loPI   C2A 5640   2.522  13.437   9.741  0.3228  0.0678 -0.2168
  353loPI   C3A 5641   2.582  13.401   9.382  0.0808  0.1822  0.1027
  353loPI   C4A 5642   2.652  13.376   9.031 -0.1455  0.0884 -0.2932
  353loPI   C5A 5643   2.729  13.497   8.644 -0.1098  0.0053 -0.0032
  353loPI   C6A 5644   2.770  13.439   8.135  0.2192 -0.2335  0.1235
  353loPI   C1B 5645   2.781  13.796   9.892  0.0838  0.0064  0.0577
  353loPI   C2B 5646   2.978  13.793   9.378  0.1819 -0.4404  0.3157
  353loPI   C3B 5647   3.013  13.705   8.956  0.0253  0.1419 -0.0204
  353loPI   C4B 5648   2.997  13.938   8.677 -0.0121 -0.1057 -0.0637
  354loPI    C1 5649  16.333  14.704  10.863 -0.0293  0.0882  0.0122
  354loPI    C2 5650  16.035  14.675  10.599  0.1547  0.1892 -0.2103
  354loPI    C3 5651  15.968  14.837  10.958 -0.0353  0.3021 -0.2946
  354loPI   PO4 5652  16.516  14.767  10.748  0.0118 -0.0980 -0.0006
  354loPI   GL1 5653  16.562  15.091  10.367 -0.0425  0.0744 -0.1238
  354loPI   GL2 5654  16.595  15.066   9.971 -0.4970  0.0835  0.2036
  354loPI   C1A 5655  16.113  15.010  10.209 -0.0945  0.0271  0.3124
  354loPI   C2A 5656  16.020  15.090   9.775  0.2013  0.2308  0.1342
  354loPI   C3A 5657  15.797  15.122   9.471  0.1752 -0.0990  0.1941
  354loPI   C4A 5658  15.738  15.049   9.049  0.1844 -0.0368 -0.2634
  354loPI   C5A 5659  15.455  14.926   8.689  0.1457 -0.0506  0.0822
  354loPI   C6A 5660  15.308  14.574   8.362  0.3034  0.3073 -0.0627
  354loPI   C1B 5661  16.630  14.883   9.520  0.0717 -0.1404 -0.1971
  354loPI   C2B 5662  16.760  14.874   9.072  0.0312 -0.1170  0.1649
  354loPI   C3B 5663  16.755  15.006   8.629  0.1299 -0.2032  0.0196
  354loPI   C4B 5664  16.437  15.041   8.219 -0.1783 -0.1216  0.0120
  355loPI    C1 5665   4.938   2.779  10.369 -0.2646 -0.0269 -0.1076
  355loPI    C2 5666   5.079   2.560  10.065  0.1920 -0.0022  0.0797
  355loPI    C3 5667   5.332   2.734  10.321 -0.1806  0.2366  0.2947
  355loPI   PO4 5668   4.645   2.902  10.232  0.0794  0.0081  0.1924
  355loPI   GL1 5669   4.534   3.082   9.985 -0.0403  0.0858  0.0208
  355loPI   GL2 5670   4.441   3.363   9.973 -0.3400 -0.0607 -0.2272
  355loPI   C1A 5671   4.639   3.201   9.551  0.0991  0.2412 -0.0398
  355loPI   C2A 5672   4.532   3.158   9.030  0.1038 -0.0639  0.1015
  355loPI   C3A 5673   4.726   3.113   8.545  0.1038 -0.0690 -0.1589
  355loPI   C4A 5674   4.747   3.364   8.168  0.2198 -0.2244 -0.0556
  355loPI   C5A 5675   4.897   3.690   7.820 -0.0890 -0.1191 -0.0034
  355loPI   C6A 5676   4.676   4.012   7.630 -0.1724 -0.2492  0.1291
  355loPI   C1B 5677   4.571   3.746   9.666 -0.0779 -0.2135  0.0863
  355loPI   C2B 5678   4.774   3.555   9.221  0.2205  0.0277 -0.2322
  355loPI   C3B 5679   5.026   3.037   9.151  0.0320  0.2788 -0.0399
  355loPI   C4B 5680   5.079   2.521   9.176 -0.1084  0.1060 -0.0450
  356loPI    C1 5681   7.887   0.481  10.714  0.0481 -0.0737 -0.1081
  356loPI    C2 5682   7.881   0.879  10.754 -0.0956 -0.0812 -0.0499
  356loPI    C3 5683   7.890   0.645  11.078 -0.0237 -0.1259 -0.0838
  356loPI   PO4 5684   8.049   0.410  10.493 -0.1132 -0.0090  0.0646
  356loPI   GL1 5685   8.020   0.292  10.135 -0.0430 -0.0926  0.1458
  356loPI   GL2 5686   8.238   0.389   9.854  0.3303 -0.0529 -0.1947
  356loPI   C1A 5687   7.716   0.447   9.840  0.1282  0.1358 -0.2945
  356loPI   C2A 5688   7.613   0.413   9.392 -0.2598 -0.1150 -0.2703
  356loPI   C3A 5689   7.607   0.413   8.889  0.2310 -0.1452 -0.1495
  356loPI   C4A 5690   7.532   0.488   8.533  0.2493  0.0382 -0.0717
  356loPI   C5A 5691   7.442   0.427   8.125  0.1065 -0.0971 -0.0407
  356loPI   C6A 5692   7.388   0.700   7.836 -0.1451  0.0826 -0.0104
  356loPI   C1B 5693   8.181   0.453   9.402 -0.0230 -0.0537  0.2252
  356loPI   C2B 5694   8.146   0.465   9.011 -0.0139 -0.1974  0.1723
  356loPI   C3B 5695   8.044   0.445   8.609  0.2450 -0.0254 -0.0410
  356loPI   C4B 5696   8.025   0.501   8.174  0.1881  0.2627 -0.0371
  357loPI    C1 5697   5.678  12.022  10.724  0.0092 -0.0968  0.1519
  357loPI    C2 5698   5.344  12.243  10.717  0.1241  0.0752  0.0328
  357loPI    C3 5699   5.451  12.054  11.052  0.0867  0.2978  0.1722
  357loPI   PO4 5700   5.632  11.841  10.464 -0.2138  0.2155 -0.1679
  357loPI   GL1 5701   5.635  11.847  10.059  0.0706  0.0588 -0.1248
  357loPI   GL2 5702   5.931  11.732  10.109 -0.1080  0.3175 -0.2022
  357loPI   C1A 5703   5.629  11.889   9.476  0.1226  0.2707 -0.2152
  357loPI   C2A 5704   5.622  11.933   9.049  0.0752 -0.0325 -0.0848
  357loPI   C3A 5705   5.800  11.956   8.611 -0.1293 -0.0484 -0.2198
  357loPI   C4A 5706   5.782  11.889   8.210 -0.0475 -0.3163  0.0911
  357loPI   C5A 5707   5.390  11.897   7.975 -0.2469  0.1574  0.0063
  357loPI   C6A 5708   4.961  11.859   8.056  0.0074  0.0709  0.1036
  357loPI   C1B 5709   5.998  11.590   9.691  0.3424 -0.1219  0.1443
  357loPI   C2B 5710   5.957  11.523   9.343 -0.0599  0.0486 -0.0093
  357loPI   C3B 5711   5.935  11.494   8.897 -0.1348  0.0381 -0.0573
  357loPI   C4B 5712   5.695  11.418   8.424 -0.2687 -0.0931 -0.0463
  358loPI    C1 5713  16.043  12.435  10.883  0.2307  0.0877 -0.2360
  358loPI    C2 5714  15.889  12.747  11.080  0.0697 -0.0457 -0.1473
  358loPI    C3 5715  16.284  12.684  11.082  0.0854  0.0526 -0.0121
  358loPI   PO4 5716  15.958  12.417  10.641 -0.3909  0.0878  0.2568
  358loPI   GL1 5717  16.048  12.352  10.220 -0.1623 -0.0679  0.0422
  358loPI   GL2 5718  16.093  12.721  10.225 -0.0476  0.0741 -0.1369
  358loPI   C1A 5719  16.185  12.358   9.831 -0.0983  0.1757 -0.0086
  358loPI   C2A 5720  16.075  12.325   9.374 -0.0670  0.4199  0.2994
  358loPI   C3A 5721  16.005  12.194   8.850  0.1400 -0.0298 -0.2222
  358loPI   C4A 5722  16.200  12.359   8.490 -0.0533  0.0026 -0.1589
  358loPI   C5A 5723  16.518  12.221   8.315 -0.1874  0.0201 -0.0531
  358loPI   C6A 5724  16.937  12.114   8.072  0.0996  0.1023 -0.1080
  358loPI   C1B 5725  16.148  12.841   9.833 -0.1988  0.0933  0.1751
  358loPI   C2B 5726  16.047  12.888   9.371 -0.3362  0.1266  0.0094
  358loPI   C3B 5727  15.818  13.257   8.989 -0.2022  0.2542  0.0631
  358loPI   C4B 5728  15.828  13.366   8.670 -0.0671  0.0119 -0.1049
  359loPI    C1 5729   5.003  15.685  10.630  0.0092  0.1719 -0.2531
  359loPI    C2 5730   5.314  15.675  10.882 -0.1160  0.1724 -0.0971
  359loPI    C3 5731   5.311  15.936  10.579 -0.0136  0.2465 -0.0348
  359loPI   PO4 5732   4.973  15.425  10.429 -0.2398 -0.2459  0.1619
  359loPI   GL1 5733   4.996  15.452   9.877  0.1068 -0.0668 -0.0298
  359loPI   GL2 5734   4.693  15.575   9.954 -0.0443 -0.1719 -0.1894
  359loPI   C1A 5735   5.213  15.424   9.406 -0.2849  0.0108 -0.0618
  359loPI   C2A 5736   5.242  15.289   8.966  0.0658  0.0664 -0.0282
  359loPI   C3A 5737   5.301  15.133   8.640  0.1719  0.1202  0.1691
  359loPI   C4A 5738   5.452  15.081   8.117 -0.2019  0.0612  0.1452
  359loPI   C5A 5739   5.299  15.278   7.848 -0.2144  0.1506 -0.1319
  359loPI   C6A 5740   5.287  15.679   7.804  0.2059  0.0305 -0.2324
  359loPI   C1B 5741   4.712  15.569   9.492  0.0864 -0.0636  0.3600
  359loPI   C2B 5742   4.725  15.509   9.117 -0.0476  0.0832 -0.0108
  359loPI   C3B 5743   4.827  15.375   8.689 -0.3109 -0.1484 -0.1769
  359loPI   C4B 5744   4.948  15.156   8.297  0.0181  0.1563  0.0865
  360loPI    C1 5745  16.385   5.008  10.380  0.1329 -0.0547  0.0368
  360loPI    C2 5746  16.204   4.699  10.201 -0.1235  0.0954  0.0306
  360loPI    C3 5747  16.402   4.644  10.545 -0.2173 -0.0646  0.0601
  360loPI   PO4 5748  16.497   5.147  10.150  0.1295  0.2083  0.2506
  360loPI   GL1 5749  16.627   5.102   9.740  0.1986  0.2125  0.0567
  360loPI   GL2 5750  16.629   4.763   9.771  0.1138  0.1265  0.0242
  360loPI   C1A 5751  16.639   5.253   9.256 -0.0948 -0.0811 -0.2648
  360loPI   C2A 5752  16.520   5.257   8.710  0.0637 -0.1930  0.0337
  360loPI   C3A 5753  16.516   5.475   8.346 -0.0232  0.2814  0.3597
  360loPI   C4A 5754  16.392   5.432   7.907 -0.2674 -0.0856 -0.0507
  360loPI   C5A 5755  16.187   5.129   7.633  0.2561  0.2787  0.2464
  360loPI   C6A 5756  15.913   4.853   7.486 -0.0644  0.1312 -0.0595
  360loPI   C1B 5757  16.798   4.842   9.384  0.0704 -0.0782 -0.1400
  360loPI   C2B 5758  16.831   4.869   8.959 -0.1878  0.1007  0.0084
  360loPI   C3B 5759  16.870   4.871   8.549  0.0025  0.1314 -0.0650
  360loPI   C4B 5760  16.519   4.999   8.267 -0.3807 -0.2183 -0.2882
  361loPI    C1 5761   2.844   5.667  10.411  0.1024 -0.0783 -0.2802
  361loPI    C2 5762   3.236   5.605  10.364  0.1139 -0.1055 -0.1516
  361loPI    C3 5763   3.107   5.892  10.610  0.0545  0.0297 -0.3378
  361loPI   PO4 5764   2.736   5.442  10.387  0.1827  0.0600  0.2905
  361loPI   GL1 5765   2.591   5.264   9.936 -0.0494  0.0166  0.2829
  361loPI   GL2 5766   2.350   5.291  10.068  0.0981 -0.1270  0.2405
  361loPI   C1A 5767   2.466   4.952   9.502 -0.2672 -0.0361 -0.0358
  361loPI   C2A 5768   2.318   4.975   9.078 -0.0017  0.1625 -0.0541
  361loPI   C3A 5769   2.090   4.659   8.721  0.0657 -0.0262 -0.2232
  361loPI   C4A 5770   2.112   4.402   8.317 -0.2004  0.1948  0.2516
  361loPI   C5A 5771   2.197   4.021   8.052 -0.3290  0.2479 -0.0714
  361loPI   C6A 5772   2.544   3.756   8.212  0.0686  0.1337 -0.2820
  361loPI   C1B 5773   2.281   5.543   9.642  0.0811 -0.1380  0.0478
  361loPI   C2B 5774   2.204   5.493   9.236  0.0588  0.1188  0.0389
  361loPI   C3B 5775   2.247   5.435   8.866 -0.1320  0.1910  0.0466
  361loPI   C4B 5776   2.188   5.177   8.499 -0.1997  0.1293 -0.2633
  362loPI    C1 5777   4.117   9.128  10.527  0.2777 -0.0461 -0.0843
  362loPI    C2 5778   3.812   9.379  10.591  0.2535 -0.1189  0.0926
  362loPI    C3 5779   3.788   9.000  10.715  0.2825 -0.2151 -0.1891
  362loPI   PO4 5780   4.102   9.184  10.174  0.1161 -0.0067 -0.0162
  362loPI   GL1 5781   4.337   9.132   9.864  0.0593  0.1329 -0.0222
  362loPI   GL2 5782   4.396   8.855   9.717 -0.2203 -0.1718 -0.0119
  362loPI   C1A 5783   4.187   9.390   9.497 -0.0355 -0.0286  0.4279
  362loPI   C2A 5784   4.129   9.566   9.057 -0.3932  0.1639 -0.0418
  362loPI   C3A 5785   4.208   9.527   8.603 -0.0633 -0.0504 -0.0985
  362loPI   C4A 5786   4.410   9.513   8.323  0.0117 -0.1194  0.1881
  362loPI   C5A 5787   4.400   9.429   7.891 -0.0171 -0.0353 -0.0174
  362loPI   C6A 5788   3.995   9.582   7.593  0.1177 -0.1113  0.0244
  362loPI   C1B 5789   4.564   8.779   9.396 -0.1562  0.1101  0.0639
  362loPI   C2B 5790   4.579   8.779   8.916  0.2937 -0.0109 -0.2880
  362loPI   C3B 5791   4.689   8.879   8.460  0.4938 -0.2623 -0.0852
  362loPI   C4B 5792   4.850   9.028   8.080 -0.1139  0.2038 -0.0204
  363loPI    C1 5793   2.861   9.516  10.334  0.1469  0.2715 -0.2019
  363loPI    C2 5794   2.476   9.465  10.240  0.1966  0.1676 -0.3534
  363loPI    C3 5795   2.611   9.352  10.599  0.1093  0.1012 -0.3414
  363loPI   PO4 5796   2.899   9.718  10.170 -0.2610  0.1184 -0.0542
  363loPI   GL1 5797   3.142   9.965   9.902 -0.0484 -0.2799 -0.2772
  363loPI   GL2 5798   3.471   9.960  10.038 -0.2191 -0.2697  0.0543
  363loPI   C1A 5799   3.239   9.829   9.455 -0.0591  0.0626  0.0354
  363loPI   C2A 5800   2.870   9.743   9.244  0.1601 -0.0365  0.2639
  363loPI   C3A 5801   2.927   9.792   8.869 -0.3623 -0.3277  0.0137
  363loPI   C4A 5802   2.906   9.689   8.338 -0.1065  0.1377  0.1611
  363loPI   C5A 5803   3.017   9.441   7.910 -0.1507 -0.0016  0.2583
  363loPI   C6A 5804   2.976   9.154   7.528 -0.2019 -0.2894 -0.5342
  363loPI   C1B 5805   3.681  10.036   9.631  0.0155 -0.0767  0.3216
  363loPI   C2B 5806   3.734   9.857   9.281  0.0106  0.0820  0.0984
  363loPI   C3B 5807   3.703   9.781   8.948 -0.1601 -0.4694  0.0023
  363loPI   C4B 5808   3.792   9.767   8.520 -0.0271  0.0157  0.0134
  364loPI    C1 5809  12.041   6.859  10.617 -0.2375 -0.1207 -0.0027
  364loPI    C2 5810  12.114   6.483  10.502  0.1391  0.0359 -0.2977
  364loPI    C3 5811  12.282   6.626  10.835  0.0627 -0.0298 -0.2305
  364loPI   PO4 5812  11.745   6.893  10.538 -0.0633 -0.1532 -0.2718
  364loPI   GL1 5813  11.747   6.768  10.095 -0.1154  0.3476 -0.0352
  364loPI   GL2 5814  11.969   6.546   9.998  0.0324 -0.0686  0.2670
  364loPI   C1A 5815  11.511   6.700   9.734 -0.0836 -0.1503 -0.2303
  364loPI   C2A 5816  11.426   6.649   9.253 -0.0481  0.1070 -0.0918
  364loPI   C3A 5817  11.311   6.523   8.983  0.0532 -0.0077 -0.2087
  364loPI   C4A 5818  11.121   6.586   8.515 -0.0128  0.1398 -0.1918
  364loPI   C5A 5819  11.042   6.565   8.056 -0.2098 -0.1180  0.3485
  364loPI   C6A 5820  10.968   6.332   7.725 -0.0600 -0.0337 -0.1100
  364loPI   C1B 5821  11.874   6.655   9.443  0.1012  0.2338  0.3431
  364loPI   C2B 5822  11.801   6.738   9.000  0.0727  0.2921 -0.0657
  364loPI   C3B 5823  11.603   6.667   8.583 -0.0468  0.2968 -0.0448
  364loPI   C4B 5824  11.618   6.587   8.126  0.0891 -0.1320 -0.0466
  365loPI    C1 5825   3.876   8.159  10.529 -0.0149 -0.0402 -0.2020
  365loPI    C2 5826   3.709   7.796  10.514  0.0984 -0.0976 -0.0848
  365loPI    C3 5827   3.987   7.878  10.790 -0.0332  0.1234 -0.0160
  365loPI   PO4 5828   4.065   8.148  10.295  0.1119  0.0917 -0.2251
  365loPI   GL1 5829   3.823   8.187   9.882  0.1938 -0.0248 -0.2799
  365loPI   GL2 5830   3.529   8.227   9.985 -0.1514  0.0010 -0.0558
  365loPI   C1A 5831   3.666   8.440   9.569 -0.1014 -0.0711  0.0548
  365loPI   C2A 5832   3.779   8.465   9.096 -0.0471  0.0338  0.0501
  365loPI   C3A 5833   3.736   8.264   8.775  0.1149  0.1271 -0.0052
  365loPI   C4A 5834   3.829   8.186   8.260  0.2716 -0.0242  0.1346
  365loPI   C5A 5835   3.726   7.858   7.986  0.1287 -0.0863 -0.1216
  365loPI   C6A 5836   3.349   7.684   7.793  0.0630 -0.0174 -0.2199
  365loPI   C1B 5837   3.512   7.873   9.613  0.2516  0.1953  0.1949
  365loPI   C2B 5838   3.567   7.991   9.202 -0.2057  0.4093  0.0244
  365loPI   C3B 5839   3.393   7.913   8.775  0.0378 -0.0393 -0.1719
  365loPI   C4B 5840   3.343   7.870   8.295  0.0062  0.1085  0.1287
  366loPI    C1 5841   0.204   2.460  10.595 -0.0604 -0.2056 -0.3384
  366loPI    C2 5842   0.577   2.353  10.693 -0.1546 -0.1350  0.1162
  366loPI    C3 5843   0.267   2.134  10.818 -0.2823 -0.0277 -0.0094
  366loPI   PO4 5844   0.219   2.491  10.299 -0.0609  0.0721 -0.1200
  366loPI   GL1 5845   0.419   2.341   9.917 -0.0666 -0.0202  0.2186
  366loPI   GL2 5846   0.128   2.254   9.775 -0.1631 -0.0760  0.1496
  366loPI   C1A 5847   0.603   2.488   9.538  0.1028 -0.1034  0.0579
  366loPI   C2A 5848   0.624   2.538   9.041 -0.2206  0.0418 -0.0809
  366loPI   C3A 5849   0.571   2.478   8.626 -0.2339  0.0790  0.0894
  366loPI   C4A 5850   0.640   2.433   8.198 -0.0934  0.3071 -0.0467
  366loPI   C5A 5851   0.761   2.291   7.817  0.1026 -0.2693 -0.1699
  366loPI   C6A 5852   1.037   2.250   7.503  0.0651  0.3886 -0.3433
  366loPI   C1B 5853   0.221   2.138   9.364 -0.0348 -0.2252 -0.0210
  366loPI   C2B 5854   0.375   2.066   8.948  0.1728  0.0046  0.3057
  366loPI   C3B 5855   0.420   2.014   8.468  0.1299 -0.1616 -0.0201
  366loPI   C4B 5856   0.619   1.820   8.180 -0.3724  0.0971 -0.0845
  367loPI    C1 5857   1.024   6.076  11.037  0.1018  0.0629  0.3941
  367loPI    C2 5858   0.805   5.757  11.137  0.1309 -0.0588  0.0823
  367loPI    C3 5859   0.716   6.117  11.289 -0.0899 -0.1611  0.2005
  367loPI   PO4 5860   1.076   5.974  10.682 -0.2595  0.0433  0.2968
  367loPI   GL1 5861   0.881   5.949  10.259 -0.0591 -0.0195 -0.0769
  367loPI   GL2 5862   0.929   6.197  10.084 -0.0892 -0.1331 -0.3129
  367loPI   C1A 5863   1.128   5.754   9.889 -0.1180  0.0086 -0.2654
  367loPI   C2A 5864   1.115   5.794   9.429 -0.1645  0.0436 -0.3026
  367loPI   C3A 5865   1.160   6.105   9.088 -0.0138  0.0319  0.1712
  367loPI   C4A 5866   1.123   6.244   8.585 -0.5872 -0.3534 -0.1301
  367loPI   C5A 5867   1.087   6.484   8.211 -0.0470  0.0783 -0.1324
  367loPI   C6A 5868   1.067   6.834   7.966 -0.1993  0.0153 -0.1503
  367loPI   C1B 5869   0.935   6.267   9.649  0.1655 -0.1983  0.1361
  367loPI   C2B 5870   0.908   6.512   9.309  0.2330  0.1249 -0.0906
  367loPI   C3B 5871   1.051   6.556   8.988 -0.2980  0.1491 -0.0229
  367loPI   C4B 5872   1.052   6.800   8.676 -0.1631 -0.0676  0.0639
  368loPI    C1 5873   0.219   5.624  10.728 -0.1623  0.0471  0.0585
  368loPI    C2 5874   0.012   5.572  11.065 -0.1950  0.1213  0.0502
  368loPI    C3 5875   0.379   5.417  11.030 -0.2976 -0.1196  0.0176
  368loPI   PO4 5876   0.077   5.573  10.540  0.0690 -0.0975  0.0763
  368loPI   GL1 5877   0.182   5.436  10.117  0.1496 -0.2929  0.1862
  368loPI   GL2 5878   0.471   5.383  10.233 -0.2124  0.0846 -0.0339
  368loPI   C1A 5879   0.061   5.558   9.726  0.1806  0.0247 -0.1232
  368loPI   C2A 5880   0.211   5.624   9.303 -0.1798  0.0192 -0.0806
  368loPI   C3A 5881   0.280   5.686   8.862 -0.0939  0.3798 -0.0068
  368loPI   C4A 5882   0.625   5.704   8.641 -0.1809 -0.1241  0.2919
  368loPI   C5A 5883   0.747   5.859   8.206 -0.1209 -0.1592  0.0827
  368loPI   C6A 5884   1.209   5.968   8.207  0.2807 -0.1235  0.0514
  368loPI   C1B 5885   0.734   5.439   9.901 -0.1617  0.2120 -0.1511
  368loPI   C2B 5886   0.678   5.537   9.465  0.0920  0.2960  0.0641
  368loPI   C3B 5887   0.835   5.586   9.067 -0.1805 -0.1015 -0.0665
  368loPI   C4B 5888   1.136   5.684   8.672 -0.0799 -0.3607  0.0178
  369loPI    C1 5889  11.167   4.144  10.837  0.2305 -0.0004  0.0048
  369loPI    C2 5890  11.002   4.499  10.917  0.2657  0.0278 -0.0479
  369loPI    C3 5891  11.322   4.378  11.122  0.0980 -0.0871  0.1499
  369loPI   PO4 5892  11.152   4.154  10.582  0.0312 -0.3785 -0.4152
  369loPI   GL1 5893  10.898   4.129  10.139 -0.0970 -0.2518 -0.0235
  369loPI   GL2 5894  10.763   4.459  10.130 -0.0429 -0.0022  0.3804
  369loPI   C1A 5895  10.999   3.895   9.802  0.1103 -0.1373  0.2844
  369loPI   C2A 5896  11.090   4.020   9.255 -0.3977 -0.0467 -0.1406
  369loPI   C3A 5897  11.208   3.890   8.798 -0.1211 -0.3088 -0.2375
  369loPI   C4A 5898  11.499   3.713   8.457  0.1311  0.2751  0.0657
  369loPI   C5A 5899  11.429   3.413   8.040  0.1410 -0.0670 -0.0777
  369loPI   C6A 5900  11.572   2.898   8.028 -0.0695  0.2879  0.1370
  369loPI   C1B 5901  10.749   4.299   9.655  0.1362  0.3959  0.0740
  369loPI   C2B 5902  10.708   4.348   9.184 -0.1216 -0.1445 -0.3449
  369loPI   C3B 5903  10.758   4.166   8.828  0.1821 -0.1194 -0.1190
  369loPI   C4B 5904  10.663   4.335   8.442 -0.0344 -0.1694 -0.0765
  370loPI    C1 5905   3.369  15.096  10.705  0.2191 -0.1173 -0.0726
  370loPI    C2 5906   3.446  15.461  10.850  0.0310 -0.1023 -0.0085
  370loPI    C3 5907   3.478  15.141  11.087 -0.0618 -0.0999  0.0076
  370loPI   PO4 5908   3.271  15.131  10.462 -0.0345  0.0938  0.0924
  370loPI   GL1 5909   3.199  15.395  10.155  0.0241 -0.0855 -0.1858
  370loPI   GL2 5910   2.925  15.185  10.068 -0.0924  0.2720 -0.1595
  370loPI   C1A 5911   3.286  15.530   9.761 -0.1638  0.0842 -0.0077
  370loPI   C2A 5912   3.310  15.518   9.352 -0.1280 -0.1468 -0.1681
  370loPI   C3A 5913   3.390  15.557   9.006 -0.2190  0.0793 -0.1365
  370loPI   C4A 5914   3.510  15.567   8.594  0.0452  0.1153 -0.0719
  370loPI   C5A 5915   3.895  15.574   8.190  0.1091  0.0151  0.0450
  370loPI   C6A 5916   3.920  15.688   7.754  0.1758  0.2459  0.0456
  370loPI   C1B 5917   2.961  15.129   9.636  0.2915 -0.0405 -0.0666
  370loPI   C2B 5918   3.001  15.135   9.256 -0.0917  0.0797 -0.2526
  370loPI   C3B 5919   2.970  15.245   8.810  0.0214 -0.2852  0.0107
  370loPI   C4B 5920   2.599  15.542   8.544  0.2256  0.2059  0.0397
  371loPI    C1 5921  15.705   4.942  10.161 -0.1176 -0.0944 -0.1821
  371loPI    C2 5922  15.640   5.262   9.930  0.0502 -0.0777 -0.2074
  371loPI    C3 5923  15.979   5.234  10.141 -0.0481 -0.1506 -0.0583
  371loPI   PO4 5924  15.673   4.683  10.029  0.0355  0.0929  0.3591
  371loPI   GL1 5925  15.813   4.530   9.615 -0.2188 -0.2686  0.0706
  371loPI   GL2 5926  16.164   4.440   9.771 -0.2117  0.0429  0.1906
  371loPI   C1A 5927  15.791   4.489   9.198 -0.4380 -0.4336 -0.3002
  371loPI   C2A 5928  16.026   4.446   8.805  0.4517  0.2430  0.2038
  371loPI   C3A 5929  15.900   4.124   8.536 -0.0647  0.0663 -0.0772
  371loPI   C4A 5930  15.873   3.754   8.384  0.1204  0.3521  0.3255
  371loPI   C5A 5931  15.871   3.509   8.022  0.1019 -0.0681 -0.2595
  371loPI   C6A 5932  15.823   3.137   8.013  0.1826  0.2003  0.0014
  371loPI   C1B 5933  16.219   4.236   9.359  0.3059  0.2124  0.0927
  371loPI   C2B 5934  16.381   4.158   8.907  0.1672 -0.3247  0.0358
  371loPI   C3B 5935  16.434   3.890   8.535  0.4881 -0.0471  0.1732
  371loPI   C4B 5936  16.594   3.626   8.270 -0.0832 -0.0103 -0.3052
  372loPI    C1 5937   8.615  11.132  10.702 -0.3293  0.1318 -0.2021
  372loPI    C2 5938   8.709  10.803  10.494 -0.0803  0.1010 -0.0455
  372loPI    C3 5939   8.374  10.813  10.713  0.0106 -0.1230  0.1068
  372loPI   PO4 5940   8.634  11.468  10.510 -0.3859 -0.0919 -0.1161
  372loPI   GL1 5941   8.727  11.715  10.156 -0.1005 -0.0995  0.1581
  372loPI   GL2 5942   8.603  11.945  10.095  0.2796 -0.0635  0.0189
  372loPI   C1A 5943   8.850  11.477   9.841  0.1505 -0.3218  0.3257
  372loPI   C2A 5944   8.890  11.645   9.390  0.0156  0.0348  0.2382
  372loPI   C3A 5945   8.945  11.661   8.920  0.0014 -0.0599 -0.0108
  372loPI   C4A 5946   8.810  11.622   8.469  0.2122 -0.3056  0.0182
  372loPI   C5A 5947   8.845  11.563   8.014 -0.3789 -0.1748  0.0693
  372loPI   C6A 5948   8.818  11.664   7.715 -0.2749  0.3276  0.0599
  372loPI   C1B 5949   8.725  12.091   9.630 -0.1365 -0.0650  0.4539
  372loPI   C2B 5950   8.739  12.132   9.192  0.0069  0.1641 -0.2349
  372loPI   C3B 5951   9.011  12.158   8.746  0.0332 -0.1558 -0.0343
  372loPI   C4B 5952   8.986  12.459   8.395  0.1439 -0.2614 -0.2637
  373loPI    C1 5953  12.407   8.345  10.941  0.0100 -0.1128  0.0558
  373loPI    C2 5954  12.527   8.138  10.621  0.0769  0.0325 -0.0142
  373loPI    C3 5955  12.720   8.099  10.970  0.1332  0.0305 -0.0456
  373loPI   PO4 5956  12.387   8.557  10.866  0.1915 -0.1648  0.2368
  373loPI   GL1 5957  12.361   8.763  10.442  0.0433 -0.1520 -0.0167
  373loPI   GL2 5958  12.089   8.786  10.369  0.2721 -0.1035  0.2217
  373loPI   C1A 5959  12.523   8.795  10.037 -0.0487 -0.0891 -0.1137
  373loPI   C2A 5960  12.716   8.674   9.657 -0.0475 -0.0460  0.2913
  373loPI   C3A 5961  12.741   8.731   9.252  0.1596  0.1016  0.4848
  373loPI   C4A 5962  12.868   8.508   8.955  0.0676 -0.3023  0.0403
  373loPI   C5A 5963  12.943   8.357   8.576 -0.0192  0.2716  0.1815
  373loPI   C6A 5964  12.983   8.482   8.095  0.1737 -0.0042  0.2764
  373loPI   C1B 5965  11.997   8.452   9.992  0.3683 -0.1709 -0.2142
  373loPI   C2B 5966  11.981   8.704   9.630  0.5175  0.2938 -0.2545
  373loPI   C3B 5967  12.195   8.829   9.238 -0.1386  0.1299  0.0781
  373loPI   C4B 5968  12.503   8.925   8.874  0.2832  0.1408 -0.0563
  374loPI    C1 5969   7.348  17.338  10.893 -0.3212 -0.0909 -0.0111
  374loPI    C2 5970   7.125  17.649  11.008  0.0588  0.1908 -0.0159
  374loPI    C3 5971   7.352  17.456  11.275 -0.0373  0.0309 -0.0487
  374loPI   PO4 5972   7.310  17.289  10.556 -0.2580 -0.0397  0.1113
  374loPI   GL1 5973   7.086  17.000  10.228 -0.0568  0.0459 -0.1430
  374loPI   GL2 5974   7.073  17.296  10.084 -0.0845  0.1032  0.0852
  374loPI   C1A 5975   7.188  16.746   9.915 -0.2056  0.1557 -0.1337
  374loPI   C2A 5976   7.463  16.474   9.642 -0.0442  0.3394 -0.0403
  374loPI   C3A 5977   7.660  16.511   9.225 -0.4308  0.0819  0.0099
  374loPI   C4A 5978   7.655  16.613   8.883  0.0766  0.0339  0.0716
  374loPI   C5A 5979   7.624  16.845   8.483  0.3088 -0.1182  0.0814
  374loPI   C6A 5980   7.812  16.982   8.044 -0.0821  0.0116  0.2720
  374loPI   C1B 5981   7.021  17.164   9.704  0.0059 -0.1518 -0.0887
  374loPI   C2B 5982   7.116  17.238   9.244  0.1284 -0.0051  0.0835
  374loPI   C3B 5983   7.035  17.286   8.789 -0.1137 -0.0950 -0.0413
  374loPI   C4B 5984   7.128  17.290   8.307  0.2211  0.1478 -0.0261
  375loPI    C1 5985  13.151   9.030  10.713 -0.1299  0.0768 -0.0617
  375loPI    C2 5986  13.357   8.741  10.529 -0.0655  0.0198  0.0985
  375loPI    C3 5987  13.477   8.876  10.886 -0.2805  0.0169  0.1731
  375loPI   PO4 5988  13.112   9.187  10.603  0.0349 -0.0945 -0.0976
  375loPI   GL1 5989  13.033   9.449  10.314  0.0050 -0.3107  0.4370
  375loPI   GL2 5990  13.033   9.754  10.255 -0.0998  0.1883 -0.2882
  375loPI   C1A 5991  13.298   9.183   9.906 -0.1091  0.1460  0.1355
  375loPI   C2A 5992  13.333   9.095   9.447  0.1654  0.0591 -0.1414
  375loPI   C3A 5993  13.231   8.866   9.061  0.0183  0.2503  0.1182
  375loPI   C4A 5994  13.100   8.835   8.689  0.1148  0.2362  0.3078
  375loPI   C5A 5995  13.194   8.923   8.297 -0.3051  0.3439 -0.2252
  375loPI   C6A 5996  13.204   9.069   7.981  0.1253 -0.1941  0.2619
  375loPI   C1B 5997  13.057   9.616   9.730  0.0868 -0.2088 -0.0010
  375loPI   C2B 5998  13.061   9.623   9.296 -0.2222  0.1850 -0.0675
  375loPI   C3B 5999  13.320   9.770   8.950  0.5316 -0.2598 -0.1036
  375loPI   C4B 6000  13.459   9.881   8.517  0.1598  0.1795 -0.0965
  376loPI    C1 6001  14.315   7.896  11.046  0.0415  0.1130 -0.0353
  376loPI    C2 6002  14.495   8.252  11.023  0.0721  0.0906 -0.1461
  376loPI    C3 6003  14.663   7.956  11.233  0.0035  0.1674  0.0181
  376loPI   PO4 6004  14.212   7.839  10.794  0.0076  0.3524 -0.1457
  376loPI   GL1 6005  14.182   7.832  10.432  0.0342 -0.1291  0.0965
  376loPI   GL2 6006  14.458   7.591  10.429  0.1020  0.1646 -0.4011
  376loPI   C1A 6007  14.183   8.087  10.081 -0.0062  0.2597  0.1559
  376loPI   C2A 6008  14.351   8.047   9.705  0.2517 -0.0590 -0.2568
  376loPI   C3A 6009  14.356   8.060   9.231  0.0996  0.1269 -0.1973
  376loPI   C4A 6010  14.258   8.046   8.836 -0.2612 -0.2203 -0.1099
  376loPI   C5A 6011  14.191   8.177   8.404  0.1704  0.0503 -0.4464
  376loPI   C6A 6012  14.295   8.330   8.008  0.0536 -0.2411  0.0235
  376loPI   C1B 6013  14.323   7.632   9.940 -0.0279 -0.0823  0.1755
  376loPI   C2B 6014  14.480   7.625   9.508 -0.1700 -0.2190  0.0188
  376loPI   C3B 6015  14.513   7.596   9.100  0.1523 -0.0253 -0.2691
  376loPI   C4B 6016  14.636   7.481   8.694 -0.0792 -0.1989 -0.2595
  377loPI    C1 6017   6.059  12.182  10.459  0.2802  0.0278 -0.2422
  377loPI    C2 6018   6.438  12.282  10.538  0.2735 -0.2111  0.1159
  377loPI    C3 6019   6.162  12.298  10.828  0.0290 -0.1387 -0.1165
  377loPI   PO4 6020   6.011  12.287  10.173  0.2132  0.0353 -0.1960
  377loPI   GL1 6021   5.637  12.316   9.858 -0.2123  0.2820 -0.1092
  377loPI   GL2 6022   5.522  12.337  10.269  0.3446 -0.1623  0.1818
  377loPI   C1A 6023   5.351  12.304   9.444 -0.4544 -0.0846  0.2954
  377loPI   C2A 6024   5.182  12.347   9.175 -0.1154  0.2318  0.0428
  377loPI   C3A 6025   5.020  12.483   8.878  0.0310 -0.1602 -0.1598
  377loPI   C4A 6026   5.015  12.609   8.461  0.3397 -0.0934  0.1820
  377loPI   C5A 6027   4.919  13.091   8.282  0.1168  0.1373  0.0654
  377loPI   C6A 6028   5.192  13.340   8.607 -0.0661  0.0697  0.1050
  377loPI   C1B 6029   5.179  12.195   9.896  0.4143 -0.3410 -0.2158
  377loPI   C2B 6030   4.850  12.258   9.652 -0.3632  0.1665 -0.0280
  377loPI   C3B 6031   4.703  12.232   9.217  0.0624  0.1413 -0.0812
  377loPI   C4B 6032   4.295  12.190   9.128 -0.1598  0.3041 -0.0583
  378loPI    C1 6033   7.599   1.677  10.617  0.1633 -0.1914 -0.1654
  378loPI    C2 6034   7.854   1.394  10.740 -0.1568 -0.2555  0.3834
  378loPI    C3 6035   7.920   1.776  10.834  0.0357 -0.1962  0.0273
  378loPI   PO4 6036   7.506   1.568  10.317 -0.0274 -0.4348 -0.5386
  378loPI   GL1 6037   7.575   1.532   9.935 -0.0597 -0.0407  0.0918
  378loPI   GL2 6038   7.608   1.837   9.711 -0.1048  0.2452  0.1386
  378loPI   C1A 6039   7.366   1.393   9.595 -0.1352  0.1260 -0.0232
  378loPI   C2A 6040   7.139   1.396   9.270 -0.1530  0.0212 -0.0564
  378loPI   C3A 6041   7.098   1.433   8.832 -0.0366  0.1830  0.0869
  378loPI   C4A 6042   7.138   1.469   8.465 -0.0993  0.0850  0.3058
  378loPI   C5A 6043   7.133   1.594   8.133 -0.2346 -0.0585 -0.0194
  378loPI   C6A 6044   7.137   1.676   7.650  0.2868 -0.0198 -0.2751
  378loPI   C1B 6045   7.497   1.776   9.384 -0.0171 -0.1628  0.1703
  378loPI   C2B 6046   7.527   1.882   8.876  0.1717 -0.3911 -0.1426
  378loPI   C3B 6047   7.433   1.852   8.525 -0.0528 -0.4111  0.1436
  378loPI   C4B 6048   7.395   2.043   8.053  0.0338 -0.2622  0.0556
  379loPI    C1 6049   5.710   1.264  10.353  0.0861 -0.0860 -0.0347
  379loPI    C2 6050   5.840   1.391  10.709  0.0322 -0.0793 -0.0174
  379loPI    C3 6051   5.459   1.448  10.603  0.1142  0.1668 -0.1889
  379loPI   PO4 6052   5.784   0.945  10.330  0.1959  0.2122 -0.0406
  379loPI   GL1 6053   5.666   0.846   9.885 -0.1646 -0.0189 -0.2132
  379loPI   GL2 6054   5.425   1.028   9.847 -0.0025 -0.0142 -0.3652
  379loPI   C1A 6055   5.672   0.663   9.470 -0.2191 -0.0104 -0.0008
  379loPI   C2A 6056   5.518   0.749   9.064  0.2638 -0.1225 -0.2516
  379loPI   C3A 6057   5.467   0.826   8.699 -0.1473  0.0218  0.0596
  379loPI   C4A 6058   5.529   0.849   8.224  0.2192  0.3846 -0.1470
  379loPI   C5A 6059   5.557   0.530   7.966  0.0930 -0.1656  0.2874
  379loPI   C6A 6060   5.422   0.190   7.786  0.1726 -0.0578  0.1268
  379loPI   C1B 6061   5.712   1.146   9.399 -0.0593  0.1803 -0.1224
  379loPI   C2B 6062   5.845   1.128   8.982 -0.1449  0.3144 -0.1540
  379loPI   C3B 6063   5.820   1.164   8.457 -0.1749  0.0837 -0.0774
  379loPI   C4B 6064   5.783   1.256   8.003 -0.2805 -0.1057  0.0972
  380loPI    C1 6065  11.890   8.028  11.121  0.0137 -0.0801  0.0652
  380loPI    C2 6066  11.629   7.738  11.028  0.0224 -0.0736  0.0201
  380loPI    C3 6067  11.697   7.831  11.411 -0.1010 -0.0212  0.0295
  380loPI   PO4 6068  11.848   8.202  10.914  0.3154  0.1763  0.0418
  380loPI   GL1 6069  11.998   8.276  10.499  0.2137  0.0764 -0.0363
  380loPI   GL2 6070  11.760   8.436  10.457 -0.3607 -0.1866  0.0221
  380loPI   C1A 6071  12.410   8.266  10.158 -0.2195 -0.0248 -0.0330
  380loPI   C2A 6072  12.383   8.360   9.745 -0.0356 -0.1167  0.1510
  380loPI   C3A 6073  12.286   8.363   9.321 -0.0856 -0.0986  0.0666
  380loPI   C4A 6074  11.989   7.980   9.101  0.0028  0.0685 -0.0325
  380loPI   C5A 6075  11.820   7.904   8.611  0.1860 -0.1060 -0.0664
  380loPI   C6A 6076  11.805   7.507   8.459  0.2283  0.1538  0.3504
  380loPI   C1B 6077  11.563   8.224  10.193  0.1685 -0.0504  0.0800
  380loPI   C2B 6078  11.496   8.305   9.824 -0.0506 -0.1620 -0.1544
  380loPI   C3B 6079  11.358   8.289   9.424  0.2116  0.2022  0.1315
  380loPI   C4B 6080  11.525   8.176   8.950 -0.1698 -0.2123 -0.1678
  381loPI    C1 6081  17.202   3.280  10.828  0.0847  0.1141 -0.0626
  381loPI    C2 6082  17.097   3.599  11.046  0.0870 -0.0140  0.1288
  381loPI    C3 6083  17.078   3.233  11.206  0.4229 -0.0784  0.0289
  381loPI   PO4 6084  17.173   3.301  10.567 -0.1583 -0.2350 -0.1821
  381loPI   GL1 6085  17.211   2.992  10.211 -0.1536  0.3162 -0.1835
  381loPI   GL2 6086  17.447   2.771  10.105 -0.3653 -0.0583 -0.1674
  381loPI   C1A 6087  16.971   3.104   9.924 -0.2034 -0.1426  0.1115
  381loPI   C2A 6088  16.926   3.034   9.489 -0.0717  0.0694 -0.0091
  381loPI   C3A 6089  17.004   2.972   9.024 -0.1226 -0.0229 -0.0125
  381loPI   C4A 6090  17.182   3.096   8.634  0.3140 -0.0253 -0.0505
  381loPI   C5A 6091  17.344   2.957   8.265 -0.4326  0.0373  0.1260
  381loPI   C6A 6092  17.148   2.896   7.820 -0.0522 -0.2721 -0.1340
  381loPI   C1B 6093  17.359   2.841   9.746 -0.2445 -0.0156  0.0838
  381loPI   C2B 6094  17.410   2.786   9.516 -0.0077 -0.0927  0.0544
  381loPI   C3B 6095  17.425   2.689   9.074 -0.3136  0.0486 -0.0525
  381loPI   C4B 6096  17.365   2.602   8.631  0.2074  0.2069  0.3202
  382loPI    C1 6097   1.042  13.102  10.944 -0.0737 -0.0520 -0.0658
  382loPI    C2 6098   1.286  13.033  11.254  0.0469  0.1602 -0.1118
  382loPI    C3 6099   0.903  13.131  11.318  0.0468  0.1086 -0.0326
  382loPI   PO4 6100   1.203  12.893  10.810 -0.2508 -0.0850  0.0616
  382loPI   GL1 6101   1.065  12.777  10.338 -0.0359  0.3345  0.0969
  382loPI   GL2 6102   1.196  12.467  10.375 -0.0805  0.1254 -0.0826
  382loPI   C1A 6103   1.228  12.758   9.890 -0.0537 -0.0714 -0.1620
  382loPI   C2A 6104   1.428  12.798   9.523 -0.2014  0.2330 -0.0642
  382loPI   C3A 6105   1.578  12.967   9.121 -0.1008 -0.1197 -0.1871
  382loPI   C4A 6106   1.566  13.088   8.727  0.4319  0.1274 -0.0366
  382loPI   C5A 6107   1.362  12.972   8.323  0.0377 -0.0731  0.3752
  382loPI   C6A 6108   1.072  12.847   7.940  0.2022  0.2363  0.1218
  382loPI   C1B 6109   1.052  12.331   9.992  0.3075 -0.3021 -0.2837
  382loPI   C2B 6110   1.166  12.334   9.593 -0.0237 -0.0104 -0.1972
  382loPI   C3B 6111   1.331  12.343   9.202  0.1804  0.0900 -0.0320
  382loPI   C4B 6112   1.311  12.607   8.812  0.0113 -0.2921 -0.0209
  383loPI    C1 6113   6.293   6.242  10.216 -0.1784 -0.0420  0.0579
  383loPI    C2 6114   6.178   5.929   9.994 -0.0784 -0.0834  0.0635
  383loPI    C3 6115   6.150   5.913  10.393  0.0393 -0.1322  0.0700
  383loPI   PO4 6116   6.163   6.436  10.016  0.0766 -0.0818  0.2992
  383loPI   GL1 6117   6.204   6.484   9.603  0.3597  0.0548 -0.0636
  383loPI   GL2 6118   6.259   6.160   9.585  0.0590 -0.2335  0.0222
  383loPI   C1A 6119   6.400   6.647   9.286 -0.1399 -0.1571 -0.0678
  383loPI   C2A 6120   6.396   6.570   8.802 -0.1446 -0.1866 -0.0746
  383loPI   C3A 6121   6.441   6.336   8.397 -0.2092  0.1420  0.2074
  383loPI   C4A 6122   6.609   6.024   7.992  0.0151  0.1922 -0.2035
  383loPI   C5A 6123   6.708   5.945   7.642  0.2525  0.0663  0.0118
  383loPI   C6A 6124   6.650   5.713   7.311  0.2214  0.1677  0.1620
  383loPI   C1B 6125   6.223   6.136   9.150  0.0279 -0.0433 -0.1006
  383loPI   C2B 6126   6.359   6.027   8.803  0.4152 -0.0899  0.0293
  383loPI   C3B 6127   6.321   5.819   8.317 -0.2124 -0.3774 -0.0099
  383loPI   C4B 6128   6.072   5.605   7.988  0.1513  0.1426  0.0996
  384loPI    C1 6129   9.216  10.711  10.963 -0.0670 -0.2103 -0.0516
  384loPI    C2 6130   8.864  10.870  11.066  0.0354  0.1737 -0.2757
  384loPI    C3 6131   9.169  10.876  11.324 -0.0268  0.1356 -0.2008
  384loPI   PO4 6132   9.168  10.792  10.648 -0.2110  0.0491  0.0352
  384loPI   GL1 6133   9.544  10.864  10.229 -0.1044 -0.1580 -0.1290
  384loPI   GL2 6134   9.522  11.268  10.103  0.0926 -0.3330 -0.0406
  384loPI   C1A 6135   9.517  10.751   9.817 -0.1967  0.0597  0.1350
  384loPI   C2A 6136   9.588  10.443   9.446  0.0345  0.0162  0.0610
  384loPI   C3A 6137   9.544  10.316   9.041  0.1575  0.1871  0.0439
  384loPI   C4A 6138   9.700  10.371   8.650 -0.2593  0.3083 -0.0309
  384loPI   C5A 6139   9.955  10.391   8.319  0.1523  0.1192 -0.0796
  384loPI   C6A 6140  10.335  10.242   8.301 -0.1905 -0.1560 -0.0984
  384loPI   C1B 6141   9.662  11.210   9.714  0.0283  0.1397 -0.1254
  384loPI   C2B 6142   9.636  11.057   9.371 -0.1863 -0.3864  0.1484
  384loPI   C3B 6143   9.352  10.834   9.144  0.2677 -0.1952  0.1539
  384loPI   C4B 6144   9.073  10.540   9.318  0.1756  0.3024 -0.3069
  385loPI    C1 6145  10.243  10.133  10.696 -0.1638 -0.1776  0.2117
  385loPI    C2 6146  10.053   9.960  11.003 -0.1602 -0.4052  0.0881
  385loPI    C3 6147  10.096   9.763  10.657 -0.2332 -0.1216 -0.0863
  385loPI   PO4 6148  10.182  10.286  10.592 -0.1805 -0.1507  0.0417
  385loPI   GL1 6149  10.467  10.479  10.234  0.0679  0.1531  0.1173
  385loPI   GL2 6150  10.486  10.817  10.181 -0.0981  0.1763  0.0687
  385loPI   C1A 6151  10.460  10.361   9.811 -0.0383  0.2945  0.2421
  385loPI   C2A 6152  10.497  10.292   9.335 -0.1303  0.1178  0.0824
  385loPI   C3A 6153  10.543  10.343   8.863  0.1159 -0.1613 -0.2998
  385loPI   C4A 6154  10.203  10.507   8.710  0.3398  0.0015 -0.0143
  385loPI   C5A 6155  10.169  10.892   8.451 -0.1770 -0.0725  0.1981
  385loPI   C6A 6156  10.107  11.007   8.100 -0.0171  0.1431  0.0233
  385loPI   C1B 6157  10.518  10.899   9.730 -0.1719 -0.1761 -0.2161
  385loPI   C2B 6158  10.477  10.791   9.263  0.0874  0.0196 -0.0694
  385loPI   C3B 6159  10.397  10.979   8.902  0.2054 -0.1609 -0.0526
  385loPI   C4B 6160  10.247  11.384   8.611  0.2086 -0.2270 -0.0609
  386loPI    C1 6161   1.336  15.491  10.894 -0.1001  0.1236  0.1386
  386loPI    C2 6162   1.086  15.182  10.944  0.1257 -0.1091 -0.1353
  386loPI    C3 6163   1.443  15.182  11.125 -0.0603  0.2187  0.2487
  386loPI   PO4 6164   1.403  15.509  10.624  0.0067  0.2594  0.2728
  386loPI   GL1 6165   1.521  15.514  10.277 -0.1097  0.1057  0.0288
  386loPI   GL2 6166   1.652  15.260  10.182 -0.1598 -0.1612 -0.2606
  386loPI   C1A 6167   1.362  15.794   9.865 -0.1219 -0.1392 -0.0674
  386loPI   C2A 6168   1.368  16.185   9.573  0.0265 -0.4673 -0.4110
  386loPI   C3A 6169   1.323  16.108   9.084 -0.3824  0.1942 -0.0464
  386loPI   C4A 6170   1.288  16.147   8.658  0.0672  0.0762 -0.3740
  386loPI   C5A 6171   1.100  16.551   8.444 -0.0489  0.0061 -0.4265
  386loPI   C6A 6172   1.392  16.919   8.244  0.0297  0.2060 -0.0687
  386loPI   C1B 6173   1.680  14.908   9.888  0.0638 -0.1528 -0.1686
  386loPI   C2B 6174   1.600  14.853   9.425  0.0569 -0.0232  0.1278
  386loPI   C3B 6175   1.621  14.721   9.006  0.0624 -0.0392  0.3050
  386loPI   C4B 6176   1.279  14.696   8.659  0.0460  0.4130  0.0382
  387loPI    C1 6177   4.430   9.945  10.854 -0.0017  0.0048 -0.1583
  387loPI    C2 6178   4.272  10.205  11.113 -0.0822 -0.0065 -0.1959
  387loPI    C3 6179   4.594   9.992  11.215  0.1305  0.2820 -0.2514
  387loPI   PO4 6180   4.477  10.081  10.598 -0.0849 -0.1619  0.1032
  387loPI   GL1 6181   4.163  10.297  10.208 -0.3689 -0.1807  0.3307
  387loPI   GL2 6182   4.040  10.087  10.020  0.1546 -0.1305  0.1241
  387loPI   C1A 6183   4.474  10.327   9.818  0.0107 -0.0934  0.1976
  387loPI   C2A 6184   4.586  10.181   9.411  0.2053 -0.2521 -0.2457
  387loPI   C3A 6185   4.517  10.348   9.103  0.2730  0.1427 -0.1102
  387loPI   C4A 6186   4.710  10.216   8.679 -0.1213  0.0114 -0.0722
  387loPI   C5A 6187   4.766   9.853   8.374 -0.0764 -0.0948  0.1366
  387loPI   C6A 6188   4.850   9.673   7.893  0.1008 -0.0316 -0.0045
  387loPI   C1B 6189   4.158   9.930   9.620 -0.1446  0.2217  0.0462
  387loPI   C2B 6190   4.170  10.009   9.203  0.2094 -0.0388 -0.1318
  387loPI   C3B 6191   4.183   9.981   8.780 -0.1991  0.0237 -0.2207
  387loPI   C4B 6192   4.326  10.144   8.411  0.2426  0.1318 -0.1948
  388loPI    C1 6193   6.811  16.067  10.528 -0.0717 -0.0492  0.1967
  388loPI    C2 6194   6.711  15.768  10.774 -0.0941  0.0052  0.2540
  388loPI    C3 6195   7.001  16.023  10.877  0.0743 -0.1244  0.1089
  388loPI   PO4 6196   6.917  16.041  10.320  0.0549  0.0294 -0.2295
  388loPI   GL1 6197   6.840  15.843   9.918  0.2275 -0.1685  0.1304
  388loPI   GL2 6198   6.703  15.729   9.777 -0.1129  0.1958  0.2559
  388loPI   C1A 6199   6.946  16.151   9.614  0.0940 -0.0455 -0.1613
  388loPI   C2A 6200   7.209  16.257   9.249  0.1156 -0.2686 -0.1144
  388loPI   C3A 6201   7.314  16.246   8.858  0.0434  0.2984  0.0236
  388loPI   C4A 6202   7.544  16.283   8.450  0.2223  0.1772  0.0004
  388loPI   C5A 6203   7.510  16.550   8.120 -0.2178 -0.2323 -0.2094
  388loPI   C6A 6204   7.294  16.479   7.809  0.1810  0.0144  0.2693
  388loPI   C1B 6205   6.410  15.867   9.380  0.2192 -0.2551  0.2358
  388loPI   C2B 6206   6.117  16.035   9.164  0.0566 -0.0785  0.1560
  388loPI   C3B 6207   5.713  16.027   9.227 -0.1161 -0.1716 -0.0772
  388loPI   C4B 6208   5.442  16.323   9.600 -0.1257 -0.0677 -0.0403
  389loPI    C1 6209  14.047  15.632  11.029 -0.0977 -0.0183 -0.1430
  389loPI    C2 6210  14.388  15.817  11.126 -0.0567 -0.1656 -0.0011
  389loPI    C3 6211  14.155  15.663  11.413 -0.0017 -0.4885 -0.1251
  389loPI   PO4 6212  14.052  15.580  10.766 -0.0088  0.0105 -0.3672
  389loPI   GL1 6213  13.795  15.410  10.368 -0.3837  0.1103  0.0607
  389loPI   GL2 6214  13.937  15.711  10.261  0.1885  0.2629 -0.0101
  389loPI   C1A 6215  13.740  15.272   9.897  0.4625 -0.2152 -0.0453
  389loPI   C2A 6216  13.876  15.346   9.566 -0.1140  0.0181 -0.1355
  389loPI   C3A 6217  13.645  15.351   9.154 -0.0401  0.0172 -0.1013
  389loPI   C4A 6218  13.542  15.322   8.722  0.1124  0.0551  0.1735
  389loPI   C5A 6219  13.240  15.228   8.468  0.1124  0.0835 -0.2711
  389loPI   C6A 6220  12.801  15.263   8.498 -0.0462 -0.2374 -0.2322
  389loPI   C1B 6221  13.793  15.778   9.762 -0.0194 -0.0201 -0.1221
  389loPI   C2B 6222  13.987  15.736   9.316 -0.2150  0.1863  0.1452
  389loPI   C3B 6223  14.040  15.547   8.946  0.1425 -0.1032  0.0539
  389loPI   C4B 6224  14.173  15.358   8.567  0.1980 -0.3044  0.4273
  390loPI    C1 6225   9.980  12.672  10.549  0.0143 -0.0408 -0.0120
  390loPI    C2 6226   9.685  12.682  10.280 -0.0425 -0.0051  0.0513
  390loPI    C3 6227   9.600  12.688  10.671  0.0424  0.0146  0.0697
  390loPI   PO4 6228  10.095  12.393  10.545  0.1832 -0.0672  0.1518
  390loPI   GL1 6229  10.411  12.333  10.204  0.2574 -0.1014 -0.1665
  390loPI   GL2 6230  10.122  12.431  10.019 -0.1795  0.2915  0.0407
  390loPI   C1A 6231  10.635  12.286   9.954  0.1190  0.0233 -0.0901
  390loPI   C2A 6232  10.736  12.146   9.537 -0.2862 -0.0871 -0.0202
  390loPI   C3A 6233  10.853  11.952   9.170 -0.0350  0.1873  0.3722
  390loPI   C4A 6234  10.800  11.936   8.739 -0.0001 -0.1888  0.1479
  390loPI   C5A 6235  10.547  12.106   8.450 -0.2289  0.1241 -0.1406
  390loPI   C6A 6236  10.295  12.060   8.135 -0.0519  0.4559  0.1538
  390loPI   C1B 6237  10.277  12.344   9.508  0.0776  0.0135  0.0313
  390loPI   C2B 6238  10.453  12.228   9.091  0.1806 -0.0882  0.2848
  390loPI   C3B 6239  10.753  12.376   8.860 -0.2427  0.2272  0.1566
  390loPI   C4B 6240  10.982  12.770   8.592 -0.4479 -0.3853  0.0523
  391loPI    C1 6241  17.764   6.458  10.549 -0.2005  0.1447  0.0703
  391loPI    C2 6242  17.543   6.147  10.669 -0.1481  0.0612 -0.0469
  391loPI    C3 6243  17.709   6.392  10.939 -0.2392  0.0226  0.0444
  391loPI   PO4 6244  17.645   6.627  10.402  0.1888  0.3840  0.1526
  391loPI   GL1 6245  17.620   6.604   9.937 -0.3677  0.1156 -0.0612
  391loPI   GL2 6246  17.572   6.964  10.005 -0.3118 -0.2090 -0.1482
  391loPI   C1A 6247  17.689   6.455   9.546 -0.0201 -0.2919 -0.0413
  391loPI   C2A 6248  17.731   6.252   9.190 -0.1110  0.1591  0.3038
  391loPI   C3A 6249  17.764   6.348   8.686 -0.1353 -0.0887 -0.0160
  391loPI   C4A 6250  17.896   6.253   8.300 -0.1763  0.2467  0.0551
  391loPI   C5A 6251  18.017   6.025   7.969  0.0405  0.1085 -0.0508
  391loPI   C6A 6252  18.433   5.867   8.013  0.0850  0.0047  0.2974
  391loPI   C1B 6253  17.729   6.971   9.605 -0.1271  0.0026  0.0287
  391loPI   C2B 6254  17.821   7.006   9.180 -0.2029  0.2401 -0.4309
  391loPI   C3B 6255  17.952   7.345   8.910  0.1670 -0.2340  0.2791
  391loPI   C4B 6256  18.022   7.669   8.528  0.2282  0.0233  0.1621
  392loPI    C1 6257  16.816   4.317  10.670  0.1059 -0.1449  0.3571
  392loPI    C2 6258  16.572   4.335  10.987  0.0559 -0.0693  0.3148
  392loPI    C3 6259  16.817   4.641  10.906 -0.0058 -0.0443  0.2213
  392loPI   PO4 6260  16.660   4.207  10.442  0.3557  0.1293 -0.1845
  392loPI   GL1 6261  16.745   4.238  10.066 -0.0384  0.0081 -0.1759
  392loPI   GL2 6262  16.850   3.982   9.904  0.3961 -0.1111 -0.0963
  392loPI   C1A 6263  16.616   4.297   9.630 -0.1158 -0.1201 -0.0230
  392loPI   C2A 6264  16.687   4.386   9.248 -0.0871 -0.3373  0.2011
  392loPI   C3A 6265  16.771   4.426   8.750 -0.1832 -0.2999  0.2835
  392loPI   C4A 6266  16.576   4.495   8.439 -0.2627  0.0799  0.0047
  392loPI   C5A 6267  16.283   4.377   8.239 -0.0109 -0.0385 -0.1155
  392loPI   C6A 6268  15.998   4.322   7.956  0.6239  0.3990 -0.0878
  392loPI   C1B 6269  16.868   3.938   9.402  0.0007 -0.1938 -0.0019
  392loPI   C2B 6270  16.876   3.962   8.958  0.2210 -0.0684 -0.2193
  392loPI   C3B 6271  16.968   3.989   8.545  0.0684 -0.0874 -0.1178
  392loPI   C4B 6272  16.742   4.148   8.112  0.1360  0.1210  0.0403
  393loPI    C1 6273   0.441   1.295  10.787 -0.0862  0.0874  0.1371
  393loPI    C2 6274   0.706   1.301  11.087  0.0296  0.2670  0.0330
  393loPI    C3 6275   0.317   1.251  11.165  0.0875  0.0483  0.1903
  393loPI   PO4 6276   0.560   1.060  10.625 -0.1262  0.0268 -0.1398
  393loPI   GL1 6277   0.436   1.012  10.270 -0.2106  0.2113  0.3082
  393loPI   GL2 6278   0.219   1.221  10.143  0.2084 -0.2484 -0.0267
  393loPI   C1A 6279   0.667   0.811   9.935  0.0470  0.2538 -0.2276
  393loPI   C2A 6280   0.733   0.735   9.418 -0.1210 -0.1558  0.0746
  393loPI   C3A 6281   0.817   0.622   8.979 -0.1004 -0.1022  0.0958
  393loPI   C4A 6282   0.879   0.733   8.560  0.1693  0.1804  0.1898
  393loPI   C5A 6283   1.147   1.067   8.189 -0.2871 -0.0993  0.0595
  393loPI   C6A 6284   0.926   1.362   8.097 -0.3404 -0.0346 -0.0160
  393loPI   C1B 6285   0.159   1.050   9.769  0.3856 -0.0191 -0.0242
  393loPI   C2B 6286   0.092   0.847   9.367  0.0060 -0.1598 -0.2818
  393loPI   C3B 6287  -0.012   0.725   8.892  0.0838 -0.3556 -0.0824
  393loPI   C4B 6288   0.058   0.385   8.512 -0.4200 -0.1962  0.2471
  394loPI    C1 6289   6.850  13.965  10.777  0.2534  0.1612 -0.1809
  394loPI    C2 6290   6.921  14.317  10.953 -0.0989  0.1786 -0.0641
  394loPI    C3 6291   6.646  14.070  11.105  0.1411 -0.1477 -0.1482
  394loPI   PO4 6292   6.853  14.081  10.509  0.2479  0.0262  0.0160
  394loPI   GL1 6293   6.967  14.004  10.123  0.2462  0.1447 -0.2566
  394loPI   GL2 6294   6.730  13.906  10.009 -0.3581  0.0338 -0.1886
  394loPI   C1A 6295   7.309  13.897   9.803 -0.1447  0.2459  0.1562
  394loPI   C2A 6296   7.288  13.928   9.379 -0.1807  0.0497 -0.0238
  394loPI   C3A 6297   7.147  13.815   8.971 -0.0910  0.0471 -0.2909
  394loPI   C4A 6298   7.150  13.869   8.582  0.0090  0.0903  0.4573
  394loPI   C5A 6299   7.299  14.261   8.349  0.0340 -0.0038 -0.0193
  394loPI   C6A 6300   7.470  14.340   7.882  0.2022 -0.1937  0.0722
  394loPI   C1B 6301   6.854  13.894   9.617  0.3679 -0.2181  0.0062
  394loPI   C2B 6302   6.697  13.771   9.205  0.0326  0.1087  0.6103
  394loPI   C3B 6303   6.458  13.862   9.008  0.1365  0.1455  0.2149
  394loPI   C4B 6304   6.183  14.041   8.701  0.1831 -0.0332  0.1042
  395loPI    C1 6305  13.705   1.238  10.966 -0.0604 -0.1770 -0.0833
  395loPI    C2 6306  13.591   1.585  11.129 -0.0694 -0.2021 -0.0357
  395loPI    C3 6307  13.964   1.451  11.184 -0.0365 -0.1528 -0.1351
  395loPI   PO4 6308  13.629   1.245  10.706  0.0054 -0.2063 -0.2083
  395loPI   GL1 6309  13.641   0.981  10.347  0.0045 -0.0624 -0.2042
  395loPI   GL2 6310  13.371   1.088  10.255 -0.0511  0.0732  0.0042
  395loPI   C1A 6311  13.622   0.662   9.982  0.1657  0.0302  0.1279
  395loPI   C2A 6312  13.530   0.566   9.570  0.2207 -0.1580 -0.1155
  395loPI   C3A 6313  13.621   0.727   9.214 -0.2036 -0.4287 -0.3686
  395loPI   C4A 6314  13.589   0.829   8.820 -0.0927  0.3864 -0.0615
  395loPI   C5A 6315  13.664   0.590   8.422  0.3926  0.0096  0.0267
  395loPI   C6A 6316  13.484   0.578   8.022 -0.1268  0.1682  0.2462
  395loPI   C1B 6317  13.310   1.022   9.825 -0.0319  0.0596 -0.4019
  395loPI   C2B 6318  13.195   1.103   9.441  0.3294  0.0669 -0.1554
  395loPI   C3B 6319  13.232   1.243   9.019  0.1611  0.1760  0.1152
  395loPI   C4B 6320  13.303   1.397   8.496 -0.1469 -0.1198 -0.0437
  396loPI    C1 6321  12.133   1.393  10.882  0.1503 -0.0777  0.0255
  396loPI    C2 6322  11.893   1.644  11.081 -0.0322 -0.2276 -0.0016
  396loPI    C3 6323  12.276   1.605  11.189 -0.0800 -0.1637  0.1954
  396loPI   PO4 6324  12.007   1.440  10.621 -0.0082  0.1751  0.0238
  396loPI   GL1 6325  12.078   1.412  10.280 -0.1383  0.1996 -0.3036
  396loPI   GL2 6326  12.180   1.118  10.166  0.0379  0.0424  0.1247
  396loPI   C1A 6327  11.915   1.534   9.959  0.0572  0.1122  0.1007
  396loPI   C2A 6328  11.946   1.507   9.513  0.1331 -0.1029 -0.0518
  396loPI   C3A 6329  12.024   1.439   9.119 -0.5290  0.1778  0.2934
  396loPI   C4A 6330  11.959   1.470   8.675 -0.2278  0.0674  0.0881
  396loPI   C5A 6331  11.838   1.361   8.193  0.0226 -0.0240  0.0045
  396loPI   C6A 6332  11.641   1.389   7.775 -0.0612  0.0967  0.3067
  396loPI   C1B 6333  12.248   1.167   9.721  0.3175 -0.0070  0.1925
  396loPI   C2B 6334  12.292   1.058   9.381  0.1305  0.2366  0.1643
  396loPI   C3B 6335  12.344   1.043   8.914 -0.0567  0.2328 -0.3066
  396loPI   C4B 6336  12.232   1.063   8.435  0.2697  0.2874 -0.1769
  397loPI    C1 6337  14.537   4.217  10.616  0.0928 -0.1445 -0.1041
  397loPI    C2 6338  14.492   4.113  10.233  0.1472  0.0818 -0.1733
  397loPI    C3 6339  14.319   4.446  10.372  0.0528 -0.0466  0.0220
  397loPI   PO4 6340  14.841   4.115  10.594  0.3790 -0.1359 -0.2040
  397loPI   GL1 6341  15.018   3.771  10.278 -0.0244 -0.1961 -0.1667
  397loPI   GL2 6342  15.231   3.791   9.986  0.0462  0.0379 -0.3434
  397loPI   C1A 6343  14.797   4.038   9.877  0.2076 -0.2075 -0.0302
  397loPI   C2A 6344  14.926   4.126   9.417  0.0944 -0.0364  0.0690
  397loPI   C3A 6345  15.013   4.119   9.005 -0.1300 -0.0311 -0.1591
  397loPI   C4A 6346  14.983   3.935   8.597  0.2252  0.0678  0.0382
  397loPI   C5A 6347  15.037   4.007   8.155 -0.1489  0.0427 -0.1012
  397loPI   C6A 6348  15.040   3.712   7.895 -0.3039  0.0737 -0.2214
  397loPI   C1B 6349  15.251   3.677   9.483 -0.0489 -0.3969  0.4446
  397loPI   C2B 6350  15.350   3.720   9.047 -0.1221  0.0316  0.0713
  397loPI   C3B 6351  15.431   3.642   8.574  0.0030 -0.2034 -0.1604
  397loPI   C4B 6352  15.390   3.367   8.121 -0.0521  0.1015 -0.3026
  398loPI    C1 6353   2.426   9.876  10.616  0.1809  0.1290  0.0195
  398loPI    C2 6354   2.718  10.008  10.855  0.0447  0.0811  0.2145
  398loPI    C3 6355   2.340  10.122  10.919 -0.0155 -0.0656  0.1244
  398loPI   PO4 6356   2.453   9.933  10.286  0.0510 -0.2818 -0.2789
  398loPI   GL1 6357   2.619  10.054   9.884 -0.0763  0.1048 -0.3186
  398loPI   GL2 6358   2.393  10.304   9.993  0.2316 -0.0678 -0.0425
  398loPI   C1A 6359   2.553   9.830   9.565 -0.1291  0.4414  0.1748
  398loPI   C2A 6360   2.365   9.619   9.167 -0.2380 -0.1443  0.0059
  398loPI   C3A 6361   2.520   9.606   8.802  0.0856  0.1959 -0.0245
  398loPI   C4A 6362   2.753   9.320   8.630 -0.0593 -0.0460  0.0026
  398loPI   C5A 6363   2.817   9.006   8.241  0.2577  0.1841 -0.0296
  398loPI   C6A 6364   3.191   8.965   7.960 -0.2366 -0.4902  0.2750
  398loPI   C1B 6365   2.271  10.301   9.581 -0.0535 -0.0841  0.3419
  398loPI   C2B 6366   2.105  10.000   9.281  0.0614  0.1636 -0.1817
  398loPI   C3B 6367   1.989   9.758   8.834 -0.2380 -0.0247  0.2163
  398loPI   C4B 6368   2.030   9.694   8.405  0.2208 -0.2691  0.0182
  399loPI    C1 6369   4.917  17.971  10.817  0.2062  0.2209  0.1286
  399loPI    C2 6370   4.790  18.345  10.879 -0.1874  0.0875  0.1564
  399loPI    C3 6371   4.525  18.046  10.849  0.1112 -0.1615 -0.0690
  399loPI   PO4 6372   5.195  18.010  10.551  0.0853  0.0344 -0.1601
  399loPI   GL1 6373   5.249  17.914  10.099  0.1644  0.2175 -0.0016
  399loPI   GL2 6374   5.363  17.550   9.957  0.0914 -0.0923  0.1976
  399loPI   C1A 6375   5.486  18.045   9.727  0.0669 -0.3333 -0.0203
  399loPI   C2A 6376   5.465  18.285   9.365 -0.1427 -0.4566 -0.0067
  399loPI   C3A 6377   5.249  18.409   9.045  0.0223  0.0028 -0.1726
  399loPI   C4A 6378   5.233  18.116   8.625 -0.2739  0.0067 -0.0125
  399loPI   C5A 6379   5.205  18.062   8.253  0.1733 -0.0512  0.1394
  399loPI   C6A 6380   5.391  17.803   7.832 -0.2010 -0.0817 -0.0805
  399loPI   C1B 6381   5.369  17.358   9.607  0.1626  0.1108  0.1611
  399loPI   C2B 6382   5.536  17.296   9.204 -0.0729  0.0634 -0.1410
  399loPI   C3B 6383   5.455  17.185   8.783  0.1615 -0.2795  0.0849
  399loPI   C4B 6384   5.795  17.250   8.382 -0.1825  0.1303 -0.1686
  400loPI    C1 6385   4.542  14.609  10.432  0.1131 -0.1993 -0.0601
  400loPI    C2 6386   4.472  14.262  10.619 -0.2468 -0.0703  0.0517
  400loPI    C3 6387   4.667  14.556  10.808 -0.1905 -0.1102  0.0558
  400loPI   PO4 6388   4.658  14.640  10.238  0.4602 -0.1670 -0.1411
  400loPI   GL1 6389   4.515  14.632   9.833  0.1812 -0.0373 -0.0372
  400loPI   GL2 6390   4.287  14.800   9.905  0.1153 -0.0377  0.0534
  400loPI   C1A 6391   4.413  14.671   9.369  0.0538  0.1967 -0.0039
  400loPI   C2A 6392   4.455  14.589   8.933  0.0908 -0.0962  0.1683
  400loPI   C3A 6393   4.239  14.380   8.604  0.1775  0.2787 -0.1467
  400loPI   C4A 6394   3.932  14.255   8.321 -0.2944  0.2020  0.0510
  400loPI   C5A 6395   3.676  14.329   7.929 -0.2934  0.0913  0.2298
  400loPI   C6A 6396   3.865  14.168   7.588 -0.1984 -0.1304 -0.4500
  400loPI   C1B 6397   3.987  14.865   9.536 -0.2811  0.0106 -0.1713
  400loPI   C2B 6398   4.030  14.856   9.120 -0.1463 -0.0546 -0.2264
  400loPI   C3B 6399   4.002  14.921   8.653 -0.0936  0.0619  0.0488
  400loPI   C4B 6400   4.032  14.835   8.290  0.2036  0.1924 -0.0560
  401loPI    C1 6401   0.712  17.755  11.033 -0.1437 -0.2961  0.1249
  401loPI    C2 6402   0.666  18.059  11.289 -0.3802 -0.1034 -0.1410
  401loPI    C3 6403   0.601  17.684  11.411 -0.1460 -0.0461  0.1729
  401loPI   PO4 6404   0.662  17.915  10.733 -0.1071 -0.0148  0.3661
  401loPI   GL1 6405   0.625  17.784  10.266  0.1131  0.1053 -0.0209
  401loPI   GL2 6406   0.927  17.673  10.252 -0.2067 -0.2352  0.3157
  401loPI   C1A 6407   0.428  18.029   9.798 -0.1056 -0.0652  0.0430
  401loPI   C2A 6408   0.266  18.198   9.399  0.0704 -0.0334 -0.0099
  401loPI   C3A 6409  -0.045  18.261   8.998  0.0707  0.2219  0.0528
  401loPI   C4A 6410  -0.294  18.488   8.899 -0.2463  0.1296  0.1759
  401loPI   C5A 6411  -0.461  18.633   8.465  0.1240 -0.1847  0.0016
  401loPI   C6A 6412  -0.830  18.438   8.242  0.3435  0.1049 -0.1211
  401loPI   C1B 6413   0.714  17.593   9.812  0.2611  0.0974  0.0894
  401loPI   C2B 6414   0.693  17.387   9.389 -0.2589 -0.2577 -0.2692
  401loPI   C3B 6415   0.810  17.130   9.045  0.2133  0.2451  0.0773
  401loPI   C4B 6416   0.900  16.982   8.597 -0.1261  0.0095  0.3178
  402loPI    C1 6417   2.332   7.693  10.340  0.0781  0.0609 -0.0543
  402loPI    C2 6418   2.009   7.723  10.575 -0.1072 -0.1376 -0.2784
  402loPI    C3 6419   2.366   7.842  10.710 -0.2200 -0.1928  0.0808
  402loPI   PO4 6420   2.302   7.697  10.194 -0.0803 -0.1407  0.2511
  402loPI   GL1 6421   1.986   7.755   9.849 -0.0734  0.0097  0.3276
  402loPI   GL2 6422   2.044   7.365   9.870  0.2090 -0.0175 -0.0042
  402loPI   C1A 6423   1.862   7.996   9.489  0.1363 -0.2796  0.0786
  402loPI   C2A 6424   1.796   8.187   9.112  0.2080  0.1799 -0.1418
  402loPI   C3A 6425   1.947   8.225   8.662  0.2799  0.1326  0.2077
  402loPI   C4A 6426   2.170   8.458   8.305 -0.0333 -0.2560 -0.0925
  402loPI   C5A 6427   2.379   8.306   7.864 -0.1610 -0.0690 -0.3263
  402loPI   C6A 6428   2.627   8.109   7.645 -0.1425  0.1617 -0.2803
  402loPI   C1B 6429   2.178   7.371   9.448 -0.0146 -0.0646  0.0025
  402loPI   C2B 6430   2.306   7.404   8.994  0.0619  0.3190 -0.1780
  402loPI   C3B 6431   2.539   7.621   8.744 -0.0423 -0.4311 -0.0938
  402loPI   C4B 6432   2.813   7.666   8.462 -0.1986 -0.3084  0.0792
  403loPI    C1 6433  16.874   2.828  10.781 -0.0882  0.1393  0.1162
  403loPI    C2 6434  16.477   2.852  10.733 -0.0862 -0.1498 -0.0659
  403loPI    C3 6435  16.632   2.806  11.099 -0.2214 -0.0617  0.0033
  403loPI   PO4 6436  17.024   2.618  10.521 -0.3112 -0.1739  0.0037
  403loPI   GL1 6437  17.070   2.445  10.113 -0.0550  0.0634  0.2166
  403loPI   GL2 6438  16.790   2.199   9.981 -0.2804 -0.0579 -0.1033
  403loPI   C1A 6439  17.008   2.482   9.658 -0.0292 -0.1514 -0.2462
  403loPI   C2A 6440  16.952   2.481   9.254 -0.0864 -0.1280 -0.2996
  403loPI   C3A 6441  16.876   2.533   8.850 -0.0684  0.0193  0.2233
  403loPI   C4A 6442  16.927   2.514   8.308 -0.1774 -0.2335  0.1854
  403loPI   C5A 6443  16.577   2.778   8.092  0.0841  0.2777 -0.0335
  403loPI   C6A 6444  16.382   3.147   8.025  0.1120  0.1325 -0.2722
  403loPI   C1B 6445  16.715   2.075   9.584  0.2222  0.0922  0.0372
  403loPI   C2B 6446  16.758   2.006   9.105 -0.0720  0.1271 -0.0394
  403loPI   C3B 6447  16.693   2.049   8.723 -0.2346  0.0554  0.0235
  403loPI   C4B 6448  16.451   1.917   8.424  0.1787  0.0966  0.0137
  404loPI    C1 6449   2.850   7.701  10.691 -0.1416  0.0892 -0.1000
  404loPI    C2 6450   3.226   7.825  10.635 -0.0693 -0.0853 -0.0109
  404loPI    C3 6451   2.936   8.091  10.711  0.0277  0.0536 -0.1216
  404loPI   PO4 6452   2.768   7.572  10.508 -0.1339  0.0375  0.0762
  404loPI   GL1 6453   2.894   7.507  10.025  0.1099  0.0399 -0.0885
  404loPI   GL2 6454   3.177   7.314   9.887 -0.1801 -0.2346 -0.1910
  404loPI   C1A 6455   2.733   7.383   9.626  0.1448  0.2700  0.2368
  404loPI   C2A 6456   2.708   7.498   9.237 -0.1280  0.0681  0.0097
  404loPI   C3A 6457   2.834   7.240   8.848 -0.0843 -0.1658  0.0759
  404loPI   C4A 6458   2.957   7.153   8.401  0.0580 -0.4088  0.1808
  404loPI   C5A 6459   3.003   7.448   8.060 -0.1339  0.2802  0.3000
  404loPI   C6A 6460   2.976   7.568   7.567 -0.0050 -0.0651 -0.2537
  404loPI   C1B 6461   3.208   7.465   9.494  0.1665 -0.3217 -0.2391
  404loPI   C2B 6462   3.237   7.508   9.110  0.0914  0.3476  0.1917
  404loPI   C3B 6463   3.218   7.455   8.664 -0.1819 -0.2436 -0.0586
  404loPI   C4B 6464   3.490   7.425   8.258 -0.0573 -0.2381  0.0479
  405loPI    C1 6465   8.355   5.843  10.310  0.1494 -0.1839 -0.1158
  405loPI    C2 6466   8.610   5.932  10.606 -0.0344  0.2606 -0.0829
  405loPI    C3 6467   8.240   5.806  10.692  0.0117  0.0913 -0.1282
  405loPI   PO4 6468   8.418   5.632  10.137  0.0516 -0.0266 -0.0958
  405loPI   GL1 6469   8.561   5.746   9.771 -0.1132  0.1084  0.2581
  405loPI   GL2 6470   8.497   5.448   9.560  0.1365 -0.0026  0.1688
  405loPI   C1A 6471   8.174   5.856   9.470 -0.1231 -0.0009  0.1897
  405loPI   C2A 6472   7.867   5.988   9.209  0.1287 -0.3703 -0.0305
  405loPI   C3A 6473   7.776   5.994   8.827 -0.2894 -0.3785 -0.1583
  405loPI   C4A 6474   7.872   6.278   8.456  0.0038  0.4623 -0.0981
  405loPI   C5A 6475   8.251   6.414   8.247  0.0751 -0.1562  0.2756
  405loPI   C6A 6476   8.663   6.538   8.374  0.3224  0.2693 -0.2899
  405loPI   C1B 6477   8.860   5.584   9.344  0.0068 -0.0112  0.2847
  405loPI   C2B 6478   8.925   5.679   8.912  0.2085  0.0529  0.1969
  405loPI   C3B 6479   8.969   5.617   8.426  0.2430 -0.1596  0.0421
  405loPI   C4B 6480   8.967   5.506   8.020 -0.4165  0.1851 -0.2657
  406POPI    C1 6481   3.068   9.085  10.501  0.1615  0.0315  0.0491
  406POPI    C2 6482   3.286   8.814  10.699 -0.0792 -0.0462  0.2121
  406POPI    C3 6483   3.329   9.204  10.779  0.3033 -0.0280 -0.0577
  406POPI   PO4 6484   2.973   8.931  10.316 -0.3421  0.1284  0.1127
  406POPI   GL1 6485   3.155   8.705  10.117 -0.0291 -0.3680  0.1113
  406POPI   GL2 6486   3.050   8.530   9.978  0.1777  0.1335  0.4821
  406POPI   C1A 6487   3.224   8.878   9.679 -0.0189 -0.0132  0.0262
  406POPI   D2A 6488   3.431   8.861   9.295 -0.0671  0.1154 -0.1448
  406POPI   C3A 6489   3.611   8.878   8.848 -0.0439  0.1214  0.0962
  406POPI   C4A 6490   3.838   8.735   8.495 -0.0875  0.0254 -0.0010
  406POPI   C1B 6491   3.214   8.299   9.609  0.1447 -0.1381  0.0636
  406POPI   C2B 6492   3.253   8.379   9.189  0.4922  0.0498 -0.1534
  406POPI   C3B 6493   3.328   8.468   8.816  0.0747 -0.0215  0.0263
  406POPI   C4B 6494   3.395   8.564   8.398 -0.0194  0.3811  0.0893
  407POPI    C1 6495  12.289  10.236  10.848  0.0907  0.0916 -0.0294
  407POPI    C2 6496  12.352  10.599  11.003  0.1050  0.0408  0.0853
  407POPI    C3 6497  12.037  10.383  11.122  0.3279 -0.1549  0.3301
  407POPI   PO4 6498  12.261  10.280  10.543  0.0860 -0.1418  0.0191
  407POPI   GL1 6499  12.367  10.416  10.208 -0.0993  0.2782  0.0744
  407POPI   GL2 6500  12.376  10.079  10.074 -0.0330  0.2840 -0.0141
  407POPI   C1A 6501  12.440  10.605   9.750  0.0948 -0.0401 -0.1803
  407POPI   D2A 6502  12.517  10.713   9.369  0.5044  0.1650  0.1077
  407POPI   C3A 6503  12.644  10.574   9.093 -0.0509 -0.2311  0.1262
  407POPI   C4A 6504  12.645  10.772   8.737  0.1374  0.2430  0.0460
  407POPI   C1B 6505  12.178  10.134   9.757  0.2446  0.3187  0.1162
  407POPI   C2B 6506  12.273  10.081   9.451  0.0188 -0.0989 -0.0612
  407POPI   C3B 6507  12.335  10.199   9.085  0.1566  0.0186 -0.2392
  407POPI   C4B 6508  12.383  10.301   8.732  0.0234 -0.1582  0.0195
  408POPI    C1 6509  13.042   6.016  10.614 -0.0429  0.1096 -0.0345
  408POPI    C2 6510  13.203   5.657  10.687 -0.0563  0.0620 -0.2319
  408POPI    C3 6511  12.807   5.708  10.715 -0.0504  0.0721 -0.1639
  408POPI   PO4 6512  13.072   6.217  10.354  0.0928  0.1193  0.2285
  408POPI   GL1 6513  12.810   6.226   9.938 -0.1928  0.2119  0.1876
  408POPI   GL2 6514  12.742   6.319   9.594  0.0630 -0.2109  0.1750
  408POPI   C1A 6515  13.267   6.143   9.708 -0.3924  0.3011 -0.0094
  408POPI   D2A 6516  13.538   6.154   9.471 -0.2488  0.1972  0.1424
  408POPI   C3A 6517  13.489   6.247   9.121  0.0682 -0.1338  0.0906
  408POPI   C4A 6518  13.426   6.389   8.719 -0.1223  0.1127 -0.0771
  408POPI   C1B 6519  12.713   6.391   9.062  0.0637  0.0750  0.0173
  408POPI   C2B 6520  12.578   6.343   8.703 -0.0340  0.4050  0.1827
  408POPI   C3B 6521  12.524   6.391   8.280 -0.1812  0.4171  0.2632
  408POPI   C4B 6522  12.473   6.339   7.841  0.2313 -0.0505 -0.2019
  409POPI    C1 6523   6.475   7.002  10.507 -0.1182  0.0600 -0.1492
  409POPI    C2 6524   6.190   6.852  10.270 -0.0311  0.0736 -0.2636
  409POPI    C3 6525   6.529   6.647  10.331 -0.1049  0.0123 -0.0498
  409POPI   PO4 6526   6.529   7.194  10.390 -0.2441  0.0448  0.1635
  409POPI   GL1 6527   6.706   7.249   9.929  0.2906 -0.0965  0.1785
  409POPI   GL2 6528   6.655   6.929   9.934  0.0305  0.3994  0.0878
  409POPI   C1A 6529   6.634   7.186   9.481  0.0508 -0.2775  0.3149
  409POPI   D2A 6530   6.704   6.978   9.120 -0.1106  0.1905  0.1502
  409POPI   C3A 6531   6.657   7.122   8.772  0.1115  0.1511  0.0166
  409POPI   C4A 6532   6.396   6.931   8.434  0.1132 -0.0363  0.1282
  409POPI   C1B 6533   6.182   7.080   9.621 -0.1179  0.1286  0.0860
  409POPI   C2B 6534   6.178   7.065   9.196 -0.1526 -0.1605  0.0849
  409POPI   C3B 6535   6.076   6.972   8.824  0.0002  0.1641 -0.1779
  409POPI   C4B 6536   5.961   7.083   8.295  0.1060  0.0287  0.2200
  410POPI    C1 6537  14.642  14.527  11.046 -0.1012 -0.0738  0.1615
  410POPI    C2 6538  14.295  14.466  11.236 -0.1761 -0.2036 -0.0141
  410POPI    C3 6539  14.460  14.172  11.020  0.0606 -0.1526  0.0934
  410POPI   PO4 6540  14.684  14.784  10.929 -0.1438  0.2193 -0.1299
  410POPI   GL1 6541  14.960  14.784  10.545 -0.0943  0.0097  0.2052
  410POPI   GL2 6542  15.234  14.638  10.396  0.0920 -0.2295  0.0239
  410POPI   C1A 6543  14.653  14.714  10.124  0.0485  0.1306 -0.1264
  410POPI   D2A 6544  14.731  14.834   9.708 -0.1211  0.0350  0.1233
  410POPI   C3A 6545  14.585  14.634   9.353  0.0177 -0.2953  0.0156
  410POPI   C4A 6546  14.279  14.577   8.934  0.0810  0.0438  0.0932
  410POPI   C1B 6547  15.171  14.596  10.038 -0.0925  0.0352 -0.1827
  410POPI   C2B 6548  15.092  14.494   9.609  0.1508 -0.1142 -0.0116
  410POPI   C3B 6549  15.064  14.321   9.209  0.1205  0.1240 -0.3302
  410POPI   C4B 6550  14.786  14.457   8.891  0.1829  0.1110 -0.0040
  411POPI    C1 6551   5.328   4.189  10.379 -0.1634  0.0531 -0.0896
  411POPI    C2 6552   4.974   4.015  10.446 -0.0125 -0.1474  0.2071
  411POPI    C3 6553   5.279   3.799  10.302  0.0254 -0.0035  0.0691
  411POPI   PO4 6554   5.309   4.427  10.214 -0.0724 -0.0768 -0.3911
  411POPI   GL1 6555   5.531   4.612   9.854 -0.3058  0.1348 -0.0650
  411POPI   GL2 6556   5.252   4.313   9.697  0.0391 -0.2137  0.1152
  411POPI   C1A 6557   5.662   4.747   9.386 -0.1042 -0.5205  0.0265
  411POPI   D2A 6558   5.560   4.757   8.908  0.1804 -0.0212 -0.1350
  411POPI   C3A 6559   5.522   4.716   8.470 -0.0044  0.1511 -0.1006
  411POPI   C4A 6560   5.486   4.491   8.023  0.0013  0.2298 -0.0279
  411POPI   C1B 6561   5.303   4.411   9.241  0.3844 -0.0333 -0.0251
  411POPI   C2B 6562   5.106   4.403   8.809  0.1422  0.1228  0.1472
  411POPI   C3B 6563   5.091   4.210   8.400 -0.0850 -0.2582  0.1820
  411POPI   C4B 6564   5.087   4.180   7.904  0.0794  0.1020 -0.0804
  412POPI    C1 6565   6.599  11.233  10.685 -0.0169  0.1083  0.1670
  412POPI    C2 6566   6.427  11.282  11.043 -0.1319 -0.0607  0.1364
  412POPI    C3 6567   6.681  10.979  10.983  0.0688  0.1048  0.1405
  412POPI   PO4 6568   6.448  11.276  10.497  0.1259 -0.1117  0.0903
  412POPI   GL1 6569   6.578  11.269  10.036 -0.1425 -0.2082 -0.1691
  412POPI   GL2 6570   6.344  11.491   9.989 -0.4581  0.0914  0.2058
  412POPI   C1A 6571   6.814  11.285   9.697  0.0673 -0.1270 -0.0234
  412POPI   D2A 6572   6.833  11.264   9.219 -0.2209  0.0144 -0.0236
  412POPI   C3A 6573   7.181  11.462   9.088 -0.2587  0.3471 -0.2799
  412POPI   C4A 6574   7.545  11.632   8.877 -0.0186 -0.1089 -0.4546
  412POPI   C1B 6575   6.416  11.660   9.520  0.1442 -0.0859  0.3063
  412POPI   C2B 6576   6.438  11.665   9.055  0.1850  0.0107  0.4115
  412POPI   C3B 6577   6.616  11.342   8.757 -0.3084  0.2304 -0.0980
  412POPI   C4B 6578   6.729  11.203   8.431  0.2158 -0.0540  0.3246
  413POPI    C1 6579  15.490  17.444  10.628 -0.1110 -0.0327 -0.0641
  413POPI    C2 6580  15.568  17.147  10.884  0.3030  0.1226 -0.0029
  413POPI    C3 6581  15.191  17.267  10.827  0.1168 -0.4773 -0.1050
  413POPI   PO4 6582  15.717  17.634  10.730 -0.2518  0.2007  0.0933
  413POPI   GL1 6583  15.975  17.663  10.382 -0.0877  0.0075  0.3078
  413POPI   GL2 6584  15.644  17.755  10.280 -0.1708  0.0360 -0.2049
  413POPI   C1A 6585  15.903  17.763   9.893  0.1825 -0.0405 -0.1595
  413POPI   D2A 6586  15.762  17.900   9.442  0.1913 -0.0490 -0.1493
  413POPI   C3A 6587  15.643  18.219   9.115  0.2427 -0.1968  0.2053
  413POPI   C4A 6588  15.590  18.490   8.826 -0.0582  0.1563 -0.5577
  413POPI   C1B 6589  15.635  17.353  10.023  0.0699 -0.0950 -0.2228
  413POPI   C2B 6590  15.487  17.498   9.703 -0.0357 -0.3248  0.4430
  413POPI   C3B 6591  15.279  17.635   9.407  0.1619 -0.0880 -0.1422
  413POPI   C4B 6592  15.068  17.842   9.159  0.0280 -0.0696 -0.2580
  414POPI    C1 6593   5.375   4.766  10.775  0.2177  0.0948 -0.0383
  414POPI    C2 6594   5.351   5.055  11.050  0.3421  0.1092 -0.0420
  414POPI    C3 6595   5.350   4.671  11.162  0.0677  0.1072 -0.0441
  414POPI   PO4 6596   5.289   4.802  10.537 -0.1835 -0.1161 -0.0138
  414POPI   GL1 6597   5.211   4.972  10.018  0.1756 -0.0058 -0.2247
  414POPI   GL2 6598   4.953   4.793   9.772 -0.1578  0.2688  0.3499
  414POPI   C1A 6599   5.501   5.105   9.760 -0.0317 -0.1147  0.2100
  414POPI   D2A 6600   5.670   5.315   9.461  0.0526 -0.2265 -0.0263
  414POPI   C3A 6601   5.516   5.163   9.121  0.0858 -0.0622 -0.2288
  414POPI   C4A 6602   5.587   5.215   8.778  0.1317 -0.1712  0.0058
  414POPI   C1B 6603   5.151   4.869   9.435 -0.0680  0.0125 -0.1226
  414POPI   C2B 6604   5.068   4.944   8.980 -0.3720 -0.0729  0.0876
  414POPI   C3B 6605   5.161   4.971   8.651 -0.2823  0.1289 -0.2302
  414POPI   C4B 6606   5.295   5.175   8.325 -0.2046  0.4587  0.1437
  415POPI    C1 6607   8.757  12.145  10.572  0.0382 -0.1575 -0.0187
  415POPI    C2 6608   8.949  12.256  10.905  0.0664  0.0216 -0.0932
  415POPI    C3 6609   8.639  12.471  10.772 -0.1079 -0.1946 -0.0432
  415POPI   PO4 6610   8.987  12.130  10.385 -0.2195 -0.0313 -0.2261
  415POPI   GL1 6611   9.118  12.269   9.981 -0.0025 -0.3178 -0.0112
  415POPI   GL2 6612   9.200  12.593  10.117  0.0969 -0.2786  0.2322
  415POPI   C1A 6613   9.244  12.250   9.566  0.1135  0.3333 -0.0341
  415POPI   D2A 6614   9.224  12.064   9.231 -0.0419  0.1212  0.3119
  415POPI   C3A 6615   9.477  12.233   8.870  0.0916 -0.0031  0.2151
  415POPI   C4A 6616   9.474  12.122   8.555 -0.4422  0.0106 -0.1029
  415POPI   C1B 6617   9.209  12.758   9.698 -0.0893  0.1014  0.0678
  415POPI   C2B 6618   9.238  12.671   9.271  0.1341 -0.1885  0.0113
  415POPI   C3B 6619   9.310  12.725   8.809  0.0058 -0.1226 -0.2789
  415POPI   C4B 6620   9.453  12.671   8.509 -0.1902 -0.1269  0.0373
  416POPI    C1 6621   8.783   2.582  10.455  0.0580  0.0178  0.1484
  416POPI    C2 6622   8.984   2.882  10.285 -0.0017 -0.0227  0.0054
  416POPI    C3 6623   8.700   2.960  10.556 -0.2254  0.0679 -0.2498
  416POPI   PO4 6624   8.943   2.365  10.362 -0.0246 -0.1409  0.0859
  416POPI   GL1 6625   9.073   2.111   9.988 -0.2134  0.1786  0.3645
  416POPI   GL2 6626   8.804   1.972   9.699 -0.1403 -0.3914  0.0734
  416POPI   C1A 6627   9.362   2.249   9.578  0.2677 -0.0444  0.1197
  416POPI   D2A 6628   9.348   2.652   9.396 -0.1448  0.0522  0.0841
  416POPI   C3A 6629   8.988   2.893   9.215 -0.2841 -0.1267  0.0474
  416POPI   C4A 6630   8.594   2.692   9.072  0.1476  0.0889  0.0082
  416POPI   C1B 6631   8.821   2.395   9.477  0.2467 -0.2076  0.0554
  416POPI   C2B 6632   8.976   2.466   8.975 -0.0494 -0.0704 -0.3700
  416POPI   C3B 6633   8.968   2.695   8.721 -0.0239  0.1115  0.1680
  416POPI   C4B 6634   9.008   2.601   8.341  0.1175 -0.1598 -0.0153
  417POPI    C1 6635   5.692   9.710  10.875  0.3905  0.0713  0.1238
  417POPI    C2 6636   5.818   9.529  11.209 -0.0856 -0.1997  0.1653
  417POPI    C3 6637   5.432   9.623  11.166 -0.0128 -0.0753 -0.2691
  417POPI   PO4 6638   5.877   9.640  10.658  0.1133  0.1615  0.0926
  417POPI   GL1 6639   5.948   9.834  10.198  0.2361  0.1490  0.0971
  417POPI   GL2 6640   5.590   9.669  10.252 -0.2063  0.1044 -0.3491
  417POPI   C1A 6641   6.249   9.970   9.806  0.2726  0.0793 -0.0962
  417POPI   D2A 6642   6.219   9.980   9.428 -0.0228  0.1943 -0.3280
  417POPI   C3A 6643   6.377   9.627   9.196 -0.0215 -0.1462  0.3302
  417POPI   C4A 6644   6.667   9.371   9.197  0.1558  0.0256  0.1859
  417POPI   C1B 6645   5.296   9.667   9.875  0.0625  0.2005 -0.2849
  417POPI   C2B 6646   5.227   9.800   9.486 -0.0629 -0.1586 -0.0603
  417POPI   C3B 6647   5.025  10.054   9.173  0.0483  0.2389 -0.1958
  417POPI   C4B 6648   5.007  10.487   9.035 -0.0113  0.1161  0.1969
  418POPI    C1 6649   5.114  10.914  10.459  0.1269 -0.0992 -0.0259
  418POPI    C2 6650   5.304  10.563  10.483 -0.0038 -0.1538  0.2561
  418POPI    C3 6651   5.064  10.681  10.780 -0.0171  0.1433  0.1311
  418POPI   PO4 6652   4.989  10.921  10.274  0.0055 -0.1354 -0.2919
  418POPI   GL1 6653   4.925  10.682   9.964  0.0943 -0.0471 -0.2911
  418POPI   GL2 6654   5.107  10.521   9.984 -0.2047  0.1204 -0.1773
  418POPI   C1A 6655   4.848  10.594   9.470  0.0315 -0.1145 -0.0384
  418POPI   D2A 6656   4.779  10.908   9.051 -0.3970 -0.0268 -0.0164
  418POPI   C3A 6657   4.495  10.764   8.793 -0.5507  0.1766  0.0554
  418POPI   C4A 6658   4.509  10.633   8.430  0.0850  0.2802 -0.2310
  418POPI   C1B 6659   4.971  10.205   9.765 -0.1586 -0.0094 -0.0565
  418POPI   C2B 6660   4.753   9.732   9.717 -0.1760 -0.0434 -0.2403
  418POPI   C3B 6661   4.592   9.681   9.375 -0.1317 -0.2006 -0.0060
  418POPI   C4B 6662   4.591   9.743   8.897 -0.1970  0.1132  0.1963
  419POPI    C1 6663   7.872  11.960  10.618 -0.1692 -0.0534  0.0177
  419POPI    C2 6664   7.799  11.569  10.660 -0.1295 -0.0755 -0.1119
  419POPI    C3 6665   7.970  11.774  10.958  0.2568 -0.2529 -0.2049
  419POPI   PO4 6666   7.739  12.004  10.391 -0.2702  0.0222  0.0500
  419POPI   GL1 6667   7.840  12.188  10.024 -0.1463 -0.2074  0.1339
  419POPI   GL2 6668   8.039  11.973   9.988 -0.2128 -0.3377 -0.0844
  419POPI   C1A 6669   7.801  12.110   9.535 -0.0173 -0.0393 -0.0484
  419POPI   D2A 6670   7.863  12.065   9.070  0.1128  0.0108  0.1060
  419POPI   C3A 6671   7.684  12.122   8.712 -0.0548 -0.0244  0.2844
  419POPI   C4A 6672   7.631  12.108   8.253 -0.2541  0.0665  0.0482
  419POPI   C1B 6673   8.265  11.852   9.704  0.1343 -0.2158 -0.1454
  419POPI   C2B 6674   8.385  11.751   9.261 -0.2765  0.3480  0.2491
  419POPI   C3B 6675   8.434  11.923   8.911 -0.2973  0.2695  0.1531
  419POPI   C4B 6676   8.549  12.194   8.616 -0.0319 -0.2761  0.1401
  420POPI    C1 6677   3.870  15.982  10.445 -0.1800 -0.0876  0.0237
  420POPI    C2 6678   4.013  16.356  10.457 -0.2174 -0.0741  0.0503
  420POPI    C3 6679   3.945  16.157  10.797  0.0218 -0.1898  0.0328
  420POPI   PO4 6680   4.093  15.827  10.392  0.1310  0.0705  0.3222
  420POPI   GL1 6681   4.201  15.587   9.999  0.0128 -0.0032  0.1864
  420POPI   GL2 6682   4.299  15.274   9.808 -0.3343 -0.0369 -0.0383
  420POPI   C1A 6683   4.217  15.761   9.648  0.1370 -0.2428  0.0738
  420POPI   D2A 6684   4.132  16.207   9.503  0.0106 -0.1223 -0.1383
  420POPI   C3A 6685   4.219  16.297   9.065 -0.4008 -0.2380  0.5967
  420POPI   C4A 6686   4.401  16.381   8.688  0.2196 -0.0520  0.0792
  420POPI   C1B 6687   4.353  15.158   9.322  0.1289  0.2331 -0.1509
  420POPI   C2B 6688   4.409  15.138   8.885 -0.0575 -0.1351  0.0503
  420POPI   C3B 6689   4.471  15.028   8.484 -0.0674 -0.0813  0.0124
  420POPI   C4B 6690   4.518  14.988   8.002  0.4791 -0.2953 -0.4271
  421POPI    C1 6691   6.997  15.530  10.437 -0.0857  0.1471 -0.1185
  421POPI    C2 6692   7.127  15.257  10.699 -0.1589  0.2035 -0.0229
  421POPI    C3 6693   7.273  15.629  10.709 -0.0868  0.1784 -0.1288
  421POPI   PO4 6694   7.001  15.487  10.256 -0.3583 -0.0311 -0.1259
  421POPI   GL1 6695   7.184  15.422   9.923  0.2251 -0.1086 -0.0535
  421POPI   GL2 6696   7.362  15.221   9.706  0.0201 -0.0038 -0.0715
  421POPI   C1A 6697   7.141  15.699   9.473 -0.0799  0.2076 -0.1849
  421POPI   D2A 6698   7.041  15.838   9.092  0.1554 -0.1602 -0.3654
  421POPI   C3A 6699   6.603  15.725   8.908  0.0865 -0.1115 -0.1658
  421POPI   C4A 6700   6.386  15.931   8.693  0.0740 -0.1175  0.0917
  421POPI   C1B 6701   7.426  15.253   9.277 -0.2163 -0.0782 -0.1891
  421POPI   C2B 6702   7.397  15.520   8.876  0.1645  0.4810 -0.3818
  421POPI   C3B 6703   7.173  15.797   8.584 -0.0437 -0.1107 -0.2524
  421POPI   C4B 6704   7.304  15.926   8.238 -0.3372 -0.1834  0.1744
  422POPI    C1 6705   1.609   6.935  10.511  0.2208  0.0432 -0.2271
  422POPI    C2 6706   1.333   7.009  10.791  0.3967  0.1587 -0.0819
  422POPI    C3 6707   1.651   6.783  10.879  0.1693 -0.2795 -0.3516
  422POPI   PO4 6708   1.477   7.025  10.345 -0.2909 -0.3431  0.0521
  422POPI   GL1 6709   1.509   7.349  10.002  0.0911  0.0160 -0.1405
  422POPI   GL2 6710   1.222   7.234   9.926  0.0435 -0.1358  0.0404
  422POPI   C1A 6711   1.437   7.181   9.484  0.0164  0.3368 -0.0162
  422POPI   D2A 6712   1.193   7.237   9.124  0.0198  0.1573  0.4084
  422POPI   C3A 6713   1.290   7.268   8.760 -0.0076  0.0611 -0.1311
  422POPI   C4A 6714   1.587   7.526   8.470  0.0847 -0.0688  0.0161
  422POPI   C1B 6715   0.955   7.380   9.535  0.0701 -0.1598  0.1812
  422POPI   C2B 6716   0.721   7.463   9.229  0.1813 -0.1243 -0.2653
  422POPI   C3B 6717   0.524   7.553   8.875  0.2029  0.0155 -0.0938
  422POPI   C4B 6718   0.423   7.676   8.464 -0.0608 -0.4324  0.1960
  423POPI    C1 6719  14.885   4.828  10.070 -0.0126  0.0261  0.1236
  423POPI    C2 6720  15.016   4.451  10.054  0.3213  0.1431  0.0246
  423POPI    C3 6721  14.789   4.571  10.361  0.0528 -0.1858 -0.0400
  423POPI   PO4 6722  15.131   4.933  10.022  0.0812 -0.0373  0.2687
  423POPI   GL1 6723  15.404   4.993   9.642 -0.2692  0.0689 -0.1057
  423POPI   GL2 6724  15.310   4.678   9.648  0.0340  0.1289  0.0948
  423POPI   C1A 6725  15.697   4.941   9.376  0.0442 -0.3692 -0.2236
  423POPI   D2A 6726  15.728   4.995   8.972  0.0848  0.1360  0.1093
  423POPI   C3A 6727  15.588   4.698   8.620 -0.0013 -0.2292 -0.2049
  423POPI   C4A 6728  15.624   4.607   8.244 -0.1352  0.1295  0.2449
  423POPI   C1B 6729  15.166   4.542   9.324 -0.1349 -0.0134  0.1176
  423POPI   C2B 6730  15.231   4.626   8.994  0.1684  0.4007 -0.0300
  423POPI   C3B 6731  15.046   4.689   8.576  0.1712 -0.1590 -0.2248
  423POPI   C4B 6732  15.172   4.741   8.114  0.0168  0.0897  0.2397
  424POPI    C1 6733  12.195  14.678  11.106  0.0748  0.0444  0.1397
  424POPI    C2 6734  11.856  14.767  10.913  0.2045  0.1950 -0.0226
  424POPI    C3 6735  12.014  15.029  11.171  0.1762  0.1074  0.0843
  424POPI   PO4 6736  12.339  14.462  10.850  0.0579  0.0584  0.3225
  424POPI   GL1 6737  12.227  14.275  10.420 -0.2037 -0.3177  0.2474
  424POPI   GL2 6738  12.530  14.134  10.304  0.2032 -0.0878 -0.1806
  424POPI   C1A 6739  12.178  14.309  10.019  0.1006  0.1159  0.1532
  424POPI   D2A 6740  12.240  14.195   9.610  0.0565 -0.0109  0.0153
  424POPI   C3A 6741  12.272  14.384   9.192 -0.1924 -0.1226  0.1657
  424POPI   C4A 6742  12.408  14.665   8.907 -0.1347  0.3291  0.2550
  424POPI   C1B 6743  12.672  14.143   9.918  0.1710  0.0938 -0.3354
  424POPI   C2B 6744  12.766  14.103   9.522  0.0497  0.0469  0.0683
  424POPI   C3B 6745  12.760  14.385   9.186 -0.0343 -0.2761 -0.1482
  424POPI   C4B 6746  13.160  14.520   9.111  0.0409  0.2043  0.2351
  425POPI    C1 6747   8.798  12.855  10.267  0.0824  0.0601 -0.0291
  425POPI    C2 6748   8.518  13.047  10.056 -0.2023  0.0389  0.3185
  425POPI    C3 6749   8.772  13.254  10.285  0.0221  0.0524  0.0623
  425POPI   PO4 6750   8.642  12.522  10.262  0.0404 -0.1008 -0.3417
  425POPI   GL1 6751   8.377  12.358   9.880  0.2537 -0.1063 -0.0683
  425POPI   GL2 6752   8.716  12.576   9.800 -0.0946 -0.0404 -0.0187
  425POPI   C1A 6753   8.236  12.258   9.456  0.0174  0.0393  0.1379
  425POPI   D2A 6754   8.023  12.459   9.223 -0.1128 -0.1760 -0.1830
  425POPI   C3A 6755   8.170  12.429   8.924  0.1631 -0.0946 -0.1000
  425POPI   C4A 6756   8.027  12.541   8.567 -0.1507 -0.1293 -0.2110
  425POPI   C1B 6757   8.747  12.564   9.450 -0.0918  0.0070 -0.0133
  425POPI   C2B 6758   8.721  12.518   8.948 -0.2601  0.1698 -0.0699
  425POPI   C3B 6759   8.475  12.670   8.528  0.0850  0.2408  0.0057
  425POPI   C4B 6760   8.511  12.459   8.115 -0.2301  0.0684  0.2237
  426POPI    C1 6761  17.263   2.176  10.440  0.0989  0.0647  0.0910
  426POPI    C2 6762  17.541   2.040  10.693  0.2270  0.1096 -0.0242
  426POPI    C3 6763  17.599   2.385  10.499  0.0647  0.1480 -0.0060
  426POPI   PO4 6764  17.168   1.971  10.246  0.0637 -0.0802 -0.1560
  426POPI   GL1 6765  17.309   1.620   9.926 -0.0512 -0.1024 -0.0548
  426POPI   GL2 6766  16.985   1.581   9.957 -0.2007  0.1956 -0.0975
  426POPI   C1A 6767  17.497   1.640   9.435  0.0194 -0.1172  0.0840
  426POPI   D2A 6768  17.585   1.646   9.041  0.1543  0.3111  0.0214
  426POPI   C3A 6769  17.307   1.699   8.680  0.3408 -0.0197  0.1348
  426POPI   C4A 6770  17.332   1.421   8.327  0.1435  0.1572 -0.1715
  426POPI   C1B 6771  16.989   1.677   9.510 -0.0491  0.1834 -0.0855
  426POPI   C2B 6772  17.060   1.597   9.104  0.0326 -0.2021  0.0349
  426POPI   C3B 6773  17.031   1.277   8.786  0.0040 -0.0396  0.0169
  426POPI   C4B 6774  16.948   1.045   8.452  0.0815  0.0078  0.0891
  427POPI    C1 6775  15.678  12.056  10.965 -0.0388 -0.2314 -0.2941
  427POPI    C2 6776  15.771  11.667  10.947 -0.0090 -0.2412  0.0093
  427POPI    C3 6777  16.032  11.928  11.100 -0.2126 -0.1707  0.2422
  427POPI   PO4 6778  15.400  12.084  11.018  0.0191  0.0938 -0.1479
  427POPI   GL1 6779  15.257  12.178  10.619  0.2695 -0.3318 -0.2627
  427POPI   GL2 6780  15.498  12.149  10.412  0.3212  0.0276 -0.1474
  427POPI   C1A 6781  15.122  12.435  10.271 -0.1590 -0.0196 -0.0665
  427POPI   D2A 6782  15.140  12.292   9.818 -0.0250  0.0670 -0.0749
  427POPI   C3A 6783  15.044  11.984   9.472  0.0700 -0.2966  0.2683
  427POPI   C4A 6784  15.026  12.026   9.097  0.0093 -0.1462  0.1637
  427POPI   C1B 6785  15.601  12.091   9.968  0.0257  0.1960 -0.1514
  427POPI   C2B 6786  15.600  12.132   9.466  0.0907 -0.1821  0.2756
  427POPI   C3B 6787  15.531  12.213   9.091 -0.1785  0.0596  0.1441
  427POPI   C4B 6788  15.571  12.388   8.685 -0.2394 -0.0471 -0.4674
  428POPI    C1 6789  15.340  10.305  11.073 -0.1488 -0.2390  0.3358
  428POPI    C2 6790  15.616  10.099  10.870  0.1121  0.2359  0.1923
  428POPI    C3 6791  15.694  10.226  11.241 -0.0492  0.0776  0.2818
  428POPI   PO4 6792  15.169  10.086  11.000 -0.0611 -0.1853  0.1697
  428POPI   GL1 6793  15.213  10.012  10.588  0.0617  0.0188  0.1560
  428POPI   GL2 6794  14.923   9.960  10.488  0.2243  0.0902 -0.2627
  428POPI   C1A 6795  15.292  10.391  10.232 -0.1081  0.0373  0.3367
  428POPI   D2A 6796  15.182  10.703   9.884 -0.0402  0.1244  0.2835
  428POPI   C3A 6797  15.188  10.709   9.458  0.0987  0.3445  0.1007
  428POPI   C4A 6798  15.195  10.615   9.022  0.0210 -0.1581  0.0191
  428POPI   C1B 6799  14.781   9.830  10.093  0.1169 -0.0777  0.3814
  428POPI   C2B 6800  14.736   9.800   9.629  0.1199  0.0925  0.1800
  428POPI   C3B 6801  14.863   9.781   9.234 -0.0340  0.1569 -0.1202
  428POPI   C4B 6802  14.853   9.723   8.787 -0.0731  0.0079  0.5137
  429POPI    C1 6803   9.465  12.218  10.575 -0.1026  0.0130 -0.0368
  429POPI    C2 6804   9.777  11.977  10.641 -0.0451  0.1016  0.0162
  429POPI    C3 6805   9.420  11.889  10.798  0.0486  0.2162  0.3008
  429POPI   PO4 6806   9.458  12.261  10.365  0.2004  0.1353 -0.2880
  429POPI   GL1 6807   9.620  12.163   9.914 -0.1758 -0.0591 -0.1839
  429POPI   GL2 6808   9.600  12.494   9.867  0.2397 -0.0418  0.1659
  429POPI   C1A 6809   9.654  12.063   9.546  0.1234  0.2792  0.4733
  429POPI   D2A 6810   9.949  12.198   9.200 -0.4475 -0.0299  0.0407
  429POPI   C3A 6811  10.018  12.361   8.830 -0.2845 -0.3709 -0.1901
  429POPI   C4A 6812   9.858  12.474   8.474  0.0873  0.2315  0.1029
  429POPI   C1B 6813   9.773  12.550   9.470 -0.0169 -0.0753  0.2330
  429POPI   C2B 6814   9.741  12.747   9.111 -0.2976 -0.0320  0.0928
  429POPI   C3B 6815   9.817  12.989   8.723  0.0256  0.3329  0.3759
  429POPI   C4B 6816  10.068  13.006   8.458 -0.0878  0.0030 -0.0463
  430POPI    C1 6817  13.158  10.675  10.976 -0.0087  0.0924  0.3989
  430POPI    C2 6818  12.820  10.497  11.096 -0.1064  0.1257  0.1773
  430POPI    C3 6819  12.869  10.890  11.150 -0.1827  0.1546  0.0424
  430POPI   PO4 6820  13.139  10.673  10.693 -0.0394 -0.2803  0.2684
  430POPI   GL1 6821  13.077  10.908  10.298  0.1951 -0.1198  0.2923
  430POPI   GL2 6822  12.737  10.742  10.269  0.1355  0.2771  0.0794
  430POPI   C1A 6823  12.818  11.205  10.003  0.0512  0.1872  0.2329
  430POPI   D2A 6824  12.485  11.435   9.782  0.2564 -0.0541  0.3684
  430POPI   C3A 6825  12.443  11.589   9.427 -0.1421  0.0814 -0.1533
  430POPI   C4A 6826  12.592  11.609   9.015  0.1793  0.2104  0.1254
  430POPI   C1B 6827  12.884  10.768   9.772 -0.0502  0.1262  0.1821
  430POPI   C2B 6828  12.806  11.107   9.509 -0.0580 -0.1953  0.0344
  430POPI   C3B 6829  12.806  11.067   9.123 -0.0014 -0.3131 -0.0860
  430POPI   C4B 6830  12.949  11.390   8.714  0.2117 -0.1197  0.4801
  431POPI    C1 6831  12.413  14.957  10.740  0.2960  0.0093  0.0023
  431POPI    C2 6832  12.659  15.253  10.630  0.1476  0.1667  0.0894
  431POPI    C3 6833  12.401  15.309  10.931 -0.0854  0.0479 -0.0856
  431POPI   PO4 6834  12.510  14.803  10.533 -0.0263 -0.0175  0.0959
  431POPI   GL1 6835  12.559  14.686  10.099  0.1998  0.1342  0.1301
  431POPI   GL2 6836  12.917  14.668  10.095 -0.3145  0.1012  0.2635
  431POPI   C1A 6837  12.486  14.581   9.654 -0.0438 -0.0282 -0.0917
  431POPI   D2A 6838  12.123  14.868   9.332 -0.2048 -0.2527 -0.2014
  431POPI   C3A 6839  11.954  14.809   8.883 -0.0090  0.0150 -0.0618
  431POPI   C4A 6840  12.025  14.882   8.478  0.1549  0.1643 -0.3698
  431POPI   C1B 6841  13.009  14.668   9.679  0.2892  0.1371 -0.1024
  431POPI   C2B 6842  13.390  14.669   9.551  0.0854  0.1181  0.0956
  431POPI   C3B 6843  13.643  14.950   9.551  0.2310 -0.0300 -0.1349
  431POPI   C4B 6844  13.836  14.770   9.847  0.3602  0.0667  0.1856
  432POPI    C1 6845   6.064  15.032  10.488 -0.3228  0.1690 -0.3872
  432POPI    C2 6846   6.051  14.744  10.765 -0.0902  0.0100 -0.5374
  432POPI    C3 6847   5.891  15.103  10.841  0.4605  0.1566  0.0226
  432POPI   PO4 6848   5.909  14.930  10.249  0.0246  0.0187  0.1228
  432POPI   GL1 6849   5.878  14.736   9.843  0.1835  0.0521 -0.0468
  432POPI   GL2 6850   6.106  14.949   9.808  0.3227  0.0111  0.0742
  432POPI   C1A 6851   5.769  14.592   9.409  0.2041 -0.2797  0.0600
  432POPI   D2A 6852   5.793  14.400   9.055  0.2085  0.4305 -0.0356
  432POPI   C3A 6853   5.895  14.652   8.665  0.1125 -0.0589 -0.0259
  432POPI   C4A 6854   5.952  14.891   8.257  0.3848  0.1042  0.1753
  432POPI   C1B 6855   6.220  14.762   9.512  0.0846 -0.0784  0.1842
  432POPI   C2B 6856   6.623  14.729   9.366 -0.1999  0.2904 -0.3686
  432POPI   C3B 6857   6.681  14.994   8.974  0.0743  0.0407 -0.0940
  432POPI   C4B 6858   6.396  15.253   8.736  0.0129 -0.3156  0.0841
  433POPI    C1 6859   0.939   1.395  10.570 -0.0714  0.0187  0.0416
  433POPI    C2 6860   1.333   1.370  10.629 -0.0686  0.0570  0.0391
  433POPI    C3 6861   1.117   1.635  10.836 -0.0421  0.2671 -0.1969
  433POPI   PO4 6862   0.972   1.244  10.266  0.1720 -0.0369 -0.4294
  433POPI   GL1 6863   0.918   1.444   9.852 -0.0080  0.0547 -0.2389
  433POPI   GL2 6864   0.656   1.310   9.873  0.0165 -0.2488 -0.0916
  433POPI   C1A 6865   1.001   1.162   9.520  0.2468 -0.2546 -0.1317
  433POPI   D2A 6866   1.038   1.064   9.096  0.0953  0.0236 -0.0083
  433POPI   C3A 6867   0.797   1.200   8.785 -0.0523 -0.0523  0.0784
  433POPI   C4A 6868   0.670   1.139   8.387 -0.1546 -0.0925  0.0900
  433POPI   C1B 6869   0.511   1.218   9.488 -0.0515  0.2250  0.2404
  433POPI   C2B 6870   0.445   0.998   9.038 -0.1602 -0.1009 -0.1305
  433POPI   C3B 6871   0.407   0.795   8.678  0.0352  0.0108 -0.2247
  433POPI   C4B 6872   0.441   0.706   8.307  0.1560  0.0508  0.2285
  434POPI    C1 6873  12.458  15.868  10.463  0.0071  0.0026 -0.1431
  434POPI    C2 6874  12.290  16.136  10.218 -0.3100  0.0060  0.0736
  434POPI    C3 6875  12.299  16.203  10.613  0.0411 -0.0806  0.0832
  434POPI   PO4 6876  12.416  15.667  10.395 -0.2489  0.3856 -0.2019
  434POPI   GL1 6877  12.515  15.445  10.127  0.0666 -0.2572 -0.3060
  434POPI   GL2 6878  12.691  15.227  10.145 -0.0274 -0.0567 -0.1422
  434POPI   C1A 6879  12.447  15.755   9.756  0.3459 -0.0341 -0.0123
  434POPI   D2A 6880  12.697  15.899   9.493 -0.1317 -0.1368 -0.4506
  434POPI   C3A 6881  12.798  15.887   9.111  0.1514  0.1783 -0.2937
  434POPI   C4A 6882  12.555  15.738   8.756 -0.1799 -0.0397  0.2859
  434POPI   C1B 6883  12.671  15.063   9.791  0.1446  0.1971  0.0754
  434POPI   C2B 6884  12.617  14.868   9.298 -0.0653 -0.0991 -0.0763
  434POPI   C3B 6885  12.832  15.057   9.059 -0.0413 -0.0470 -0.0374
  434POPI   C4B 6886  13.001  15.381   8.924  0.2006  0.0427 -0.1390
  435POPI    C1 6887   1.033   8.600  10.756 -0.2051 -0.2966 -0.0395
  435POPI    C2 6888   1.347   8.397  10.897  0.0204  0.0582 -0.0185
  435POPI    C3 6889   0.989   8.354  11.068  0.1527 -0.0090  0.2471
  435POPI   PO4 6890   1.001   8.537  10.505 -0.0111 -0.3917  0.1115
  435POPI   GL1 6891   1.151   8.383  10.108  0.2855 -0.1421  0.3811
  435POPI   GL2 6892   0.821   8.379  10.066  0.2410  0.0289 -0.1211
  435POPI   C1A 6893   1.357   8.704   9.831 -0.1225  0.1428 -0.0104
  435POPI   D2A 6894   1.773   8.591   9.639  0.1039  0.2429  0.2770
  435POPI   C3A 6895   1.899   8.661   9.196 -0.2444  0.0171 -0.0206
  435POPI   C4A 6896   2.004   8.759   8.783 -0.3322 -0.0875  0.1687
  435POPI   C1B 6897   0.968   8.392   9.591 -0.0477 -0.1449  0.1026
  435POPI   C2B 6898   0.952   8.399   9.189 -0.1700 -0.0736 -0.3237
  435POPI   C3B 6899   1.075   8.243   8.785 -0.0641 -0.1246 -0.1500
  435POPI   C4B 6900   1.191   8.371   8.291 -0.0163 -0.1132  0.0702
  436POPI    C1 6901   4.120   7.309  10.532 -0.2914  0.2303  0.0636
  436POPI    C2 6902   4.473   7.395  10.698 -0.0234 -0.1981 -0.2627
  436POPI    C3 6903   4.138   7.430  10.913  0.2237  0.1039  0.0871
  436POPI   PO4 6904   4.117   7.511  10.362 -0.0946  0.0251  0.1869
  436POPI   GL1 6905   3.973   7.686   9.900  0.0482 -0.2181 -0.1350
  436POPI   GL2 6906   4.180   7.832   9.923  0.0638 -0.0382 -0.2230
  436POPI   C1A 6907   3.988   7.856   9.443 -0.2117  0.3447  0.3669
  436POPI   D2A 6908   4.024   7.902   9.013  0.2419 -0.3982 -0.0144
  436POPI   C3A 6909   4.381   7.967   8.720 -0.1600  0.0179 -0.3549
  436POPI   C4A 6910   4.699   8.057   8.448 -0.1812  0.0020  0.2846
  436POPI   C1B 6911   4.423   7.956   9.533  0.0023 -0.0073 -0.2832
  436POPI   C2B 6912   4.487   7.819   9.165 -0.1735 -0.0197 -0.2010
  436POPI   C3B 6913   4.743   7.601   8.796  0.2132  0.0948 -0.2927
  436POPI   C4B 6914   5.062   7.323   8.612  0.1526 -0.5461 -0.0759
  437POPI    C1 6915  12.947  17.132  10.887 -0.0496 -0.1315 -0.1200
  437POPI    C2 6916  13.129  16.825  11.068 -0.0653 -0.0339  0.0643
  437POPI    C3 6917  12.960  17.114  11.287  0.0926  0.1924 -0.1075
  437POPI   PO4 6918  13.142  17.071  10.613  0.0875  0.0164 -0.1240
  437POPI   GL1 6919  13.378  16.977  10.183 -0.3557 -0.0454  0.1369
  437POPI   GL2 6920  13.020  16.955  10.176 -0.0160 -0.1332 -0.0139
  437POPI   C1A 6921  13.196  16.897   9.707  0.0717  0.1116 -0.0719
  437POPI   D2A 6922  13.092  16.701   9.337 -0.1934  0.0106 -0.1184
  437POPI   C3A 6923  12.773  16.449   9.327 -0.0130  0.2208  0.1505
  437POPI   C4A 6924  12.515  16.262   8.984 -0.0915 -0.0229 -0.1029
  437POPI   C1B 6925  12.795  17.227   9.994  0.1331 -0.1014  0.3264
  437POPI   C2B 6926  12.396  17.360   9.712 -0.1633  0.1213  0.2707
  437POPI   C3B 6927  12.108  17.274   9.297  0.0749 -0.0596 -0.2293
  437POPI   C4B 6928  12.087  17.107   8.882 -0.1825 -0.1379  0.3377
  438POPI    C1 6929  15.309  15.431  11.054 -0.1415 -0.1271 -0.1181
  438POPI    C2 6930  15.696  15.338  11.013 -0.1268 -0.0266 -0.2132
  438POPI    C3 6931  15.524  15.327  11.375 -0.0061  0.0418 -0.1534
  438POPI   PO4 6932  15.176  15.668  10.775  0.0444  0.3082 -0.3208
  438POPI   GL1 6933  15.312  15.625  10.445 -0.1522  0.1689  0.1583
  438POPI   GL2 6934  14.928  15.556  10.359 -0.2312  0.0007  0.0079
  438POPI   C1A 6935  15.237  15.561   9.939 -0.3018 -0.1052 -0.2465
  438POPI   D2A 6936  15.195  15.627   9.521 -0.1223  0.1287  0.2239
  438POPI   C3A 6937  14.842  15.741   9.284 -0.2288  0.0753  0.3081
  438POPI   C4A 6938  14.836  15.988   8.937 -0.1290 -0.1547  0.5764
  438POPI   C1B 6939  14.752  15.755   9.936 -0.2434 -0.3828 -0.0270
  438POPI   C2B 6940  14.463  15.920   9.621 -0.1179 -0.0610 -0.0863
  438POPI   C3B 6941  14.345  16.129   9.275 -0.1074  0.2605  0.0051
  438POPI   C4B 6942  14.167  16.036   8.872 -0.0209 -0.3074  0.0308
  439POPI    C1 6943  15.414   5.618  10.331 -0.1304  0.1865  0.3456
  439POPI    C2 6944  15.383   5.224  10.395 -0.0133  0.1273  0.0544
  439POPI    C3 6945  15.702   5.423  10.529  0.1204  0.0471 -0.1408
  439POPI   PO4 6946  15.274   5.627  10.057 -0.0011 -0.0159 -0.0565
  439POPI   GL1 6947  15.142   5.484   9.677 -0.0186  0.2897  0.0192
  439POPI   GL2 6948  15.384   5.488   9.545  0.0509  0.2550 -0.3694
  439POPI   C1A 6949  15.097   5.610   9.155  0.0189  0.1357  0.0343
  439POPI   D2A 6950  15.007   5.698   8.729 -0.2240  0.0600  0.1609
  439POPI   C3A 6951  14.949   6.046   8.492 -0.0162  0.0343  0.0908
  439POPI   C4A 6952  14.940   6.261   8.082  0.1131 -0.0729 -0.0056
  439POPI   C1B 6953  15.544   5.495   9.068 -0.1919 -0.0958  0.4598
  439POPI   C2B 6954  15.537   5.576   8.621 -0.1548 -0.1267  0.0639
  439POPI   C3B 6955  15.247   5.569   8.221 -0.1310  0.1813 -0.2225
  439POPI   C4B 6956  14.943   5.756   8.036  0.4200 -0.2986  0.0629
  440POPI    C1 6957  13.203   5.281  10.312 -0.1100  0.0622 -0.2608
  440POPI    C2 6958  13.225   5.141  10.685  0.0974  0.0837 -0.2637
  440POPI    C3 6959  12.872   5.253  10.534 -0.0195 -0.1207 -0.1473
  440POPI   PO4 6960  13.374   5.391  10.249 -0.2997 -0.0098 -0.1308
  440POPI   GL1 6961  13.657   5.343   9.923 -0.0062  0.1895 -0.4297
  440POPI   GL2 6962  13.671   5.019   9.983  0.2932 -0.3454  0.0912
  440POPI   C1A 6963  13.722   5.273   9.502 -0.0320 -0.1118  0.1359
  440POPI   D2A 6964  13.673   5.300   9.052 -0.1506 -0.2000 -0.0922
  440POPI   C3A 6965  13.555   5.047   8.669  0.2996  0.0353  0.0748
  440POPI   C4A 6966  13.356   5.138   8.230 -0.0234 -0.1681  0.1284
  440POPI   C1B 6967  13.762   4.832   9.671  0.3577  0.3933  0.1000
  440POPI   C2B 6968  13.943   4.909   9.268 -0.3488  0.1450 -0.1185
  440POPI   C3B 6969  14.059   4.904   8.849  0.0293 -0.0350  0.0062
  440POPI   C4B 6970  14.343   4.695   8.478  0.1976  0.0174  0.2297
  441POPI    C1 6971   4.518  16.407  10.598  0.2665  0.3452 -0.1028
  441POPI    C2 6972   4.767  16.104  10.680  0.0779  0.1769 -0.1433
  441POPI    C3 6973   4.619  16.327  10.977 -0.2711 -0.1657 -0.0520
  441POPI   PO4 6974   4.507  16.298  10.275  0.1873 -0.1040 -0.2353
  441POPI   GL1 6975   4.534  16.091   9.911 -0.1736 -0.2425  0.0543
  441POPI   GL2 6976   4.143  16.105   9.994  0.2495 -0.0948 -0.1483
  441POPI   C1A 6977   4.625  16.136   9.418 -0.0137  0.1718 -0.5022
  441POPI   D2A 6978   4.704  16.110   9.096 -0.0965  0.2407  0.2909
  441POPI   C3A 6979   4.873  16.335   8.817 -0.0153  0.1515  0.3184
  441POPI   C4A 6980   5.148  16.447   8.465 -0.1243 -0.0648 -0.3772
  441POPI   C1B 6981   4.244  16.564   9.808  0.1531  0.3454 -0.1074
  441POPI   C2B 6982   4.157  16.698   9.374 -0.0985 -0.0149  0.0571
  441POPI   C3B 6983   4.184  16.796   8.993  0.3124 -0.1925 -0.0313
  441POPI   C4B 6984   4.096  16.982   8.720 -0.0328 -0.1734 -0.1090
  442POPI    C1 6985   2.479   2.212  10.551  0.3164  0.1658 -0.0808
  442POPI    C2 6986   2.715   1.898  10.627 -0.1230 -0.1038  0.2197
  442POPI    C3 6987   2.726   2.219  10.865  0.0122 -0.0714  0.1705
  442POPI   PO4 6988   2.503   2.188  10.234 -0.0577 -0.2051  0.2089
  442POPI   GL1 6989   2.835   2.204   9.961  0.0631 -0.2729  0.0288
  442POPI   GL2 6990   3.066   2.216   9.979  0.0209 -0.2195  0.1019
  442POPI   C1A 6991   2.664   1.944   9.602 -0.3112  0.0396 -0.4064
  442POPI   D2A 6992   2.646   2.040   9.234 -0.1949  0.4046 -0.0797
  442POPI   C3A 6993   2.718   1.624   8.905 -0.0807  0.2454  0.0613
  442POPI   C4A 6994   2.699   1.600   8.485 -0.0118 -0.1165 -0.1850
  442POPI   C1B 6995   3.178   2.055   9.600 -0.2350  0.0578  0.2569
  442POPI   C2B 6996   3.443   2.069   9.319  0.0840 -0.0278  0.1223
  442POPI   C3B 6997   3.886   2.042   8.958 -0.0604 -0.0488  0.2177
  442POPI   C4B 6998   4.130   1.824   8.682  0.3331  0.0133 -0.0814
  443POPI    C1 6999  17.572  14.230  11.281  0.1524 -0.0986  0.0430
  443POPI    C2 7000  17.798  14.378  11.576 -0.2350  0.2111  0.1933
  443POPI    C3 7001  17.621  14.022  11.619  0.0082  0.0871  0.1808
  443POPI   PO4 7002  17.719  14.196  10.981  0.4442 -0.0870 -0.1747
  443POPI   GL1 7003  17.724  14.274  10.558  0.0549 -0.0814 -0.1929
  443POPI   GL2 7004  17.525  14.062  10.537  0.1309  0.1567  0.0043
  443POPI   C1A 7005  17.907  14.498  10.241  0.0377  0.3243  0.1512
  443POPI   D2A 7006  17.935  14.476   9.779  0.0028 -0.1356 -0.0803
  443POPI   C3A 7007  17.692  14.351   9.418 -0.0627 -0.0969  0.0099
  443POPI   C4A 7008  17.628  14.206   9.050 -0.1222 -0.2092  0.0647
  443POPI   C1B 7009  17.552  14.058  10.130  0.0013  0.1719 -0.1405
  443POPI   C2B 7010  17.639  13.939   9.814 -0.0589  0.2243 -0.0858
  443POPI   C3B 7011  17.931  13.859   9.501  0.0003 -0.0366  0.1263
  443POPI   C4B 7012  18.159  13.867   9.046 -0.0028  0.2743 -0.0778
  444POPI    C1 7013   8.049   6.283  10.522 -0.1463  0.0834  0.1532
  444POPI    C2 7014   8.405   6.349  10.352 -0.1165 -0.2488  0.0788
  444POPI    C3 7015   8.368   6.362  10.750 -0.1315  0.2778  0.0667
  444POPI   PO4 7016   7.884   6.089  10.338 -0.3663 -0.1988  0.4219
  444POPI   GL1 7017   7.902   6.146   9.880  0.1091  0.1296 -0.2374
  444POPI   GL2 7018   8.198   6.059   9.913 -0.4205 -0.1866  0.1587
  444POPI   C1A 7019   7.883   6.390   9.566 -0.3145 -0.3526 -0.1197
  444POPI   D2A 7020   8.109   6.446   9.141  0.2450 -0.0007 -0.0324
  444POPI   C3A 7021   7.906   6.586   8.847  0.2037  0.0271 -0.1727
  444POPI   C4A 7022   7.655   6.840   8.831 -0.4204  0.0610 -0.1468
  444POPI   C1B 7023   8.399   6.282   9.646  0.1046 -0.0286 -0.3274
  444POPI   C2B 7024   8.593   6.412   9.243  0.1176 -0.1604  0.0103
  444POPI   C3B 7025   8.774   6.718   8.946  0.4037  0.2782 -0.1160
  444POPI   C4B 7026   8.818   6.986   8.580 -0.0332  0.2012  0.2260
  445POPI    C1 7027  17.954  10.603  10.825 -0.4281  0.0259  0.0133
  445POPI    C2 7028  18.287  10.439  10.977 -0.1530  0.4268 -0.1407
  445POPI    C3 7029  17.976  10.207  10.881  0.1183  0.0326 -0.0907
  445POPI   PO4 7030  18.009  10.764  10.515 -0.0145  0.2666 -0.1587
  445POPI   GL1 7031  18.090  10.863  10.052  0.1151 -0.0018 -0.4590
  445POPI   GL2 7032  18.364  10.583   9.964  0.1591 -0.1848  0.2379
  445POPI   C1A 7033  18.234  11.059   9.677 -0.0692 -0.0357 -0.0886
  445POPI   D2A 7034  18.145  10.937   9.300 -0.1530 -0.0620 -0.0073
  445POPI   C3A 7035  18.241  11.040   8.873  0.0877  0.1264  0.1423
  445POPI   C4A 7036  17.988  11.099   8.497 -0.0915  0.1210 -0.0710
  445POPI   C1B 7037  18.382  10.567   9.522 -0.0003  0.2794 -0.0287
  445POPI   C2B 7038  18.371  10.505   9.104 -0.3293 -0.3523 -0.0065
  445POPI   C3B 7039  18.187  10.564   8.652 -0.1802  0.2633  0.0836
  445POPI   C4B 7040  18.192  10.771   8.178  0.3049  0.1959  0.2782
  446POPI    C1 7041   3.664   5.182  10.326 -0.1927 -0.2771 -0.3014
  446POPI    C2 7042   3.327   5.138  10.537 -0.1413  0.0894 -0.1343
  446POPI    C3 7043   3.682   5.103  10.718 -0.0923  0.0115 -0.2448
  446POPI   PO4 7044   3.551   5.296  10.057  0.0643  0.0840 -0.2883
  446POPI   GL1 7045   3.442   5.104   9.727  0.0647 -0.0838  0.0957
  446POPI   GL2 7046   3.694   5.140   9.579  0.1624 -0.1429  0.0407
  446POPI   C1A 7047   3.293   5.138   9.304  0.0197  0.2716 -0.3719
  446POPI   D2A 7048   3.171   5.025   8.877 -0.0143  0.2743 -0.2845
  446POPI   C3A 7049   3.246   5.358   8.555  0.1350 -0.1738 -0.1959
  446POPI   C4A 7050   3.367   5.776   8.266  0.1963  0.0783 -0.1886
  446POPI   C1B 7051   3.729   4.839   9.338 -0.1092  0.1018  0.1217
  446POPI   C2B 7052   3.665   4.882   8.883 -0.0456  0.1712  0.0664
  446POPI   C3B 7053   3.404   4.842   8.484 -0.0695 -0.4187  0.1904
  446POPI   C4B 7054   3.117   5.033   8.195  0.0682  0.0234 -0.1653
  447POPI    C1 7055   6.394   9.697  10.718  0.0782  0.2957  0.3494
  447POPI    C2 7056   6.605   9.363  10.778 -0.0617  0.1716  0.1624
  447POPI    C3 7057   6.258   9.416  10.969 -0.1675  0.0902 -0.0047
  447POPI   PO4 7058   6.458   9.782  10.477  0.3618 -0.0547  0.2834
  447POPI   GL1 7059   6.375   9.556  10.037 -0.2587 -0.0114 -0.0281
  447POPI   GL2 7060   6.705   9.713   9.905 -0.2872 -0.1312  0.0171
  447POPI   C1A 7061   6.447   9.323   9.625 -0.2238  0.2306  0.2545
  447POPI   D2A 7062   6.408   8.956   9.541  0.1968 -0.3065 -0.1224
  447POPI   C3A 7063   6.465   8.857   9.148  0.2222 -0.3951 -0.0394
  447POPI   C4A 7064   6.239   8.885   8.764 -0.3639 -0.0244 -0.0248
  447POPI   C1B 7065   6.704   9.868   9.498 -0.0246 -0.2842 -0.0212
  447POPI   C2B 7066   6.864   9.836   9.089 -0.2159  0.2838 -0.0224
  447POPI   C3B 7067   6.924   9.953   8.598 -0.2147  0.3506  0.1113
  447POPI   C4B 7068   6.886  10.338   8.325  0.2338  0.2806  0.1310
  448POPI    C1 7069  13.450   4.230  10.498 -0.0631 -0.1193 -0.2365
  448POPI    C2 7070  13.410   4.571  10.703 -0.0384 -0.0421 -0.3592
  448POPI    C3 7071  13.411   4.221  10.896 -0.0135  0.0299 -0.2277
  448POPI   PO4 7072  13.323   4.256  10.148  0.1427 -0.2140  0.0021
  448POPI   GL1 7073  13.149   4.184   9.794 -0.3337 -0.0368 -0.0261
  448POPI   GL2 7074  13.436   4.483   9.686  0.0766 -0.1982 -0.3109
  448POPI   C1A 7075  13.015   3.965   9.385  0.0910 -0.1610 -0.2240
  448POPI   D2A 7076  13.002   3.852   8.954 -0.3071  0.2092 -0.0112
  448POPI   C3A 7077  12.682   3.719   8.772  0.0768 -0.0058 -0.1369
  448POPI   C4A 7078  12.523   3.766   8.430  0.1093 -0.0067 -0.0603
  448POPI   C1B 7079  13.548   4.634   9.284 -0.1111  0.2418  0.2352
  448POPI   C2B 7080  13.550   4.596   8.890  0.3078 -0.1748 -0.1345
  448POPI   C3B 7081  13.822   4.593   8.456  0.1172  0.1336 -0.2380
  448POPI   C4B 7082  13.934   4.974   8.327  0.3441  0.1360 -0.0096
  449POPI    C1 7083   5.057   9.555  10.309  0.0386 -0.2352  0.1859
  449POPI    C2 7084   5.231   9.709  10.635 -0.1413 -0.0899  0.2151
  449POPI    C3 7085   4.834   9.736  10.588 -0.0715  0.3014 -0.2316
  449POPI   PO4 7086   5.197   9.281  10.327  0.4335  0.0003 -0.0719
  449POPI   GL1 7087   5.327   8.890  10.029  0.1233 -0.1773  0.2000
  449POPI   GL2 7088   5.425   9.164   9.901 -0.1356  0.4000  0.0232
  449POPI   C1A 7089   5.468   8.816   9.561 -0.0007  0.2349 -0.0242
  449POPI   D2A 7090   5.507   8.994   9.218  0.1323  0.0780 -0.2670
  449POPI   C3A 7091   5.618   9.407   9.028 -0.1122  0.2569  0.2935
  449POPI   C4A 7092   5.532   9.642   8.617 -0.1139 -0.3626 -0.0192
  449POPI   C1B 7093   5.173   9.329   9.493  0.0361 -0.1005  0.0427
  449POPI   C2B 7094   5.109   9.370   9.115 -0.1133 -0.2820 -0.2682
  449POPI   C3B 7095   5.044   9.690   8.821 -0.3154  0.0191 -0.0257
  449POPI   C4B 7096   5.173  10.059   8.657  0.0147  0.0205  0.5845
  450POPI    C1 7097   3.919  12.350  10.890  0.0780  0.2354  0.2831
  450POPI    C2 7098   3.558  12.262  11.037  0.0037 -0.4085 -0.2356
  450POPI    C3 7099   3.886  12.108  11.206  0.0191 -0.1021  0.0243
  450POPI   PO4 7100   3.862  12.387  10.593 -0.0118  0.0601 -0.2156
  450POPI   GL1 7101   3.869  12.539  10.222 -0.0004 -0.0290 -0.0435
  450POPI   GL2 7102   3.675  12.672  10.001  0.1617  0.1115 -0.2042
  450POPI   C1A 7103   3.904  12.722   9.605  0.0634  0.1713  0.0646
  450POPI   D2A 7104   3.945  12.674   9.180 -0.4052 -0.0877 -0.0160
  450POPI   C3A 7105   4.027  12.673   8.706 -0.2619 -0.1124  0.1241
  450POPI   C4A 7106   4.018  12.744   8.217 -0.1131 -0.1089  0.2858
  450POPI   C1B 7107   3.390  12.588   9.727 -0.0095  0.1308  0.2812
  450POPI   C2B 7108   3.393  12.523   9.406  0.0829  0.2454  0.1837
  450POPI   C3B 7109   3.520  12.471   9.005 -0.0716 -0.1957 -0.1144
  450POPI   C4B 7110   3.379  12.689   8.681  0.2830  0.1148 -0.2417
  451POPI    C1 7111   0.164  14.785  11.024  0.1886 -0.1480 -0.0923
  451POPI    C2 7112   0.393  14.976  11.291  0.0146 -0.0423 -0.0170
  451POPI    C3 7113   0.040  14.825  11.402 -0.0767  0.0358 -0.1957
  451POPI   PO4 7114   0.342  14.636  10.861 -0.2530  0.0422  0.0855
  451POPI   GL1 7115   0.350  14.670  10.567  0.0264 -0.1887 -0.0654
  451POPI   GL2 7116   0.606  14.772  10.348  0.1748 -0.2064 -0.3306
  451POPI   C1A 7117   0.267  14.448  10.197 -0.0184 -0.0202  0.1983
  451POPI   D2A 7118   0.250  14.329   9.759 -0.0094 -0.2545 -0.2606
  451POPI   C3A 7119   0.052  14.298   9.340  0.1611  0.0169 -0.0640
  451POPI   C4A 7120   0.166  14.554   8.945 -0.0529 -0.1084  0.0824
  451POPI   C1B 7121   0.611  14.719   9.920  0.4012 -0.0788 -0.0620
  451POPI   C2B 7122   0.362  14.710   9.461 -0.4760  0.0528  0.2079
  451POPI   C3B 7123   0.291  15.003   9.257 -0.3059 -0.1114 -0.0058
  451POPI   C4B 7124   0.435  15.037   8.808 -0.1395  0.1381  0.1743
  452POPI    C1 7125  10.287  16.395  10.464  0.0941 -0.0705  0.0523
  452POPI    C2 7126  10.535  16.620  10.681 -0.0887 -0.0804  0.2750
  452POPI    C3 7127  10.631  16.241  10.598  0.0069 -0.0605  0.2934
  452POPI   PO4 7128  10.199  16.589  10.241  0.2903  0.1296 -0.1569
  452POPI   GL1 7129  10.224  16.574   9.863 -0.1170  0.0967 -0.4128
  452POPI   GL2 7130   9.920  16.534   9.812 -0.0377 -0.1076 -0.3742
  452POPI   C1A 7131  10.390  16.535   9.479  0.0144  0.2406 -0.0668
  452POPI   D2A 7132  10.309  16.480   9.099 -0.2332 -0.0049 -0.0214
  452POPI   C3A 7133  10.346  16.657   8.685 -0.0560 -0.2297  0.0213
  452POPI   C4A 7134  10.173  16.646   8.310  0.0778 -0.3265  0.0880
  452POPI   C1B 7135   9.911  16.591   9.405 -0.1824  0.1194  0.2055
  452POPI   C2B 7136   9.895  16.679   8.932 -0.1580 -0.1211  0.0570
  452POPI   C3B 7137   9.711  16.586   8.495  0.5387 -0.2063  0.0387
  452POPI   C4B 7138   9.682  16.376   8.064  0.1007  0.0861 -0.0670
  453POPI    C1 7139  13.835  14.247  11.224  0.0775  0.3129 -0.2300
  453POPI    C2 7140  13.663  14.608  11.235  0.1250  0.3336 -0.1594
  453POPI    C3 7141  13.873  14.477  11.549  0.0648  0.2230 -0.1645
  453POPI   PO4 7142  13.925  14.143  10.946  0.1721 -0.0387 -0.0166
  453POPI   GL1 7143  13.794  14.063  10.504 -0.0822 -0.0152  0.1061
  453POPI   GL2 7144  13.522  13.933  10.461  0.0182 -0.2338 -0.1347
  453POPI   C1A 7145  13.992  14.006  10.111 -0.1762  0.3705 -0.0670
  453POPI   D2A 7146  14.106  13.937   9.617  0.0541  0.0531  0.0442
  453POPI   C3A 7147  13.969  13.660   9.375 -0.1479  0.0175  0.2038
  453POPI   C4A 7148  13.969  13.635   8.972 -0.0392 -0.0849  0.0403
  453POPI   C1B 7149  13.462  13.882  10.048 -0.2011 -0.0999  0.3395
  453POPI   C2B 7150  13.534  13.775   9.618  0.1245  0.1399  0.1722
  453POPI   C3B 7151  13.496  13.605   9.135  0.2542 -0.0478  0.0760
  453POPI   C4B 7152  13.559  13.584   8.728 -0.0489 -0.1618  0.0629
  454POPI    C1 7153   3.191  12.647  10.852  0.0504 -0.2290  0.0173
  454POPI    C2 7154   3.012  12.582  11.203 -0.0867 -0.1146 -0.0303
  454POPI    C3 7155   3.211  12.923  11.140  0.1034 -0.2175  0.0028
  454POPI   PO4 7156   3.041  12.500  10.634 -0.0921  0.2880  0.1921
  454POPI   GL1 7157   2.681  12.388  10.492 -0.2446 -0.2075 -0.1456
  454POPI   GL2 7158   2.527  12.211  10.285  0.4041 -0.1468  0.3261
  454POPI   C1A 7159   2.457  12.670  10.047 -0.2660 -0.0265 -0.3255
  454POPI   D2A 7160   2.587  12.885   9.621 -0.0580 -0.2348 -0.2668
  454POPI   C3A 7161   2.251  13.067   9.491 -0.5787 -0.1624 -0.0428
  454POPI   C4A 7162   1.849  13.167   9.475  0.0419 -0.3957  0.0175
  454POPI   C1B 7163   2.758  12.305  10.006 -0.2134  0.0231 -0.2364
  454POPI   C2B 7164   2.779  12.396   9.592  0.0441  0.0124  0.0938
  454POPI   C3B 7165   2.928  12.383   9.159  0.3602  0.0749  0.0618
  454POPI   C4B 7166   2.929  12.414   8.649  0.3395 -0.1350 -0.0030
  455POPI    C1 7167  12.156   4.265  10.331 -0.0542 -0.1835  0.2287
  455POPI    C2 7168  12.475   4.377  10.544  0.2315 -0.0611 -0.2494
  455POPI    C3 7169  12.218   4.653  10.410 -0.0376 -0.1524  0.0660
  455POPI   PO4 7170  12.293   4.044  10.207  0.0707  0.0605  0.0760
  455POPI   GL1 7171  12.240   3.788   9.846 -0.2400  0.0156  0.1315
  455POPI   GL2 7172  12.194   4.111   9.724 -0.1529 -0.0236 -0.0093
  455POPI   C1A 7173  11.955   3.719   9.514  0.1997 -0.2591 -0.0151
  455POPI   D2A 7174  12.039   3.598   9.174  0.2476 -0.1879  0.0626
  455POPI   C3A 7175  12.166   3.854   8.912 -0.2627  0.2259 -0.0454
  455POPI   C4A 7176  12.043   3.926   8.534 -0.0487  0.0354  0.4974
  455POPI   C1B 7177  12.100   4.209   9.230  0.0357  0.4518  0.1597
  455POPI   C2B 7178  12.084   4.378   8.757 -0.0226 -0.0874  0.3306
  455POPI   C3B 7179  12.065   4.539   8.303 -0.3131  0.0696 -0.1234
  455POPI   C4B 7180  12.263   4.633   7.903 -0.0009 -0.0392 -0.0385
  456POPI    C1 7181   9.322   5.197  10.400  0.0181  0.0798 -0.0015
  456POPI    C2 7182   9.596   4.910  10.349 -0.0130 -0.0245  0.3805
  456POPI    C3 7183   9.208   4.814  10.370 -0.0726  0.1080 -0.0214
  456POPI   PO4 7184   9.301   5.321  10.176  0.1907  0.3295  0.1299
  456POPI   GL1 7185   9.524   5.122   9.900  0.0765 -0.0894 -0.3806
  456POPI   GL2 7186   9.186   4.912   9.867  0.0493  0.0038 -0.3720
  456POPI   C1A 7187   9.758   5.027   9.617  0.1510  0.2279  0.2498
  456POPI   D2A 7188   9.839   4.945   9.194 -0.0096 -0.0456  0.1391
  456POPI   C3A 7189   9.895   4.499   9.160  0.0571 -0.4223  0.3027
  456POPI   C4A 7190   9.879   3.982   9.267 -0.1817  0.2483  0.1364
  456POPI   C1B 7191   8.905   5.017   9.469 -0.1276  0.3200  0.1149
  456POPI   C2B 7192   8.666   5.139   9.131 -0.1281  0.2550 -0.2281
  456POPI   C3B 7193   8.443   5.441   9.052  0.0423 -0.2272  0.0657
  456POPI   C4B 7194   8.457   5.925   9.032 -0.3786 -0.1471 -0.2358
  457POPI    C1 7195  16.325   3.470  10.647  0.1998  0.1396 -0.0143
  457POPI    C2 7196  16.575   3.313  10.917  0.0475  0.1138  0.1134
  457POPI    C3 7197  16.291   3.570  11.033 -0.0840  0.0242 -0.0073
  457POPI   PO4 7198  16.282   3.296  10.476  0.1142 -0.0096  0.0942
  457POPI   GL1 7199  16.347   3.132   9.977 -0.0376 -0.2567  0.1244
  457POPI   GL2 7200  16.172   3.358   9.917 -0.2259 -0.2905  0.1499
  457POPI   C1A 7201  16.450   3.292   9.550 -0.3623  0.0979 -0.0998
  457POPI   D2A 7202  16.338   3.235   9.167  0.0693 -0.1091 -0.2236
  457POPI   C3A 7203  16.531   2.894   8.951 -0.0380  0.0312 -0.2296
  457POPI   C4A 7204  16.657   2.837   8.557 -0.0435  0.2202 -0.0463
  457POPI   C1B 7205  16.046   3.065   9.563  0.1494 -0.1787 -0.0199
  457POPI   C2B 7206  16.026   2.827   9.208 -0.2479 -0.0841  0.0174
  457POPI   C3B 7207  16.047   2.928   8.806 -0.1116 -0.2317 -0.1652
  457POPI   C4B 7208  16.167   2.871   8.417  0.0036 -0.2686 -0.1492
  458POPI    C1 7209  11.789  12.231  10.895 -0.0952  0.0126 -0.0608
  458POPI    C2 7210  11.408  12.306  10.799 -0.0668  0.3492  0.0743
  458POPI    C3 7211  11.501  11.975  11.005 -0.2572  0.1603 -0.1374
  458POPI   PO4 7212  11.954  12.390  10.620  0.3104  0.0812 -0.0076
  458POPI   GL1 7213  11.925  12.200  10.313  0.2009 -0.0665  0.0377
  458POPI   GL2 7214  11.594  12.166  10.303  0.3134 -0.2597 -0.1114
  458POPI   C1A 7215  12.097  12.385   9.926 -0.1330 -0.1192 -0.1319
  458POPI   D2A 7216  12.279  12.561   9.554 -0.1286  0.0692 -0.0144
  458POPI   C3A 7217  12.254  12.401   9.196 -0.3121 -0.3129 -0.1346
  458POPI   C4A 7218  12.396  12.285   8.667 -0.1107  0.2254 -0.0572
  458POPI   C1B 7219  11.534  12.549  10.034  0.0484 -0.1072  0.0993
  458POPI   C2B 7220  11.484  12.494   9.712  0.1474 -0.0313 -0.0920
  458POPI   C3B 7221  11.177  12.395   9.457 -0.1561 -0.1610  0.0055
  458POPI   C4B 7222  10.977  12.667   9.253  0.0415  0.1305  0.0774
  459POPI    C1 7223  11.283   7.274  10.996 -0.0535 -0.1706  0.2453
  459POPI    C2 7224  10.945   7.311  11.207 -0.1360  0.0495  0.0792
  459POPI    C3 7225  11.246   7.568  11.265 -0.1753  0.1371 -0.0981
  459POPI   PO4 7226  11.225   7.282  10.765 -0.1334  0.1323 -0.0608
  459POPI   GL1 7227  11.017   7.459  10.427  0.0691 -0.0014 -0.1508
  459POPI   GL2 7228  11.364   7.571  10.410  0.0907  0.0693 -0.2035
  459POPI   C1A 7229  11.104   7.442   9.986 -0.1842 -0.1688  0.1576
  459POPI   D2A 7230  11.114   7.527   9.478 -0.0360  0.0624 -0.0147
  459POPI   C3A 7231  10.987   7.466   8.999 -0.1229  0.2928 -0.1472
  459POPI   C4A 7232  11.138   7.495   8.550 -0.0279  0.0462  0.3874
  459POPI   C1B 7233  11.538   7.722  10.142  0.1425 -0.4490 -0.0935
  459POPI   C2B 7234  11.500   7.824   9.736 -0.1782  0.0204 -0.1524
  459POPI   C3B 7235  11.500   7.801   9.265 -0.1541 -0.2269 -0.0564
  459POPI   C4B 7236  11.474   7.643   8.874 -0.1272 -0.0926 -0.1102
  460POPI    C1 7237  11.076   9.247  11.174  0.2222  0.0070  0.0711
  460POPI    C2 7238  10.958   9.629  11.191  0.0868 -0.0206 -0.2015
  460POPI    C3 7239  11.028   9.426  11.529 -0.1780  0.1412 -0.0465
  460POPI   PO4 7240  11.153   9.288  10.839 -0.1489 -0.0371 -0.2291
  460POPI   GL1 7241  10.874   9.244  10.404 -0.1847 -0.3174  0.1718
  460POPI   GL2 7242  11.242   9.171  10.295  0.1136  0.3015  0.0525
  460POPI   C1A 7243  10.735   9.071  10.058 -0.0175  0.1871 -0.0588
  460POPI   D2A 7244  10.483   8.858   9.698  0.2757  0.0269 -0.1541
  460POPI   C3A 7245  10.579   8.857   9.264  0.2708  0.1353 -0.1882
  460POPI   C4A 7246  10.694   8.698   8.903 -0.2024  0.1644 -0.1495
  460POPI   C1B 7247  11.219   9.232   9.840 -0.0901  0.0828  0.1162
  460POPI   C2B 7248  11.170   9.134   9.370  0.1411 -0.0764 -0.2359
  460POPI   C3B 7249  10.998   9.116   8.948  0.1654  0.1273  0.0960
  460POPI   C4B 7250  11.183   8.794   8.664  0.2283  0.1526  0.0474
  461POPI    C1 7251  17.880  13.720  10.939  0.0180 -0.1804  0.2764
  461POPI    C2 7252  17.546  13.509  10.876 -0.0261 -0.0639  0.1131
  461POPI    C3 7253  17.616  13.671  11.235 -0.1973  0.0006  0.1181
  461POPI   PO4 7254  17.946  13.815  10.619  0.0369 -0.0761  0.1823
  461POPI   GL1 7255  17.760  13.563  10.266  0.1799  0.0025 -0.1052
  461POPI   GL2 7256  17.770  13.195  10.238  0.3215 -0.2064  0.0710
  461POPI   C1A 7257  17.998  13.506   9.919  0.0357 -0.1982  0.0137
  461POPI   D2A 7258  18.178  13.480   9.576  0.1272  0.1016 -0.2247
  461POPI   C3A 7259  17.994  13.388   9.118 -0.2390  0.2338 -0.2109
  461POPI   C4A 7260  18.201  13.240   8.691  0.1201  0.1176  0.1321
  461POPI   C1B 7261  17.626  13.252   9.754  0.0569 -0.0470 -0.1698
  461POPI   C2B 7262  17.442  13.108   9.339  0.2618  0.1347 -0.2686
  461POPI   C3B 7263  17.504  13.246   8.933  0.1141 -0.1810 -0.0013
  461POPI   C4B 7264  17.755  13.363   8.576 -0.0199  0.1674  0.2308
  462POPI    C1 7265   6.028  17.477  10.444 -0.0670  0.1303 -0.0786
  462POPI    C2 7266   5.966  17.729  10.748  0.1764 -0.0433  0.1194
  462POPI    C3 7267   6.338  17.651  10.626  0.0795  0.0602 -0.2581
  462POPI   PO4 7268   5.963  17.374  10.233  0.1496  0.2933 -0.0947
  462POPI   GL1 7269   5.848  17.530   9.769 -0.1019 -0.1440 -0.2688
  462POPI   GL2 7270   6.093  17.325   9.720  0.2598  0.1698  0.1802
  462POPI   C1A 7271   5.783  17.814   9.352  0.0369 -0.0858 -0.1918
  462POPI   D2A 7272   5.611  17.980   8.992  0.1595 -0.2349 -0.2152
  462POPI   C3A 7273   5.777  18.006   8.632  0.0640 -0.1122  0.2224
  462POPI   C4A 7274   5.706  17.931   8.159 -0.1981 -0.1942 -0.0192
  462POPI   C1B 7275   6.169  17.356   9.289 -0.3254  0.0925  0.0066
  462POPI   C2B 7276   6.529  17.394   8.957  0.3619 -0.0669 -0.0648
  462POPI   C3B 7277   6.633  17.350   8.491  0.1834  0.1289  0.0288
  462POPI   C4B 7278   6.620  17.168   8.073  0.0215 -0.1653  0.0057
  463POPI    C1 7279   9.395   9.392  10.865 -0.1340 -0.0742  0.0110
  463POPI    C2 7280   9.257   9.739  10.721 -0.1345 -0.0586  0.0489
  463POPI    C3 7281   9.588   9.733  10.945 -0.1008 -0.0901 -0.0015
  463POPI   PO4 7282   9.352   9.240  10.610  0.1286 -0.0744 -0.0641
  463POPI   GL1 7283   9.251   9.346  10.247 -0.0198  0.4320 -0.0815
  463POPI   GL2 7284   9.448   9.091  10.031 -0.0733 -0.1280 -0.2242
  463POPI   C1A 7285   9.170   9.469   9.851  0.0073 -0.0179  0.0063
  463POPI   D2A 7286   9.349   9.476   9.390  0.2260  0.1517 -0.2150
  463POPI   C3A 7287   9.193   9.516   8.971 -0.1321  0.1738 -0.0310
  463POPI   C4A 7288   9.150   9.661   8.541  0.0380 -0.1841  0.1337
  463POPI   C1B 7289   9.367   8.950   9.612  0.0450  0.0557  0.1855
  463POPI   C2B 7290   9.487   9.045   9.101 -0.0378 -0.0187  0.0152
  463POPI   C3B 7291   9.685   8.892   8.708  0.0170 -0.1181 -0.1396
  463POPI   C4B 7292   9.940   9.035   8.428 -0.2463 -0.0081  0.0086
  464POPI    C1 7293  10.371   1.545  10.682 -0.1002  0.2408 -0.1122
  464POPI    C2 7294  10.487   1.739  11.012  0.0348  0.0609 -0.0525
  464POPI    C3 7295  10.520   1.341  10.992 -0.2755  0.0378 -0.1596
  464POPI   PO4 7296  10.193   1.617  10.569  0.0259 -0.0695 -0.3819
  464POPI   GL1 7297  10.235   1.707  10.206  0.1660  0.0390 -0.2152
  464POPI   GL2 7298  10.605   1.779  10.186  0.1159  0.2882 -0.0295
  464POPI   C1A 7299  10.257   1.423   9.869 -0.1920 -0.0148  0.0237
  464POPI   D2A 7300  10.395   1.266   9.513 -0.1336 -0.2134 -0.2176
  464POPI   C3A 7301  10.437   1.370   9.078  0.2475 -0.1452 -0.1945
  464POPI   C4A 7302  10.319   1.636   8.799  0.5724  0.2238  0.3615
  464POPI   C1B 7303  10.611   1.697   9.737  0.1903 -0.0971 -0.1679
  464POPI   C2B 7304  10.606   1.822   9.277  0.2492  0.0828  0.0315
  464POPI   C3B 7305  10.809   1.841   8.869 -0.0960  0.0030  0.1109
  464POPI   C4B 7306  10.976   1.817   8.388  0.0106 -0.0654  0.2623
  465POPI    C1 7307  16.276  10.257  11.011 -0.1751  0.0169  0.1570
  465POPI    C2 7308  16.412  10.603  11.160  0.0582  0.0166 -0.0484
  465POPI    C3 7309  16.600  10.261  11.245 -0.1435 -0.0560  0.1147
  465POPI   PO4 7310  16.010  10.432  10.898 -0.1683 -0.0809 -0.0592
  465POPI   GL1 7311  15.924  10.576  10.491 -0.1969  0.2124 -0.3416
  465POPI   GL2 7312  15.755  10.445  10.446  0.1014 -0.0590 -0.0852
  465POPI   C1A 7313  16.210  10.493  10.172 -0.2043  0.2307  0.0040
  465POPI   D2A 7314  16.529  10.380   9.912 -0.0519 -0.1378 -0.1675
  465POPI   C3A 7315  16.810  10.212   9.596  0.4309  0.0475 -0.2533
  465POPI   C4A 7316  16.804  10.419   9.197 -0.2237  0.0656 -0.0771
  465POPI   C1B 7317  15.781  10.318  10.014  0.1027  0.1235 -0.1292
  465POPI   C2B 7318  15.494  10.314   9.718 -0.0332 -0.0448  0.0197
  465POPI   C3B 7319  15.478  10.265   9.273  0.0756  0.0444 -0.0671
  465POPI   C4B 7320  15.478  10.249   8.885  0.1076  0.0392  0.1298
  466POPI    C1 7321   8.970   4.284  10.590 -0.0100 -0.1110  0.1727
  466POPI    C2 7322   8.787   4.640  10.576 -0.0677 -0.1444  0.0660
  466POPI    C3 7323   9.058   4.566  10.861 -0.1598 -0.0658  0.1756
  466POPI   PO4 7324   8.991   4.234  10.257 -0.2537 -0.2353 -0.3660
  466POPI   GL1 7325   9.163   4.119   9.796 -0.1998  0.0448  0.0631
  466POPI   GL2 7326   9.005   4.399   9.709  0.0001  0.0140  0.1725
  466POPI   C1A 7327   9.124   3.920   9.480 -0.1016  0.2176  0.1284
  466POPI   D2A 7328   9.344   3.983   9.078 -0.0987  0.2984  0.0091
  466POPI   C3A 7329   9.102   4.134   8.788  0.1453 -0.0912  0.0350
  466POPI   C4A 7330   9.022   4.539   8.479 -0.2018  0.0862  0.3740
  466POPI   C1B 7331   9.065   4.383   9.286  0.1631 -0.3826 -0.1760
  466POPI   C2B 7332   9.386   4.551   8.979  0.0460  0.0125 -0.2060
  466POPI   C3B 7333   9.612   4.776   8.682 -0.0339  0.1685 -0.0647
  466POPI   C4B 7334   9.423   4.788   8.281  0.1872 -0.2169  0.2125
  467POPI    C1 7335   9.448  17.242  10.563 -0.0433 -0.1417 -0.0306
  467POPI    C2 7336   9.488  17.555  10.318 -0.0181 -0.0475  0.0928
  467POPI    C3 7337   9.124  17.436  10.432 -0.0241 -0.0100  0.1134
  467POPI   PO4 7338   9.783  17.170  10.509  0.2737 -0.2816  0.0360
  467POPI   GL1 7339  10.082  17.059  10.193  0.2039 -0.2468 -0.0886
  467POPI   GL2 7340   9.994  17.362  10.107  0.5391 -0.2167 -0.3234
  467POPI   C1A 7341   9.942  16.989   9.721 -0.0882  0.5859  0.0830
  467POPI   D2A 7342   9.928  17.202   9.350  0.0862 -0.2332 -0.0738
  467POPI   C3A 7343   9.882  17.170   8.964 -0.0903  0.0209  0.3187
  467POPI   C4A 7344  10.032  17.076   8.561  0.2112  0.0714 -0.1781
  467POPI   C1B 7345  10.213  17.474   9.738 -0.3208 -0.2338  0.1192
  467POPI   C2B 7346  10.401  17.574   9.315 -0.2155 -0.2209  0.1322
  467POPI   C3B 7347  10.323  17.517   8.899  0.2113  0.0334 -0.2809
  467POPI   C4B 7348  10.181  17.637   8.523 -0.0568 -0.2840  0.2405
  468POPI    C1 7349   7.984  16.133  10.342  0.1374  0.1494  0.1126
  468POPI    C2 7350   8.312  15.926  10.246  0.0234  0.0551 -0.0786
  468POPI    C3 7351   8.205  15.963  10.629  0.0068 -0.3015 -0.0456
  468POPI   PO4 7352   7.792  16.021  10.108  0.0624  0.0986 -0.0506
  468POPI   GL1 7353   8.089  15.935   9.794  0.0642  0.1234 -0.0972
  468POPI   GL2 7354   7.942  16.208   9.649  0.1535 -0.0513 -0.0387
  468POPI   C1A 7355   8.135  15.844   9.405  0.0305  0.0869  0.0412
  468POPI   D2A 7356   8.273  15.641   9.110 -0.0431  0.0284 -0.0197
  468POPI   C3A 7357   8.260  15.989   8.835  0.4574  0.3238  0.0179
  468POPI   C4A 7358   8.358  15.933   8.405 -0.0674 -0.0697 -0.0768
  468POPI   C1B 7359   8.121  16.277   9.209 -0.0257 -0.1894 -0.2861
  468POPI   C2B 7360   8.154  16.474   8.873  0.4210  0.1072 -0.1466
  468POPI   C3B 7361   7.993  16.415   8.498  0.0167  0.2739 -0.0629
  468POPI   C4B 7362   8.053  16.511   8.102 -0.1859  0.0311  0.0849
  469POPI    C1 7363  13.748   9.296  11.055  0.0195  0.1198  0.1694
  469POPI    C2 7364  13.654   9.113  11.398  0.0555  0.2187  0.2325
  469POPI    C3 7365  13.807   9.482  11.404  0.1207  0.1942  0.1129
  469POPI   PO4 7366  13.946   9.115  10.928  0.0281  0.0889 -0.0033
  469POPI   GL1 7367  14.226   9.036  10.592  0.0678  0.1767  0.0475
  469POPI   GL2 7368  14.497   8.931  10.531 -0.1526  0.1766  0.2241
  469POPI   C1A 7369  14.093   9.128  10.147  0.0173 -0.0060 -0.5748
  469POPI   D2A 7370  13.854   9.256   9.895 -0.1128  0.0009  0.0492
  469POPI   C3A 7371  13.953   9.261   9.496  0.2359  0.2910  0.0820
  469POPI   C4A 7372  14.113   9.299   9.075 -0.0076  0.1272 -0.0926
  469POPI   C1B 7373  14.626   8.968  10.124  0.2976 -0.0924 -0.1493
  469POPI   C2B 7374  14.727   8.995   9.688  0.0107 -0.0083 -0.1105
  469POPI   C3B 7375  14.826   8.854   9.316 -0.0908 -0.1070 -0.0842
  469POPI   C4B 7376  14.854   8.904   8.814  0.0035 -0.0216  0.0871
  470POPI    C1 7377   9.793   5.522  10.466  0.3014  0.0822  0.0751
  470POPI    C2 7378   9.758   5.189  10.684  0.2839 -0.0075 -0.0630
  470POPI    C3 7379   9.530   5.507  10.767  0.1831 -0.0866 -0.0348
  470POPI   PO4 7380   9.832   5.411  10.224 -0.1989 -0.0666 -0.0786
  470POPI   GL1 7381   9.791   5.573   9.927  0.0140  0.0834  0.0814
  470POPI   GL2 7382   9.893   5.908  10.072  0.2280  0.0263  0.2614
  470POPI   C1A 7383   9.848   5.519   9.423 -0.0263 -0.0867  0.2511
  470POPI   D2A 7384   9.768   5.391   8.992  0.0738  0.1021  0.0643
  470POPI   C3A 7385   9.963   5.338   8.614 -0.0142 -0.0842  0.2019
  470POPI   C4A 7386   9.870   5.074   8.271  0.2031 -0.0261 -0.1446
  470POPI   C1B 7387   9.891   6.080   9.652 -0.3506 -0.1554  0.2404
  470POPI   C2B 7388   9.943   6.074   9.178 -0.0218 -0.1998  0.0094
  470POPI   C3B 7389   9.841   5.868   8.852  0.1053  0.1561  0.1249
  470POPI   C4B 7390   9.991   5.804   8.525 -0.1053 -0.1255  0.0563
  471POPI    C1 7391  12.395   5.731  10.392  0.0205 -0.0842 -0.1181
  471POPI    C2 7392  12.514   6.095  10.275  0.0524 -0.1197 -0.1963
  471POPI    C3 7393  12.293   6.054  10.605 -0.2710  0.0095 -0.3928
  471POPI   PO4 7394  12.588   5.576  10.237  0.4224  0.0554 -0.1698
  471POPI   GL1 7395  12.539   5.744   9.805  0.2705  0.1963 -0.1520
  471POPI   GL2 7396  12.325   6.068   9.814 -0.3378 -0.1671  0.0686
  471POPI   C1A 7397  12.803   5.814   9.549 -0.2555  0.1641  0.3165
  471POPI   D2A 7398  13.059   5.990   9.286  0.0965 -0.0078  0.0279
  471POPI   C3A 7399  13.020   6.045   8.819 -0.0135 -0.1076  0.1293
  471POPI   C4A 7400  13.030   6.006   8.470 -0.1162 -0.2646  0.0083
  471POPI   C1B 7401  12.348   5.975   9.345 -0.1214  0.0174  0.3587
  471POPI   C2B 7402  12.292   5.989   8.957  0.0331 -0.0628 -0.0141
  471POPI   C3B 7403  12.248   5.958   8.498  0.2841 -0.1108 -0.0085
  471POPI   C4B 7404  12.109   6.077   8.061  0.0852 -0.2870 -0.2817
  472POPI    C1 7405   3.185  17.424  10.834  0.1164  0.0796  0.1752
  472POPI    C2 7406   3.322  17.056  10.760 -0.0683  0.0124  0.1610
  472POPI    C3 7407   3.047  17.113  11.045  0.0116  0.1501  0.2118
  472POPI   PO4 7408   3.394  17.595  10.554  0.0513  0.1399  0.0335
  472POPI   GL1 7409   3.428  17.727  10.154 -0.2767 -0.1448  0.0114
  472POPI   GL2 7410   3.484  17.861   9.923  0.1110  0.0096  0.0636
  472POPI   C1A 7411   3.483  17.364   9.930  0.0272 -0.3140 -0.1068
  472POPI   D2A 7412   3.847  17.179   9.575  0.1237 -0.1511  0.1175
  472POPI   C3A 7413   3.840  17.108   9.168 -0.1724 -0.0491  0.1457
  472POPI   C4A 7414   3.468  16.928   8.831 -0.0589  0.0909  0.1485
  472POPI   C1B 7415   3.334  17.751   9.604 -0.1459 -0.1864  0.0650
  472POPI   C2B 7416   3.425  17.600   9.143 -0.1743  0.2293  0.2259
  472POPI   C3B 7417   3.486  17.407   8.794  0.2159  0.0798  0.3604
  472POPI   C4B 7418   3.433  17.470   8.386 -0.1612  0.3225 -0.1987
  473DPPI    C1 7419   3.759   6.092  10.681 -0.1671  0.1195  0.1837
  473DPPI    C2 7420   3.413   6.209  10.844 -0.0633  0.0569  0.4538
  473DPPI    C3 7421   3.690   6.028  11.069  0.1201  0.0483  0.2256
  473DPPI   PO4 7422   3.541   6.049  10.404 -0.2168  0.0438  0.1144
  473DPPI   GL1 7423   3.225   6.019  10.092 -0.1345 -0.1456  0.0885
  473DPPI   GL2 7424   3.519   5.777   9.978  0.1968 -0.2450  0.0002
  473DPPI   C1A 7425   3.149   6.094   9.719 -0.0063 -0.3599  0.0953
  473DPPI   C2A 7426   2.978   6.266   9.403  0.2281  0.4249 -0.0504
  473DPPI   C3A 7427   2.984   6.190   9.013  0.1574 -0.0153  0.1774
  473DPPI   C4A 7428   3.085   6.181   8.524 -0.0094  0.3245 -0.1223
  473DPPI   C1B 7429   3.421   5.586   9.511  0.1905 -0.2185  0.1077
  473DPPI   C2B 7430   3.315   5.546   9.049 -0.1832  0.0744  0.1875
  473DPPI   C3B 7431   3.037   5.746   8.792  0.0874  0.2312 -0.3279
  473DPPI   C4B 7432   2.837   5.733   8.394 -0.0984 -0.1220  0.0510
  474DPPI    C1 7433  17.976  16.750  10.797 -0.1333  0.2446  0.1672
  474DPPI    C2 7434  17.613  16.824  10.948 -0.2319  0.0602  0.0245
  474DPPI    C3 7435  17.906  16.692  11.187 -0.3420 -0.0767  0.0848
  474DPPI   PO4 7436  17.899  16.850  10.448 -0.0352 -0.3316  0.1385
  474DPPI   GL1 7437  18.163  16.924  10.179 -0.2246  0.0149 -0.1481
  474DPPI   GL2 7438  18.296  16.731  10.074 -0.4495  0.1945  0.1527
  474DPPI   C1A 7439  18.181  17.173   9.823  0.0541  0.2271 -0.2421
  474DPPI   C2A 7440  18.377  17.189   9.409  0.0351 -0.1290  0.0263
  474DPPI   C3A 7441  18.370  16.871   9.100 -0.1365 -0.2309 -0.1406
  474DPPI   C4A 7442  18.618  16.876   8.766  0.2340 -0.2160 -0.1092
  474DPPI   C1B 7443  18.211  16.689   9.647  0.2582  0.0309  0.3807
  474DPPI   C2B 7444  17.972  16.622   9.221  0.2398  0.0355 -0.1388
  474DPPI   C3B 7445  17.869  16.214   8.883  0.1120 -0.0681 -0.0185
  474DPPI   C4B 7446  17.859  16.121   8.538 -0.3441  0.0189 -0.2346
  475DPPI    C1 7447   6.420  13.804  10.385 -0.0560 -0.0628  0.0948
  475DPPI    C2 7448   6.414  14.180  10.246  0.2407 -0.0609  0.0809
  475DPPI    C3 7449   6.324  14.106  10.629 -0.1663 -0.0184 -0.0022
  475DPPI   PO4 7450   6.346  13.683  10.189  0.3833 -0.0071 -0.0118
  475DPPI   GL1 7451   6.196  13.518   9.771  0.4656  0.0582  0.0844
  475DPPI   GL2 7452   5.919  13.654   9.842 -0.3457  0.2469 -0.2708
  475DPPI   C1A 7453   6.407  13.800   9.564  0.1625  0.0645  0.3273
  475DPPI   C2A 7454   6.425  14.204   9.357 -0.1609 -0.1129 -0.2069
  475DPPI   C3A 7455   6.322  14.392   8.994  0.1112  0.2221  0.3296
  475DPPI   C4A 7456   6.375  14.664   8.677 -0.2348 -0.1229  0.1859
  475DPPI   C1B 7457   5.899  13.527   9.384  0.0492  0.0240 -0.4037
  475DPPI   C2B 7458   6.090  13.482   8.966  0.1224 -0.1367 -0.0912
  475DPPI   C3B 7459   6.168  13.552   8.474 -0.1684 -0.0613 -0.0017
  475DPPI   C4B 7460   6.077  13.338   8.014  0.1838 -0.1897  0.0070
  476DPPI    C1 7461   0.572   6.030  10.731 -0.1571  0.1270  0.0606
  476DPPI    C2 7462   0.696   6.357  10.536 -0.3662  0.1416 -0.0508
  476DPPI    C3 7463   0.553   6.387  10.909  0.1218  0.1013  0.1470
  476DPPI   PO4 7464   0.422   5.966  10.463 -0.0544  0.0550 -0.1706
  476DPPI   GL1 7465   0.412   5.811   9.986  0.1459 -0.0520 -0.0170
  476DPPI   GL2 7466   0.668   5.897   9.761 -0.0707  0.1835  0.2062
  476DPPI   C1A 7467   0.221   6.018   9.626 -0.0382  0.0873  0.2115
  476DPPI   C2A 7468   0.095   6.091   9.284  0.0508  0.0706 -0.1775
  476DPPI   C3A 7469   0.234   6.141   8.911 -0.0520  0.0503  0.0359
  476DPPI   C4A 7470   0.179   6.013   8.532  0.3397  0.0897 -0.0336
  476DPPI   C1B 7471   0.615   5.998   9.242 -0.2758  0.2011  0.3171
  476DPPI   C2B 7472   0.715   6.165   8.856  0.0939 -0.2557  0.2174
  476DPPI   C3B 7473   0.544   6.283   8.433 -0.1594 -0.0168 -0.0643
  476DPPI   C4B 7474   0.233   6.346   8.139  0.2350 -0.2131 -0.1040
  477DPPI    C1 7475  10.005  14.352  10.754  0.0472  0.0043 -0.0326
  477DPPI    C2 7476   9.963  13.980  10.896 -0.0055  0.0695  0.1257
  477DPPI    C3 7477  10.321  14.158  10.904  0.0663 -0.0568 -0.1510
  477DPPI   PO4 7478   9.894  14.335  10.398  0.2678 -0.1737  0.0700
  477DPPI   GL1 7479   9.778  14.612   9.993  0.2163  0.1251  0.1617
  477DPPI   GL2 7480   9.534  14.285   9.911 -0.3573  0.0147  0.2518
  477DPPI   C1A 7481  10.134  14.563   9.649  0.1162 -0.2802 -0.1113
  477DPPI   C2A 7482  10.363  14.582   9.385  0.0896 -0.2294 -0.2868
  477DPPI   C3A 7483  10.577  14.613   8.960  0.1996 -0.3496 -0.0462
  477DPPI   C4A 7484  10.643  14.854   8.540 -0.1501 -0.1943 -0.1741
  477DPPI   C1B 7485   9.685  14.490   9.526 -0.0373  0.1061 -0.0684
  477DPPI   C2B 7486   9.845  14.494   9.214  0.0276 -0.1472  0.2418
  477DPPI   C3B 7487   9.849  14.380   8.813 -0.1724 -0.0061 -0.1574
  477DPPI   C4B 7488  10.236  14.366   8.678  0.4343  0.4745  0.1907
  478DPPI    C1 7489   9.437   3.047  10.423  0.2391 -0.0424  0.0905
  478DPPI    C2 7490   9.363   3.433  10.349  0.0310 -0.1114 -0.0696
  478DPPI    C3 7491   9.201   3.257  10.669 -0.2628 -0.1845 -0.2543
  478DPPI   PO4 7492   9.488   2.984  10.077  0.1661 -0.1289 -0.1779
  478DPPI   GL1 7493   9.207   3.187   9.788  0.1599 -0.0683 -0.1001
  478DPPI   GL2 7494   9.250   3.574   9.877  0.0266 -0.2234  0.2468
  478DPPI   C1A 7495   9.391   3.153   9.356  0.2960 -0.0331  0.1903
  478DPPI   C2A 7496   9.304   3.083   8.871 -0.1333  0.2416 -0.0289
  478DPPI   C3A 7497   9.499   2.941   8.500 -0.2092  0.1045 -0.1500
  478DPPI   C4A 7498   9.913   2.788   8.391  0.2626 -0.0822 -0.0205
  478DPPI   C1B 7499   9.592   3.590   9.446  0.0098  0.1671  0.1039
  478DPPI   C2B 7500   9.555   3.535   9.045  0.0986 -0.0237 -0.0726
  478DPPI   C3B 7501   9.676   3.380   8.721  0.2538 -0.1024  0.2273
  478DPPI   C4B 7502   9.769   3.457   8.342 -0.2917 -0.0811 -0.1794
  479DPPI    C1 7503  10.706  10.009  10.612  0.0728 -0.1094  0.1173
  479DPPI    C2 7504  10.587   9.699  10.389  0.2357 -0.0844 -0.0068
  479DPPI    C3 7505  10.893   9.656  10.643  0.1173 -0.0841  0.1377
  479DPPI   PO4 7506  10.709  10.162  10.496 -0.1546 -0.1329  0.0270
  479DPPI   GL1 7507  10.781  10.069  10.076 -0.0697 -0.0768  0.3306
  479DPPI   GL2 7508  11.023   9.983  10.177 -0.1050  0.2214 -0.1975
  479DPPI   C1A 7509  10.825  10.076   9.599 -0.0467  0.3161 -0.0859
  479DPPI   C2A 7510  10.929   9.998   9.220 -0.2372  0.1038 -0.2774
  479DPPI   C3A 7511  10.957  10.094   8.750  0.2361  0.1412  0.0220
  479DPPI   C4A 7512  10.813  10.219   8.420  0.0089  0.0376 -0.0955
  479DPPI   C1B 7513  10.907   9.581  10.043 -0.1057  0.1188  0.2901
  479DPPI   C2B 7514  10.844   9.424   9.590  0.2897  0.0182 -0.1004
  479DPPI   C3B 7515  10.803   9.538   9.114 -0.0089  0.1059  0.1963
  479DPPI   C4B 7516  11.129   9.590   8.857  0.1822 -0.1684 -0.2160
  480DPPI    C1 7517   7.070   3.118  10.167 -0.1972  0.0223  0.1201
  480DPPI    C2 7518   7.191   2.844  10.432 -0.0073 -0.1359 -0.1250
  480DPPI    C3 7519   6.925   3.123  10.539 -0.1263 -0.3531  0.1568
  480DPPI   PO4 7520   7.333   3.214   9.968 -0.0829 -0.1479  0.1568
  480DPPI   GL1 7521   7.379   3.248   9.563  0.2185  0.0188  0.3904
  480DPPI   GL2 7522   7.254   3.566   9.566  0.2411  0.3009  0.0747
  480DPPI   C1A 7523   7.452   3.225   9.249  0.1347  0.2637  0.1931
  480DPPI   C2A 7524   7.627   3.278   8.854 -0.0719 -0.2332  0.0289
  480DPPI   C3A 7525   7.712   3.297   8.375 -0.0186  0.0686  0.0117
  480DPPI   C4A 7526   7.627   3.306   7.975  0.1048 -0.0047  0.3626
  480DPPI   C1B 7527   7.291   3.706   9.174 -0.0257 -0.4255  0.0373
  480DPPI   C2B 7528   7.458   3.740   8.844  0.1336 -0.1495 -0.0084
  480DPPI   C3B 7529   7.666   3.756   8.485  0.0287 -0.0431 -0.0983
  480DPPI   C4B 7530   8.091   3.561   8.172  0.1197 -0.2276  0.0004
  481DPPI    C1 7531  15.860   5.900  10.509  0.0474  0.0550  0.2999
  481DPPI    C2 7532  16.009   6.244  10.371 -0.0089  0.0475  0.2194
  481DPPI    C3 7533  16.102   6.119  10.739  0.0402  0.1311  0.2356
  481DPPI   PO4 7534  15.942   5.798  10.226  0.2163  0.1888 -0.1100
  481DPPI   GL1 7535  15.742   5.731   9.858  0.1027  0.1881  0.0765
  481DPPI   GL2 7536  15.866   5.938   9.740  0.0537 -0.0489 -0.2940
  481DPPI   C1A 7537  15.930   5.446   9.578  0.0884  0.0572  0.0099
  481DPPI   C2A 7538  16.092   5.413   9.182 -0.0291  0.2281 -0.4984
  481DPPI   C3A 7539  16.012   5.356   8.762 -0.0746 -0.1177  0.0725
  481DPPI   C4A 7540  16.045   5.290   8.421  0.0901  0.1078  0.4150
  481DPPI   C1B 7541  15.852   5.861   9.275  0.2335  0.2361  0.0669
  481DPPI   C2B 7542  15.902   5.824   8.913 -0.0606 -0.0288  0.1551
  481DPPI   C3B 7543  15.953   5.775   8.414 -0.0158  0.3492 -0.2785
  481DPPI   C4B 7544  16.109   5.786   8.031 -0.2792  0.1563 -0.0916
  482DPPI    C1 7545   1.889   3.846  10.577  0.1527 -0.2936  0.1524
  482DPPI    C2 7546   1.750   3.750  10.940  0.2603  0.0827  0.2977
  482DPPI    C3 7547   2.081   3.972  10.905  0.3364 -0.0771 -0.0348
  482DPPI   PO4 7548   1.854   3.637  10.448  0.0612 -0.0008  0.1928
  482DPPI   GL1 7549   2.145   3.440  10.091 -0.1834 -0.1470  0.0487
  482DPPI   GL2 7550   1.924   3.377  10.029 -0.1349  0.1069 -0.0371
  482DPPI   C1A 7551   2.398   3.406   9.840 -0.1670 -0.0969  0.1552
  482DPPI   C2A 7552   2.623   3.455   9.520 -0.0212 -0.1143 -0.2543
  482DPPI   C3A 7553   2.847   3.428   9.069  0.4905 -0.0133 -0.3095
  482DPPI   C4A 7554   2.668   3.439   8.642 -0.0211 -0.0716  0.0272
  482DPPI   C1B 7555   1.831   3.209   9.667 -0.1948  0.1305  0.1254
  482DPPI   C2B 7556   1.851   3.345   9.286  0.1430 -0.3395  0.1144
  482DPPI   C3B 7557   1.818   3.526   8.864  0.0417 -0.0988 -0.0233
  482DPPI   C4B 7558   1.615   3.422   8.402  0.1790 -0.1582  0.0797
  483DPPI    C1 7559  14.632  12.375  11.158 -0.0462  0.0162  0.0763
  483DPPI    C2 7560  14.960  12.215  10.994  0.0606  0.1980  0.1092
  483DPPI    C3 7561  14.795  12.046  11.317 -0.0849 -0.0963 -0.1143
  483DPPI   PO4 7562  14.463  12.414  10.922 -0.1705 -0.0601 -0.1279
  483DPPI   GL1 7563  14.277  12.673  10.593 -0.2085  0.2469  0.1719
  483DPPI   GL2 7564  14.403  12.762  10.358  0.2618 -0.0037  0.3855
  483DPPI   C1A 7565  13.919  12.615  10.300  0.1978 -0.1864 -0.1247
  483DPPI   C2A 7566  13.693  12.414   9.940 -0.3845 -0.0176  0.0420
  483DPPI   C3A 7567  13.716  12.293   9.518 -0.0629  0.0160 -0.1070
  483DPPI   C4A 7568  13.687  12.226   9.038  0.0425  0.0978 -0.0994
  483DPPI   C1B 7569  14.683  12.571  10.088  0.0187  0.0632 -0.0136
  483DPPI   C2B 7570  14.649  12.443   9.614  0.0584  0.0733 -0.2100
  483DPPI   C3B 7571  14.611  12.480   9.152 -0.0986 -0.1366 -0.2080
  483DPPI   C4B 7572  14.414  12.718   8.827  0.2826 -0.1798 -0.2351
  484DPPI    C1 7573  15.667  16.415  11.056  0.1371 -0.1784  0.0339
  484DPPI    C2 7574  15.818  16.732  10.864  0.0868 -0.1311  0.0720
  484DPPI    C3 7575  15.991  16.600  11.200 -0.0660  0.0390  0.2192
  484DPPI   PO4 7576  15.689  16.220  10.722 -0.0671 -0.3348  0.0012
  484DPPI   GL1 7577  15.475  16.074  10.388 -0.4872 -0.1998 -0.0395
  484DPPI   GL2 7578  15.799  16.343  10.277  0.1014  0.5549 -0.0304
  484DPPI   C1A 7579  15.466  16.085   9.971 -0.1922 -0.1151 -0.1682
  484DPPI   C2A 7580  15.485  16.067   9.607 -0.1681  0.1805 -0.0224
  484DPPI   C3A 7581  15.213  16.114   9.199  0.0558 -0.0987  0.0412
  484DPPI   C4A 7582  15.223  16.236   8.738  0.1171  0.1742 -0.1191
  484DPPI   C1B 7583  15.857  16.425   9.783  0.0356  0.1380 -0.5784
  484DPPI   C2B 7584  15.911  16.731   9.473  0.1498 -0.3598 -0.2969
  484DPPI   C3B 7585  15.779  16.739   9.113 -0.2129 -0.0490  0.0552
  484DPPI   C4B 7586  16.008  16.657   8.645 -0.1705  0.0823  0.4819
  485DPPI    C1 7587   9.180  13.178  10.612  0.0234 -0.0316  0.1573
  485DPPI    C2 7588   9.529  13.188  10.807 -0.0217 -0.2543  0.2530
  485DPPI    C3 7589   9.211  13.015  10.976 -0.1873 -0.0271  0.1784
  485DPPI   PO4 7590   9.306  13.094  10.325 -0.2086  0.0762 -0.0745
  485DPPI   GL1 7591   9.144  13.248   9.947  0.0088  0.2075  0.3815
  485DPPI   GL2 7592   8.865  13.125   9.727  0.0305  0.0353  0.0601
  485DPPI   C1A 7593   9.173  13.381   9.483 -0.0166  0.0650 -0.0188
  485DPPI   C2A 7594   9.475  13.604   9.095  0.2704  0.3633 -0.1648
  485DPPI   C3A 7595   9.924  13.571   9.170 -0.0743  0.1165  0.0353
  485DPPI   C4A 7596  10.170  13.227   9.017  0.0930  0.0163  0.3256
  485DPPI   C1B 7597   8.755  13.068   9.399 -0.0198  0.1370 -0.1424
  485DPPI   C2B 7598   8.950  12.987   9.004  0.0303  0.0510  0.2141
  485DPPI   C3B 7599   8.945  12.952   8.546 -0.2974 -0.3342  0.0881
  485DPPI   C4B 7600   8.613  12.959   8.089 -0.1446  0.3900  0.1706
  486DPPI    C1 7601   8.935   7.621  11.054  0.0302  0.0707  0.1074
  486DPPI    C2 7602   9.221   7.873  10.933  0.2272 -0.1794  0.0414
  486DPPI    C3 7603   9.105   7.870  11.316  0.0641  0.1626 -0.0014
  486DPPI   PO4 7604   8.856   7.488  10.825 -0.3464 -0.1097  0.0676
  486DPPI   GL1 7605   8.736   7.561  10.390 -0.2828  0.0692 -0.1412
  486DPPI   GL2 7606   8.509   7.714  10.223  0.1428  0.3220 -0.1440
  486DPPI   C1A 7607   8.909   7.620   9.896 -0.1744  0.1671 -0.2044
  486DPPI   C2A 7608   8.930   7.505   9.511  0.1400  0.0860  0.1142
  486DPPI   C3A 7609   9.157   7.596   9.148  0.2322  0.2025 -0.1223
  486DPPI   C4A 7610   9.296   7.612   8.688  0.1790  0.3553  0.0796
  486DPPI   C1B 7611   8.473   7.827   9.677  0.1599 -0.0398 -0.1881
  486DPPI   C2B 7612   8.640   7.835   9.212  0.0046 -0.2420  0.3816
  486DPPI   C3B 7613   8.827   7.733   8.788  0.0791 -0.2481 -0.2640
  486DPPI   C4B 7614   8.937   8.053   8.450  0.1009 -0.1353  0.0771
  487DPPI    C1 7615   5.494  17.196  10.401  0.0242 -0.1753 -0.0709
  487DPPI    C2 7616   5.408  17.000  10.738  0.0562 -0.2725 -0.1186
  487DPPI    C3 7617   5.781  17.128  10.672 -0.0503  0.1725  0.1010
  487DPPI   PO4 7618   5.317  17.102  10.249  0.2207 -0.2195 -0.1186
  487DPPI   GL1 7619   5.302  16.924   9.844  0.3222 -0.0993  0.0882
  487DPPI   GL2 7620   5.682  17.004   9.917  0.0526  0.3050  0.0507
  487DPPI   C1A 7621   5.226  16.895   9.376  0.0222  0.2988 -0.0375
  487DPPI   C2A 7622   5.187  16.771   8.885 -0.0807 -0.1168  0.1794
  487DPPI   C3A 7623   5.131  16.926   8.480 -0.0439  0.0721 -0.1185
  487DPPI   C4A 7624   4.936  16.955   8.157  0.2183  0.1208  0.0910
  487DPPI   C1B 7625   5.727  16.980   9.493  0.0197 -0.2159  0.0081
  487DPPI   C2B 7626   5.605  16.793   9.125  0.0042 -0.1171 -0.0281
  487DPPI   C3B 7627   5.749  16.800   8.672  0.1755  0.1041 -0.1035
  487DPPI   C4B 7628   5.849  16.600   8.300  0.2507  0.2224  0.2931
  488DPPI    C1 7629  18.033   0.406  10.762  0.0965  0.2854  0.1399
  488DPPI    C2 7630  17.991   0.160  11.075  0.1627 -0.1605 -0.1914
  488DPPI    C3 7631  18.356   0.259  10.946  0.1358 -0.0986 -0.2202
  488DPPI   PO4 7632  17.985   0.396  10.512  0.1133 -0.1774  0.1178
  488DPPI   GL1 7633  17.685   0.478  10.248 -0.0226 -0.2065  0.2463
  488DPPI   GL2 7634  17.689   0.856  10.149 -0.0343 -0.0583  0.0570
  488DPPI   C1A 7635  17.995   0.326   9.926 -0.0282 -0.2137 -0.3436
  488DPPI   C2A 7636  17.959  -0.088   9.747 -0.0875 -0.4003 -0.3779
  488DPPI   C3A 7637  17.953  -0.225   9.353  0.2072  0.3639 -0.0550
  488DPPI   C4A 7638  18.048  -0.466   8.986  0.1080 -0.1285 -0.0145
  488DPPI   C1B 7639  17.879   0.788   9.788 -0.1744  0.0290  0.2140
  488DPPI   C2B 7640  17.724   0.799   9.394  0.2908  0.0337  0.0923
  488DPPI   C3B 7641  17.557   0.676   9.129 -0.1022 -0.1718  0.0582
  488DPPI   C4B 7642  17.324   0.762   8.677  0.1215 -0.4159 -0.1608
  489DPPI    C1 7643  13.133   4.778  10.309  0.1352 -0.2692 -0.0045
  489DPPI    C2 7644  12.891   4.466  10.247 -0.0062 -0.1240 -0.2002
  489DPPI    C3 7645  12.756   4.787  10.442  0.0560 -0.0771 -0.2339
  489DPPI   PO4 7646  13.266   4.817  10.138  0.0369  0.1862 -0.0024
  489DPPI   GL1 7647  13.201   5.096   9.760  0.0519  0.2875  0.3860
  489DPPI   GL2 7648  13.280   5.012   9.526 -0.0335  0.1490 -0.0453
  489DPPI   C1A 7649  12.800   5.121   9.500 -0.0381  0.0693  0.1468
  489DPPI   C2A 7650  12.729   5.042   9.042  0.0084 -0.1799 -0.0484
  489DPPI   C3A 7651  12.615   5.222   8.570 -0.0456  0.3505 -0.1385
  489DPPI   C4A 7652  12.393   5.494   8.278 -0.2575  0.1969  0.1280
  489DPPI   C1B 7653  13.232   4.975   9.099  0.1794 -0.4230  0.1121
  489DPPI   C2B 7654  13.089   4.960   8.646 -0.0611 -0.0893  0.0474
  489DPPI   C3B 7655  13.314   4.668   8.377 -0.0615 -0.5293  0.2113
  489DPPI   C4B 7656  13.398   4.525   7.965  0.1232 -0.0906 -0.1860
  490DPPI    C1 7657   9.583  13.517  10.332 -0.1983 -0.0476  0.2117
  490DPPI    C2 7658   9.423  13.667   9.998 -0.1380 -0.3247  0.0548
  490DPPI    C3 7659   9.193  13.601  10.318 -0.2057 -0.1051  0.0529
  490DPPI   PO4 7660   9.839  13.684  10.409  0.2656  0.1065  0.1065
  490DPPI   GL1 7661   9.861  13.970  10.080 -0.0374 -0.1301  0.0920
  490DPPI   GL2 7662  10.039  14.178   9.970 -0.0878  0.0565  0.0367
  490DPPI   C1A 7663   9.619  13.920   9.655 -0.1086  0.2792 -0.4406
  490DPPI   C2A 7664   9.644  14.058   9.167 -0.0059  0.2555  0.0009
  490DPPI   C3A 7665   9.592  13.881   8.715  0.1757  0.0878 -0.0971
  490DPPI   C4A 7666   9.833  13.485   8.634  0.2176  0.1763 -0.0281
  490DPPI   C1B 7667  10.054  14.045   9.590  0.0152  0.0658 -0.0564
  490DPPI   C2B 7668  10.129  14.034   9.170  0.1542  0.3502  0.1082
  490DPPI   C3B 7669  10.166  13.817   8.846 -0.0247 -0.1422  0.0431
  490DPPI   C4B 7670  10.281  13.505   8.460 -0.1185 -0.3339 -0.2404
  491DPPI    C1 7671  14.524   3.724  10.623  0.1272 -0.0912  0.0296
  491DPPI    C2 7672  14.253   3.490  10.800 -0.0144  0.0631  0.0188
  491DPPI    C3 7673  14.505   3.707  11.022  0.0563 -0.0295  0.0292
  491DPPI   PO4 7674  14.567   3.586  10.401 -0.1256 -0.1245  0.1155
  491DPPI   GL1 7675  14.567   3.552  10.012 -0.4437 -0.3161 -0.1272
  491DPPI   GL2 7676  14.233   3.772   9.939  0.1375 -0.3722  0.1758
  491DPPI   C1A 7677  14.687   3.559   9.616 -0.2197  0.0594 -0.0399
  491DPPI   C2A 7678  14.861   3.667   9.174 -0.3033  0.0171  0.0503
  491DPPI   C3A 7679  14.845   3.476   8.843 -0.1533 -0.0188  0.0770
  491DPPI   C4A 7680  14.939   3.517   8.353  0.0001 -0.2540  0.0506
  491DPPI   C1B 7681  14.370   3.918   9.479  0.3014  0.0479 -0.0576
  491DPPI   C2B 7682  14.424   3.954   9.027 -0.1779  0.1618  0.0571
  491DPPI   C3B 7683  14.461   3.840   8.669 -0.0114 -0.2401  0.0423
  491DPPI   C4B 7684  14.561   3.827   8.255  0.3805  0.0614 -0.2769
  492DPPI    C1 7685  11.955   3.060  10.702  0.1438 -0.0899 -0.2195
  492DPPI    C2 7686  11.561   3.000  10.675  0.1540 -0.2062 -0.1222
  492DPPI    C3 7687  11.805   2.691  10.741  0.2188 -0.0742  0.2799
  492DPPI   PO4 7688  11.982   3.235  10.497  0.0887  0.0306 -0.0735
  492DPPI   GL1 7689  12.252   3.199  10.155 -0.0815  0.4189  0.0252
  492DPPI   GL2 7690  12.449   3.173   9.845 -0.0531 -0.1110  0.0411
  492DPPI   C1A 7691  11.941   3.277   9.809 -0.1647 -0.0789 -0.1022
  492DPPI   C2A 7692  11.887   3.118   9.304 -0.1806 -0.1575 -0.2658
  492DPPI   C3A 7693  11.853   2.833   8.987  0.0753  0.0111 -0.0799
  492DPPI   C4A 7694  11.801   2.777   8.529 -0.0360 -0.0321  0.0599
  492DPPI   C1B 7695  12.338   3.421   9.553 -0.0066  0.0363 -0.0153
  492DPPI   C2B 7696  12.481   3.820   9.368  0.1200 -0.2850  0.0146
  492DPPI   C3B 7697  12.587   4.121   9.008 -0.1065  0.0290 -0.0954
  492DPPI   C4B 7698  12.498   4.187   8.645 -0.0939 -0.0470 -0.3040
  493DPPI    C1 7699  16.603  12.563  10.706  0.0579  0.0986 -0.0043
  493DPPI    C2 7700  16.981  12.673  10.639  0.1833 -0.4696 -0.2892
  493DPPI    C3 7701  16.849  12.629  11.014  0.3156 -0.0159 -0.1830
  493DPPI   PO4 7702  16.472  12.570  10.528  0.0306 -0.1312  0.1893
  493DPPI   GL1 7703  16.584  12.632  10.075 -0.1259  0.0168  0.0155
  493DPPI   GL2 7704  16.848  12.837  10.133  0.2123 -0.1860 -0.1383
  493DPPI   C1A 7705  16.611  12.598   9.679 -0.5067  0.0535 -0.1466
  493DPPI   C2A 7706  16.521  12.605   9.314 -0.3612 -0.1834  0.2662
  493DPPI   C3A 7707  16.383  12.412   9.015 -0.0041  0.0189 -0.0570
  493DPPI   C4A 7708  16.515  12.082   8.785 -0.0715 -0.0230  0.2084
  493DPPI   C1B 7709  17.087  12.707   9.758 -0.0944  0.0985  0.1942
  493DPPI   C2B 7710  16.973  12.765   9.353  0.0258  0.0335  0.3271
  493DPPI   C3B 7711  16.776  12.968   9.051  0.0013  0.0119  0.0466
  493DPPI   C4B 7712  16.410  12.953   8.728  0.3928 -0.0077  0.0210
  494DPPI    C1 7713   1.167   4.294  10.608  0.0721 -0.1054  0.1385
  494DPPI    C2 7714   0.886   4.464  10.836  0.1124 -0.0488  0.1461
  494DPPI    C3 7715   1.020   4.098  10.925  0.0505 -0.0706  0.1501
  494DPPI   PO4 7716   1.056   4.257  10.355  0.0276  0.1224 -0.1419
  494DPPI   GL1 7717   0.938   3.997  10.091 -0.1395 -0.2026 -0.0709
  494DPPI   GL2 7718   0.740   4.259  10.028  0.0235  0.0203 -0.0619
  494DPPI   C1A 7719   0.936   3.956   9.672  0.0713 -0.0498  0.0430
  494DPPI   C2A 7720   1.032   3.889   9.298  0.2881  0.0115 -0.0270
  494DPPI   C3A 7721   0.950   3.838   8.887 -0.3217 -0.2131  0.1322
  494DPPI   C4A 7722   0.732   3.814   8.543 -0.2824  0.2939 -0.2420
  494DPPI   C1B 7723   0.530   4.138   9.749 -0.1097  0.2432 -0.0804
  494DPPI   C2B 7724   0.517   3.832   9.439  0.0158  0.3791 -0.2659
  494DPPI   C3B 7725   0.477   3.817   9.021 -0.0024  0.1512 -0.0659
  494DPPI   C4B 7726   0.246   3.854   8.691 -0.1265 -0.0875  0.2324
  495DPPI    C1 7727   8.394  10.324  10.751  0.2079 -0.1192  0.0281
  495DPPI    C2 7728   8.070  10.369  10.981  0.0960 -0.3652 -0.0777
  495DPPI    C3 7729   8.419  10.527  11.095 -0.1006  0.0714 -0.0574
  495DPPI   PO4 7730   8.308  10.383  10.496  0.0491 -0.1661 -0.0289
  495DPPI   GL1 7731   8.592  10.479  10.140 -0.2936  0.0033 -0.0410
  495DPPI   GL2 7732   8.793  10.319  10.269 -0.3069 -0.1642  0.0923
  495DPPI   C1A 7733   8.777  10.440   9.745 -0.2376 -0.1598 -0.1585
  495DPPI   C2A 7734   8.649  10.249   9.412 -0.2031  0.3145 -0.0323
  495DPPI   C3A 7735   8.703  10.284   8.979 -0.1562 -0.0874  0.2804
  495DPPI   C4A 7736   8.721  10.430   8.481  0.1051 -0.2188 -0.1289
  495DPPI   C1B 7737   9.210  10.247   9.911  0.1290  0.0808  0.1100
  495DPPI   C2B 7738   9.242  10.062   9.488  0.1370 -0.1677  0.0415
  495DPPI   C3B 7739   9.091  10.022   9.133  0.1937 -0.0740  0.0218
  495DPPI   C4B 7740   9.177  10.279   8.589  0.0318  0.1063  0.1672
  496DPPI    C1 7741  13.890  15.074  10.758 -0.2771 -0.2135  0.2925
  496DPPI    C2 7742  13.871  15.167  11.146  0.2304 -0.0082  0.2765
  496DPPI    C3 7743  14.096  14.859  11.026  0.0494 -0.0910  0.1458
  496DPPI   PO4 7744  13.644  15.045  10.727  0.3449  0.0319  0.0137
  496DPPI   GL1 7745  13.405  15.060  10.344  0.0995 -0.0200  0.2525
  496DPPI   GL2 7746  13.526  14.792  10.299 -0.2979 -0.0155 -0.2572
  496DPPI   C1A 7747  13.220  15.121   9.921 -0.0129  0.3116  0.2323
  496DPPI   C2A 7748  13.211  15.077   9.352  0.2126 -0.0248 -0.0287
  496DPPI   C3A 7749  13.392  14.926   8.960 -0.0353 -0.1797 -0.0551
  496DPPI   C4A 7750  13.214  14.743   8.519 -0.0109 -0.0359 -0.3377
  496DPPI   C1B 7751  13.671  14.389  10.103  0.1056 -0.0256 -0.4486
  496DPPI   C2B 7752  13.759  14.250   9.696  0.1042  0.2157  0.2323
  496DPPI   C3B 7753  13.752  14.118   9.297  0.2017 -0.0057 -0.1145
  496DPPI   C4B 7754  13.578  14.085   8.971 -0.2003  0.3790 -0.2941
  497DPPI    C1 7755  10.721  13.809  10.492  0.0681  0.0731 -0.0437
  497DPPI    C2 7756  10.759  13.469  10.700  0.2922 -0.0109 -0.2179
  497DPPI    C3 7757  10.466  13.727  10.789  0.0210 -0.3230 -0.1869
  497DPPI   PO4 7758  10.703  13.744  10.279  0.1084 -0.1717 -0.0688
  497DPPI   GL1 7759  10.875  13.758   9.861  0.1451  0.0425  0.1005
  497DPPI   GL2 7760  11.058  13.959   9.930  0.1975  0.0009 -0.2302
  497DPPI   C1A 7761  10.933  13.682   9.446  0.1260  0.0095 -0.0774
  497DPPI   C2A 7762  11.121  13.521   9.123 -0.1713  0.3696 -0.0045
  497DPPI   C3A 7763  11.189  13.116   8.922  0.1044  0.4168  0.2515
  497DPPI   C4A 7764  11.578  12.967   8.724 -0.0742 -0.0331 -0.1426
  497DPPI   C1B 7765  11.340  14.064   9.552 -0.1832 -0.3668  0.2249
  497DPPI   C2B 7766  11.475  14.075   9.117 -0.1790 -0.0189  0.0838
  497DPPI   C3B 7767  11.589  14.026   8.628 -0.1573 -0.0449 -0.0625
  497DPPI   C4B 7768  11.668  13.790   8.257 -0.0003 -0.0858 -0.1048
  498DPPI    C1 7769   6.351  10.799  10.484 -0.1370  0.2447 -0.1970
  498DPPI    C2 7770   6.291  10.610  10.831 -0.3117 -0.1373 -0.4293
  498DPPI    C3 7771   6.133  10.972  10.771 -0.1199  0.0151 -0.0432
  498DPPI   PO4 7772   6.598  10.809  10.455 -0.0758  0.2843  0.3304
  498DPPI   GL1 7773   6.717  10.723   9.940 -0.3230  0.1377 -0.3109
  498DPPI   GL2 7774   6.515  10.767   9.985  0.1620  0.1167 -0.0129
  498DPPI   C1A 7775   6.863  10.779   9.572  0.0444 -0.2668 -0.0553
  498DPPI   C2A 7776   6.704  10.791   9.177  0.1969 -0.2920  0.0911
  498DPPI   C3A 7777   6.691  10.825   8.723  0.1441 -0.0158  0.0155
  498DPPI   C4A 7778   6.397  10.653   8.432  0.0675  0.1185  0.2664
  498DPPI   C1B 7779   6.440  11.079   9.597  0.0029 -0.0250 -0.0462
  498DPPI   C2B 7780   6.339  11.147   9.110 -0.2014 -0.0906  0.0042
  498DPPI   C3B 7781   6.210  11.055   8.771 -0.4552 -0.2218 -0.1188
  498DPPI   C4B 7782   6.021  11.029   8.401 -0.0600  0.1490 -0.2683
  499DPPI    C1 7783   8.484  14.344  10.292 -0.1706  0.2499  0.1790
  499DPPI    C2 7784   8.601  14.162  10.628 -0.0951  0.0858  0.0649
  499DPPI    C3 7785   8.664  13.987  10.273 -0.1540  0.2682 -0.0364
  499DPPI   PO4 7786   8.487  14.598  10.305  0.0008  0.2865 -0.1863
  499DPPI   GL1 7787   8.529  14.953  10.041  0.0618 -0.3052  0.1122
  499DPPI   GL2 7788   8.447  15.123  10.286 -0.2679  0.3631 -0.0056
  499DPPI   C1A 7789   8.751  14.994   9.773 -0.0950 -0.5521 -0.0480
  499DPPI   C2A 7790   9.068  15.288   9.498 -0.0143  0.2256 -0.1922
  499DPPI   C3A 7791   9.237  15.444   9.084  0.2779 -0.2020  0.3888
  499DPPI   C4A 7792   9.222  15.559   8.631 -0.2076 -0.2264 -0.0352
  499DPPI   C1B 7793   8.746  15.413  10.035  0.0214  0.0885  0.0088
  499DPPI   C2B 7794   9.039  15.718   9.851  0.1550  0.0974  0.0080
  499DPPI   C3B 7795   9.418  15.766   9.736  0.0001 -0.1065  0.0964
  499DPPI   C4B 7796   9.517  15.767   9.361  0.2191 -0.1246 -0.1437
  500DPPI    C1 7797   0.277  13.849  11.056 -0.0530  0.0064 -0.1671
  500DPPI    C2 7798   0.460  14.204  11.036  0.1943 -0.1151 -0.1016
  500DPPI    C3 7799   0.414  14.023  11.389 -0.0007 -0.1140 -0.1254
  500DPPI   PO4 7800   0.388  13.773  10.768  0.0383 -0.0437 -0.0559
  500DPPI   GL1 7801   0.227  13.709  10.345  0.2072  0.3229 -0.1325
  500DPPI   GL2 7802   0.026  13.997  10.260  0.0809  0.0380  0.0912
  500DPPI   C1A 7803   0.409  13.544   9.898 -0.0942  0.1646 -0.0873
  500DPPI   C2A 7804   0.559  13.438   9.567 -0.1377  0.0675  0.3101
  500DPPI   C3A 7805   0.697  13.233   9.219  0.0918 -0.1288  0.3132
  500DPPI   C4A 7806   0.577  13.212   8.744  0.0885 -0.0856 -0.4704
  500DPPI   C1B 7807   0.054  13.947   9.907 -0.0667  0.0412  0.1049
  500DPPI   C2B 7808   0.304  13.907   9.438  0.2054  0.1919 -0.1138
  500DPPI   C3B 7809   0.531  13.712   9.001  0.0546  0.0288  0.1178
  500DPPI   C4B 7810   0.461  13.707   8.534 -0.1057  0.0183 -0.1152
  501DPPI    C1 7811   7.486   7.318  10.549  0.0488 -0.1457  0.0729
  501DPPI    C2 7812   7.296   6.998  10.696 -0.0433 -0.1058  0.0413
  501DPPI    C3 7813   7.380   7.307  10.935  0.1192 -0.1876  0.0912
  501DPPI   PO4 7814   7.326   7.279  10.247 -0.0959 -0.0673  0.1237
  501DPPI   GL1 7815   7.452   7.236   9.894 -0.1481  0.2333 -0.0918
  501DPPI   GL2 7816   7.792   7.215   9.798 -0.2075  0.1524  0.2562
  501DPPI   C1A 7817   7.227   7.180   9.576  0.1770 -0.1225  0.1730
  501DPPI   C2A 7818   7.402   7.178   9.067  0.0424  0.0738 -0.1928
  501DPPI   C3A 7819   7.313   7.214   8.642 -0.0616 -0.2762  0.1044
  501DPPI   C4A 7820   7.470   7.041   8.319 -0.1155  0.0584 -0.0631
  501DPPI   C1B 7821   7.823   7.416   9.338 -0.0061 -0.2295 -0.1901
  501DPPI   C2B 7822   7.866   7.395   8.937  0.1482 -0.0401  0.0401
  501DPPI   C3B 7823   7.918   7.192   8.551 -0.1720 -0.2833 -0.2491
  501DPPI   C4B 7824   7.964   7.242   8.139 -0.1580 -0.0230  0.0365
  502DPPI    C1 7825   0.909   2.016  10.619  0.2265 -0.0014 -0.0326
  502DPPI    C2 7826   0.644   1.766  10.783  0.1496 -0.1025 -0.3057
  502DPPI    C3 7827   0.812   2.053  11.005 -0.2167 -0.0125 -0.1383
  502DPPI   PO4 7828   0.893   1.883  10.396 -0.1983  0.0605 -0.2604
  502DPPI   GL1 7829   1.224   1.739  10.219 -0.0620  0.1871  0.2518
  502DPPI   GL2 7830   1.429   1.454  10.107  0.2867 -0.0982 -0.0395
  502DPPI   C1A 7831   1.267   1.835   9.828  0.0448  0.1200  0.1244
  502DPPI   C2A 7832   1.237   1.687   9.379 -0.0202  0.2780 -0.3479
  502DPPI   C3A 7833   1.226   1.528   8.977  0.2454 -0.0165 -0.5020
  502DPPI   C4A 7834   1.284   1.294   8.575  0.0429  0.0011 -0.3440
  502DPPI   C1B 7835   1.432   1.346   9.691 -0.1775  0.2617  0.0565
  502DPPI   C2B 7836   1.444   1.188   9.309 -0.1224 -0.1461 -0.1454
  502DPPI   C3B 7837   1.522   0.966   8.978  0.1058 -0.1119 -0.2008
  502DPPI   C4B 7838   1.700   1.083   8.616  0.1289  0.1407 -0.2393
  503DPPI    C1 7839   6.733  12.711  10.557 -0.0706  0.0867 -0.2380
  503DPPI    C2 7840   6.691  12.602  10.940  0.2954 -0.1113 -0.2504
  503DPPI    C3 7841   6.705  12.989  10.843 -0.2923 -0.0499 -0.1232
  503DPPI   PO4 7842   6.938  12.547  10.478 -0.4875  0.1845 -0.1246
  503DPPI   GL1 7843   7.035  12.342  10.046  0.0675  0.1314 -0.4202
  503DPPI   GL2 7844   7.010  12.028  10.113  0.1056 -0.0752 -0.0201
  503DPPI   C1A 7845   6.829  12.499   9.728 -0.0342  0.0594 -0.0566
  503DPPI   C2A 7846   6.490  12.181   9.595  0.0587 -0.0505 -0.2720
  503DPPI   C3A 7847   6.122  12.075   9.473 -0.1397 -0.0492  0.0609
  503DPPI   C4A 7848   6.088  12.008   9.094 -0.0093  0.2003 -0.1360
  503DPPI   C1B 7849   6.837  11.802   9.766  0.2205  0.4380  0.0639
  503DPPI   C2B 7850   6.888  11.781   9.305  0.2523 -0.0716 -0.3044
  503DPPI   C3B 7851   6.894  11.764   8.829 -0.0068 -0.0140 -0.0373
  503DPPI   C4B 7852   6.646  11.885   8.553 -0.1188 -0.1663 -0.5276
  504DPPI    C1 7853  16.537   6.403  10.377 -0.0744 -0.0251  0.0310
  504DPPI    C2 7854  16.814   6.614  10.572 -0.1283 -0.2054  0.3084
  504DPPI    C3 7855  16.477   6.507  10.758 -0.2506 -0.2479  0.0662
  504DPPI   PO4 7856  16.810   6.222  10.221  0.2603 -0.0759 -0.1783
  504DPPI   GL1 7857  16.905   5.998   9.952  0.4088 -0.1222  0.1219
  504DPPI   GL2 7858  17.139   6.149   9.793 -0.1242 -0.0374 -0.2463
  504DPPI   C1A 7859  16.839   5.973   9.439  0.1501  0.0053 -0.0417
  504DPPI   C2A 7860  16.948   5.979   9.070 -0.2990 -0.0419 -0.1522
  504DPPI   C3A 7861  16.900   5.893   8.628  0.2540 -0.1856 -0.1497
  504DPPI   C4A 7862  16.868   5.820   8.124 -0.0578 -0.0954  0.1790
  504DPPI   C1B 7863  17.229   6.305   9.371  0.2034  0.1592  0.0660
  504DPPI   C2B 7864  17.327   6.373   8.882  0.2629  0.0924  0.1940
  504DPPI   C3B 7865  17.291   6.480   8.424  0.3513 -0.0460 -0.0021
  504DPPI   C4B 7866  17.110   6.702   8.204 -0.0393  0.2095  0.2673
  505DPPI    C1 7867   2.234   6.161  10.574 -0.1273 -0.0596 -0.1967
  505DPPI    C2 7868   1.958   6.391  10.750  0.0978  0.1681 -0.1363
  505DPPI    C3 7869   1.978   6.001  10.837 -0.1675  0.1611 -0.0991
  505DPPI   PO4 7870   2.142   6.234  10.318 -0.0190  0.1430  0.3837
  505DPPI   GL1 7871   2.029   6.368   9.976  0.0749  0.2943 -0.1587
  505DPPI   GL2 7872   1.785   6.095   9.980 -0.0193 -0.1541  0.0280
  505DPPI   C1A 7873   1.983   6.435   9.475  0.2649  0.0691 -0.0885
  505DPPI   C2A 7874   1.952   6.613   9.056 -0.2572  0.0488 -0.1066
  505DPPI   C3A 7875   1.977   6.602   8.590  0.2398  0.1720 -0.2677
  505DPPI   C4A 7876   2.040   6.901   8.219 -0.0390 -0.1857 -0.1396
  505DPPI   C1B 7877   1.633   6.114   9.642  0.0123  0.0798  0.0423
  505DPPI   C2B 7878   1.610   6.208   9.242 -0.1008 -0.0053 -0.2328
  505DPPI   C3B 7879   1.553   6.336   8.837  0.1916 -0.3704  0.0280
  505DPPI   C4B 7880   1.544   6.433   8.312 -0.1721  0.1069 -0.0026
  506DPPI    C1 7881  10.958   1.457  10.799  0.3623  0.0873  0.0087
  506DPPI    C2 7882  11.119   1.148  10.995  0.0466  0.0282  0.1826
  506DPPI    C3 7883  10.988   1.466  11.198 -0.1046  0.0515  0.0504
  506DPPI   PO4 7884  10.757   1.231  10.582  0.2609  0.1910 -0.0707
  506DPPI   GL1 7885  10.488   1.279  10.253 -0.0921 -0.0336  0.1365
  506DPPI   GL2 7886  10.163   1.195  10.293 -0.1382  0.1446 -0.0667
  506DPPI   C1A 7887  10.701   1.224   9.892 -0.2254 -0.0034  0.0200
  506DPPI   C2A 7888  10.944   1.390   9.657  0.2495 -0.1001 -0.0822
  506DPPI   C3A 7889  10.955   1.455   9.223 -0.2281  0.0047  0.2054
  506DPPI   C4A 7890  11.012   1.396   8.760  0.1952  0.1545  0.2667
  506DPPI   C1B 7891   9.893   1.188   9.852 -0.1849  0.0356  0.3017
  506DPPI   C2B 7892   9.814   1.331   9.465 -0.1216 -0.0264  0.0401
  506DPPI   C3B 7893   9.758   1.375   9.029  0.2754  0.2570 -0.3257
  506DPPI   C4B 7894   9.795   1.415   8.626 -0.0773 -0.0464  0.1230
  507DPPI    C1 7895   4.689   9.208  10.455  0.1667  0.0910  0.0035
  507DPPI    C2 7896   4.502   9.343  10.782 -0.0901  0.1454 -0.1627
  507DPPI    C3 7897   4.895   9.268  10.793 -0.0923  0.1648  0.1511
  507DPPI   PO4 7898   4.624   9.309  10.268 -0.0770  0.1111 -0.2129
  507DPPI   GL1 7899   4.926   9.211   9.941  0.0971 -0.0486  0.1820
  507DPPI   GL2 7900   4.855   8.956   9.996  0.2174 -0.0621 -0.1742
  507DPPI   C1A 7901   4.705   9.258   9.554  0.2513 -0.1371 -0.0058
  507DPPI   C2A 7902   4.663   9.198   9.170  0.0474  0.2400  0.1183
  507DPPI   C3A 7903   4.749   9.254   8.724 -0.1172 -0.1978  0.0378
  507DPPI   C4A 7904   4.887   9.395   8.403  0.1131 -0.0278 -0.1936
  507DPPI   C1B 7905   5.002   8.797   9.665 -0.1352 -0.0609  0.0794
  507DPPI   C2B 7906   5.029   8.877   9.195 -0.1148  0.1992 -0.1846
  507DPPI   C3B 7907   5.144   8.990   8.704 -0.2204 -0.1049  0.1013
  507DPPI   C4B 7908   5.327   9.198   8.387 -0.1100 -0.0150  0.0690
  508DPPI    C1 7909   6.588   4.648  10.211  0.1096  0.1418  0.1513
  508DPPI    C2 7910   6.718   4.370  10.467  0.2423  0.0571 -0.0061
  508DPPI    C3 7911   6.888   4.732  10.462  0.1757  0.0901  0.0901
  508DPPI   PO4 7912   6.573   4.579   9.870 -0.0469  0.1664 -0.1902
  508DPPI   GL1 7913   6.500   4.732   9.519 -0.1895 -0.4297  0.0956
  508DPPI   GL2 7914   6.869   4.736   9.458 -0.0146  0.3785  0.1802
  508DPPI   C1A 7915   6.481   4.731   9.010 -0.0824  0.1996  0.4804
  508DPPI   C2A 7916   6.437   4.719   8.552 -0.0936 -0.1586 -0.2463
  508DPPI   C3A 7917   6.414   4.756   8.179  0.0711 -0.2825  0.0358
  508DPPI   C4A 7918   6.377   4.759   7.655  0.1411  0.0116  0.1786
  508DPPI   C1B 7919   7.057   4.790   9.063  0.2944  0.0218  0.0508
  508DPPI   C2B 7920   6.931   4.989   8.580 -0.1065 -0.1410 -0.1344
  508DPPI   C3B 7921   6.742   5.097   8.256 -0.0568 -0.2253 -0.3193
  508DPPI   C4B 7922   6.681   5.545   8.118 -0.1766  0.1998 -0.0560
  509DPPI    C1 7923  16.407  16.790  10.937 -0.0756 -0.0972 -0.2467
  509DPPI    C2 7924  16.631  16.520  10.746  0.0751  0.0618 -0.2976
  509DPPI    C3 7925  16.559  16.479  11.137  0.3224  0.0907 -0.2477
  509DPPI   PO4 7926  16.272  16.859  10.764 -0.1400 -0.1341 -0.1281
  509DPPI   GL1 7927  16.249  16.707  10.405 -0.1834 -0.0065  0.0697
  509DPPI   GL2 7928  16.413  16.816  10.249 -0.0871  0.0205 -0.2945
  509DPPI   C1A 7929  15.952  16.888  10.049 -0.1483  0.2302 -0.1961
  509DPPI   C2A 7930  15.595  16.892   9.893 -0.1826 -0.2637 -0.1939
  509DPPI   C3A 7931  15.346  17.041   9.483 -0.0631 -0.1033 -0.1943
  509DPPI   C4A 7932  15.462  17.109   8.994 -0.2538  0.0031 -0.0439
  509DPPI   C1B 7933  16.496  16.861   9.839 -0.1069 -0.2272 -0.0671
  509DPPI   C2B 7934  16.349  16.974   9.427 -0.2568 -0.0821 -0.1305
  509DPPI   C3B 7935  16.213  17.009   8.940  0.0784 -0.0426  0.3089
  509DPPI   C4B 7936  15.883  17.159   8.630  0.2302 -0.1050  0.3278
  510DPPI    C1 7937   5.758   3.968  10.640 -0.1792  0.1299 -0.2707
  510DPPI    C2 7938   5.616   4.311  10.790 -0.0674  0.1009 -0.0953
  510DPPI    C3 7939   5.410   3.971  10.838  0.0455  0.0631  0.1388
  510DPPI   PO4 7940   5.895   4.058  10.427 -0.0633  0.0687 -0.0785
  510DPPI   GL1 7941   5.781   4.210   9.993  0.1940  0.3496  0.2350
  510DPPI   GL2 7942   5.588   3.914   9.903  0.1629  0.2023 -0.2029
  510DPPI   C1A 7943   5.695   4.273   9.493 -0.2734  0.0114  0.0794
  510DPPI   C2A 7944   5.710   4.225   9.036 -0.0480 -0.1401  0.0591
  510DPPI   C3A 7945   5.583   4.254   8.595  0.1620 -0.1249  0.0313
  510DPPI   C4A 7946   5.678   4.044   8.173  0.0296 -0.2885 -0.2186
  510DPPI   C1B 7947   5.433   3.885   9.525 -0.2650 -0.0087  0.2296
  510DPPI   C2B 7948   5.302   3.944   9.120 -0.1020 -0.2185  0.2146
  510DPPI   C3B 7949   4.995   3.895   8.794 -0.0844  0.1270 -0.0990
  510DPPI   C4B 7950   4.776   3.600   8.761  0.2010  0.2002  0.2805
  511DPPI    C1 7951   3.854   6.864  10.489 -0.1300  0.0302 -0.0486
  511DPPI    C2 7952   3.774   6.500  10.346  0.0240 -0.0631  0.0987
  511DPPI    C3 7953   3.592   6.628  10.678 -0.0583  0.0093  0.0258
  511DPPI   PO4 7954   4.042   6.940  10.177  0.1902  0.1389 -0.2778
  511DPPI   GL1 7955   4.193   7.257   9.872 -0.3248 -0.0487 -0.2635
  511DPPI   GL2 7956   4.538   7.415  10.038  0.0605  0.2306  0.1667
  511DPPI   C1A 7957   4.263   7.453   9.551  0.1263 -0.2027  0.0569
  511DPPI   C2A 7958   4.249   7.437   9.126 -0.1677 -0.2014 -0.3336
  511DPPI   C3A 7959   4.254   7.546   8.698  0.0111  0.2921 -0.2784
  511DPPI   C4A 7960   4.545   7.512   8.380  0.1890  0.1808 -0.0181
  511DPPI   C1B 7961   4.775   7.509   9.695 -0.1797  0.2149 -0.1298
  511DPPI   C2B 7962   4.818   7.403   9.273  0.0641 -0.4640 -0.1964
  511DPPI   C3B 7963   5.002   7.089   9.073  0.0633 -0.1931  0.1376
  511DPPI   C4B 7964   4.949   6.776   8.835 -0.1050 -0.1654 -0.1434
  512DPPI    C1 7965  12.495   7.096  10.836 -0.0172  0.2794 -0.0655
  512DPPI    C2 7966  12.378   7.081  11.219 -0.0698  0.0113 -0.0901
  512DPPI    C3 7967  12.767   7.060  11.128 -0.0620  0.0043 -0.0556
  512DPPI   PO4 7968  12.278   7.313  10.746 -0.0172 -0.5305  0.0051
  512DPPI   GL1 7969  12.118   7.262  10.312 -0.1755  0.0024 -0.4962
  512DPPI   GL2 7970  12.142   7.027  10.169 -0.3458 -0.0415  0.0353
  512DPPI   C1A 7971  12.108   7.460   9.886  0.1126  0.1157  0.0089
  512DPPI   C2A 7972  11.935   7.560   9.584  0.1461 -0.0642  0.0155
  512DPPI   C3A 7973  12.076   7.476   9.194  0.0204 -0.4888 -0.0274
  512DPPI   C4A 7974  11.853   7.342   8.913 -0.1745 -0.1310  0.0054
  512DPPI   C1B 7975  12.140   6.958   9.751 -0.0458  0.1969 -0.1476
  512DPPI   C2B 7976  12.193   6.986   9.285  0.2435  0.2373  0.1364
  512DPPI   C3B 7977  12.232   7.019   8.868  0.0355 -0.0620 -0.0728
  512DPPI   C4B 7978  11.976   7.025   8.559  0.1243  0.1463 -0.2555
  513PYPI    C1 7979   0.104   1.598  10.647 -0.0185 -0.0838  0.0982
  513PYPI    C2 7980  -0.146   1.829  10.857  0.1274 -0.0268  0.2116
  513PYPI    C3 7981  -0.086   1.449  10.966 -0.0941 -0.1139  0.0394
  513PYPI   PO4 7982   0.024   1.606  10.404 -0.0480 -0.0555 -0.0768
  513PYPI   GL1 7983   0.128   1.726  10.011 -0.1047  0.1183 -0.1227
  513PYPI   GL2 7984  -0.131   1.886   9.920  0.0730  0.0593  0.2255
  513PYPI   C1A 7985   0.283   1.691   9.582  0.2216  0.1842 -0.0711
  513PYPI   C2A 7986   0.381   1.602   9.125 -0.5343 -0.0436 -0.0745
  513PYPI   D3A 7987   0.473   1.564   8.698 -0.1129 -0.0445  0.2126
  513PYPI   C4A 7988   0.876   1.617   8.562 -0.1499  0.2256  0.2703
  513PYPI   C1B 7989  -0.210   1.987   9.473 -0.0420  0.1124 -0.0453
  513PYPI   C2B 7990  -0.133   1.876   9.074 -0.1988 -0.1222  0.0938
  513PYPI   C3B 7991   0.007   1.762   8.732 -0.2564  0.0426 -0.1737
  513PYPI   C4B 7992   0.150   1.580   8.330 -0.3650 -0.3789  0.0480
  514PYPI    C1 7993   3.468  15.953  10.693 -0.1554  0.1498  0.0784
  514PYPI    C2 7994   3.114  15.943  10.878 -0.2012  0.2862 -0.0002
  514PYPI    C3 7995   3.451  15.897  11.089 -0.2751 -0.1364  0.0352
  514PYPI   PO4 7996   3.396  15.769  10.464 -0.0305  0.2106  0.0997
  514PYPI   GL1 7997   3.321  15.942  10.072  0.3281  0.3192 -0.0328
  514PYPI   GL2 7998   3.649  15.730  10.049  0.3147  0.1467  0.2618
  514PYPI   C1A 7999   3.210  15.983   9.625  0.2452  0.2399  0.0215
  514PYPI   C2A 8000   3.317  15.967   9.204 -0.1098 -0.1989  0.0132
  514PYPI   D3A 8001   3.528  16.042   8.777 -0.0187 -0.1945 -0.0938
  514PYPI   C4A 8002   3.984  15.987   8.593 -0.0450 -0.2358  0.2803
  514PYPI   C1B 8003   3.689  15.860   9.610  0.0385  0.3279  0.3377
  514PYPI   C2B 8004   3.863  15.904   9.150 -0.0171  0.0053 -0.1226
  514PYPI   C3B 8005   4.268  15.752   8.960 -0.1211 -0.0320 -0.1974
  514PYPI   C4B 8006   4.578  15.888   8.711  0.0462 -0.0359  0.1076
  515PYPI    C1 8007   3.964  14.065  10.972  0.0556 -0.1297 -0.0427
  515PYPI    C2 8008   4.296  14.259  11.081 -0.1368  0.2494 -0.1169
  515PYPI    C3 8009   3.945  14.355  11.247 -0.1880 -0.2728  0.0951
  515PYPI   PO4 8010   4.062  14.049  10.631 -0.1321 -0.0702  0.1539
  515PYPI   GL1 8011   3.979  14.068  10.154 -0.0401 -0.3509 -0.2196
  515PYPI   GL2 8012   4.245  14.066   9.982  0.1138  0.0278 -0.1775
  515PYPI   C1A 8013   3.800  13.895   9.785  0.2795 -0.0370  0.4045
  515PYPI   C2A 8014   3.949  14.007   9.366 -0.0265 -0.0149  0.0248
  515PYPI   D3A 8015   3.984  14.059   9.006 -0.2802  0.0337 -0.1004
  515PYPI   C4A 8016   3.772  14.054   8.736 -0.1852  0.0545  0.4216
  515PYPI   C1B 8017   4.092  14.378   9.719 -0.0232 -0.1499  0.1541
  515PYPI   C2B 8018   3.729  14.445   9.608 -0.0136  0.0500  0.1959
  515PYPI   C3B 8019   3.800  14.478   9.211  0.3329 -0.2137  0.0205
  515PYPI   C4B 8020   3.718  14.568   8.858 -0.2570  0.2461  0.0470
  516PYPI    C1 8021   1.986  12.618  11.323  0.1089  0.0608  0.2436
  516PYPI    C2 8022   1.790  12.310  11.486  0.0425  0.0513  0.1474
  516PYPI    C3 8023   1.747  12.678  11.637 -0.0727  0.0540  0.1083
  516PYPI   PO4 8024   1.990  12.479  11.039  0.0338  0.2390 -0.0195
  516PYPI   GL1 8025   2.175  12.518  10.624  0.1161 -0.1385  0.0015
  516PYPI   GL2 8026   2.194  12.201  10.655 -0.0815  0.0011 -0.1945
  516PYPI   C1A 8027   1.974  12.786  10.377  0.3625  0.1607  0.1593
  516PYPI   C2A 8028   1.637  12.925  10.177 -0.1066 -0.0922 -0.2015
  516PYPI   D3A 8029   1.453  13.286   9.894  0.2279 -0.3769  0.0117
  516PYPI   C4A 8030   1.170  13.246   9.537 -0.2269  0.0280  0.0583
  516PYPI   C1B 8031   1.847  12.265  10.304  0.1114 -0.0176  0.2978
  516PYPI   C2B 8032   1.584  12.374   9.920 -0.1485 -0.1224  0.3718
  516PYPI   C3B 8033   1.757  12.224   9.536 -0.0820  0.0219 -0.3683
  516PYPI   C4B 8034   1.915  12.007   9.329  0.3110  0.1565 -0.1792
  517PYPI    C1 8035  17.435  17.435  10.977  0.0840 -0.1462  0.0477
  517PYPI    C2 8036  17.128  17.524  11.217  0.0719  0.0526 -0.0398
  517PYPI    C3 8037  17.503  17.603  11.333  0.0961 -0.2392  0.0895
  517PYPI   PO4 8038  17.398  17.541  10.717  0.2041  0.0201  0.2356
  517PYPI   GL1 8039  17.464  17.490  10.300  0.0822 -0.1262  0.2789
  517PYPI   GL2 8040  17.718  17.626  10.195 -0.1301  0.0813 -0.0773
  517PYPI   C1A 8041  17.284  17.499   9.862  0.3098 -0.4115  0.0079
  517PYPI   C2A 8042  17.064  17.512   9.464  0.2289 -0.0931  0.1377
  517PYPI   D3A 8043  17.114  17.579   9.019 -0.0449  0.2882 -0.4513
  517PYPI   C4A 8044  17.221  17.237   8.983  0.0005  0.1468  0.5486
  517PYPI   C1B 8045  17.786  17.562   9.817 -0.2230 -0.2642  0.0108
  517PYPI   C2B 8046  17.959  17.439   9.427  0.2910 -0.0549 -0.2456
  517PYPI   C3B 8047  17.963  17.177   9.109 -0.4586 -0.0346 -0.2159
  517PYPI   C4B 8048  18.017  17.145   8.653 -0.1474 -0.2589  0.0762
  518PYPI    C1 8049   3.099   6.606  10.696 -0.0871 -0.1138 -0.0533
  518PYPI    C2 8050   2.813   6.352  10.816 -0.0298 -0.1646 -0.0233
  518PYPI    C3 8051   3.024   6.559  11.086 -0.0668 -0.0952 -0.0472
  518PYPI   PO4 8052   3.136   6.436  10.457  0.0835 -0.1538  0.0649
  518PYPI   GL1 8053   3.515   6.374   9.947  0.1293 -0.1874 -0.3535
  518PYPI   GL2 8054   3.594   6.156   9.656 -0.1211 -0.1210 -0.1328
  518PYPI   C1A 8055   3.300   6.546   9.645 -0.1842  0.2044  0.2000
  518PYPI   C2A 8056   3.515   6.562   9.239  0.0355 -0.0661  0.0613
  518PYPI   D3A 8057   3.375   6.468   8.825 -0.1830 -0.0803 -0.0293
  518PYPI   C4A 8058   3.366   6.812   8.379  0.3036  0.0192 -0.1367
  518PYPI   C1B 8059   3.439   6.046   9.236 -0.1665 -0.1757 -0.0679
  518PYPI   C2B 8060   3.514   5.996   8.770  0.3774  0.2619 -0.1350
  518PYPI   C3B 8061   3.698   6.169   8.447 -0.1142  0.2112  0.0340
  518PYPI   C4B 8062   4.088   6.334   8.323 -0.1004  0.0354  0.2390
  519PYPI    C1 8063   0.142  15.328  11.032  0.0762 -0.1791  0.0517
  519PYPI    C2 8064  -0.133  15.338  11.321 -0.0281 -0.0246 -0.0509
  519PYPI    C3 8065  -0.186  15.101  11.003  0.0109 -0.0768 -0.0187
  519PYPI   PO4 8066   0.292  15.523  10.946 -0.1768  0.2419  0.1728
  519PYPI   GL1 8067   0.361  15.524  10.477 -0.0353 -0.0899  0.1036
  519PYPI   GL2 8068   0.010  15.641  10.431  0.1415 -0.3235 -0.1634
  519PYPI   C1A 8069   0.584  15.228  10.119  0.0530 -0.0879 -0.1407
  519PYPI   C2A 8070   0.762  15.186   9.699  0.0696  0.2019 -0.0508
  519PYPI   D3A 8071   1.115  15.196   9.340  0.0776 -0.1177  0.0472
  519PYPI   C4A 8072   0.933  15.061   8.905  0.2228 -0.0575  0.1222
  519PYPI   C1B 8073   0.144  15.579  10.020  0.1721 -0.0453  0.0580
  519PYPI   C2B 8074   0.332  15.390   9.695  0.0351 -0.0952 -0.0984
  519PYPI   C3B 8075   0.564  15.429   9.356 -0.1025 -0.2333  0.0209
  519PYPI   C4B 8076   0.579  15.608   9.023  0.1577  0.3633  0.1185
  520PYPI    C1 8077  12.670   6.532  10.484  0.1053  0.0442  0.0643
  520PYPI    C2 8078  12.910   6.622  10.791 -0.0770  0.1954  0.1640
  520PYPI    C3 8079  12.703   6.280  10.793  0.0407  0.1235  0.1362
  520PYPI   PO4 8080  12.597   6.740  10.428 -0.0609 -0.2295 -0.1461
  520PYPI   GL1 8081  12.729   6.752   9.956  0.0000 -0.2017 -0.0579
  520PYPI   GL2 8082  12.429   6.573  10.017 -0.2534  0.1044  0.3640
  520PYPI   C1A 8083  12.791   6.818   9.574 -0.0911 -0.3521  0.0567
  520PYPI   C2A 8084  12.683   6.851   9.278 -0.3415 -0.2083  0.0412
  520PYPI   D3A 8085  12.729   6.847   8.800  0.2882  0.1258 -0.1296
  520PYPI   C4A 8086  12.459   6.919   8.421 -0.0537  0.2794  0.2535
  520PYPI   C1B 8087  12.287   6.501   9.627  0.0408 -0.0730  0.0150
  520PYPI   C2B 8088  12.221   6.461   9.115 -0.1315 -0.0826 -0.2824
  520PYPI   C3B 8089  12.151   6.510   8.652  0.1845 -0.0424 -0.3609
  520PYPI   C4B 8090  12.083   6.641   8.149  0.0495 -0.0722 -0.1850
  521PYPI    C1 8091   4.065   1.561  10.431  0.0201 -0.2074  0.2286
  521PYPI    C2 8092   4.437   1.613  10.567 -0.0499 -0.1485  0.4009
  521PYPI    C3 8093   4.127   1.645  10.817 -0.1934  0.1358  0.1932
  521PYPI   PO4 8094   4.064   1.583  10.096  0.2047 -0.0303  0.0521
  521PYPI   GL1 8095   3.943   1.367   9.799  0.2171  0.0662 -0.0194
  521PYPI   GL2 8096   4.198   1.048   9.801  0.4903  0.2000 -0.0687
  521PYPI   C1A 8097   3.989   1.327   9.403 -0.0959  0.0006 -0.2590
  521PYPI   C2A 8098   4.130   1.397   9.070  0.0010 -0.0321  0.5498
  521PYPI   D3A 8099   3.953   1.263   8.632  0.1684  0.0741  0.1683
  521PYPI   C4A 8100   4.093   1.100   8.255 -0.0307 -0.0155 -0.0134
  521PYPI   C1B 8101   4.112   0.677   9.610  0.0920  0.2782  0.1653
  521PYPI   C2B 8102   3.893   0.436   9.305 -0.0828 -0.1857  0.0427
  521PYPI   C3B 8103   3.788   0.370   8.866 -0.1558 -0.1312  0.1042
  521PYPI   C4B 8104   3.881   0.302   8.508 -0.2308 -0.0323  0.1762
  522PYPI    C1 8105  16.330   6.952  10.273 -0.0887 -0.0533  0.1044
  522PYPI    C2 8106  16.406   6.973  10.665  0.1133  0.0354  0.0618
  522PYPI    C3 8107  16.139   6.709  10.527  0.0336  0.0111  0.2593
  522PYPI   PO4 8108  16.547   6.865  10.107  0.0173  0.1306 -0.1971
  522PYPI   GL1 8109  16.976   6.760   9.914  0.1970  0.0543  0.0661
  522PYPI   GL2 8110  16.758   6.571   9.786 -0.2728  0.1627 -0.1587
  522PYPI   C1A 8111  17.274   6.770   9.569  0.3017 -0.0793  0.1594
  522PYPI   C2A 8112  17.378   6.768   9.216 -0.2525  0.3994 -0.0089
  522PYPI   D3A 8113  17.574   6.798   8.787 -0.0103 -0.0913 -0.0675
  522PYPI   C4A 8114  17.949   6.936   8.637 -0.0544 -0.0040  0.0531
  522PYPI   C1B 8115  16.760   6.563   9.385 -0.0064  0.0274  0.0958
  522PYPI   C2B 8116  16.861   6.460   8.999  0.0167 -0.3329 -0.4246
  522PYPI   C3B 8117  16.793   6.384   8.690  0.1430  0.1178 -0.0264
  522PYPI   C4B 8118  16.833   6.296   8.291 -0.0474  0.0813 -0.0709
  523PYPI    C1 8119   0.966  13.602  11.164 -0.0027 -0.1739 -0.1787
  523PYPI    C2 8120   1.247  13.829  11.335 -0.2818  0.0420  0.0026
  523PYPI    C3 8121   1.008  13.602  11.562 -0.1673 -0.2460 -0.1603
  523PYPI   PO4 8122   0.812  13.796  11.029 -0.0799 -0.3766  0.0179
  523PYPI   GL1 8123   0.840  14.010  10.691 -0.1376 -0.0765  0.0283
  523PYPI   GL2 8124   0.523  14.171  10.554  0.4403 -0.0507 -0.0978
  523PYPI   C1A 8125   1.169  14.015  10.409 -0.0333 -0.0281 -0.5019
  523PYPI   C2A 8126   1.304  13.881   9.989 -0.1156 -0.0909 -0.0559
  523PYPI   D3A 8127   1.282  13.906   9.505 -0.1358  0.5559  0.0773
  523PYPI   C4A 8128   0.930  13.727   9.346 -0.2195  0.1001 -0.1475
  523PYPI   C1B 8129   0.677  14.204  10.237  0.0911  0.0626  0.0806
  523PYPI   C2B 8130   0.789  13.957   9.971  0.3539 -0.1526  0.2383
  523PYPI   C3B 8131   0.969  13.524   9.891  0.2715 -0.1886 -0.2086
  523PYPI   C4B 8132   0.790  13.183   9.992  0.2351  0.4075  0.1240
  524PYPI    C1 8133  15.054   5.776  10.692  0.1532  0.0040  0.1747
  524PYPI    C2 8134  15.207   5.421  10.797  0.0100 -0.0752  0.1177
  524PYPI    C3 8135  15.424   5.754  10.844 -0.0493 -0.1049  0.6738
  524PYPI   PO4 8136  14.934   5.809  10.408  0.0728  0.1952  0.0674
  524PYPI   GL1 8137  15.018   6.043  10.095 -0.1011 -0.1873  0.1601
  524PYPI   GL2 8138  15.008   6.328   9.977  0.0299 -0.4410  0.0959
  524PYPI   C1A 8139  14.575   6.191   9.890  0.1471 -0.2427 -0.1243
  524PYPI   C2A 8140  14.414   5.910   9.639  0.2263  0.1054  0.0490
  524PYPI   D3A 8141  14.304   5.801   9.286  0.0866 -0.0421 -0.4179
  524PYPI   C4A 8142  14.157   5.419   9.231  0.0241 -0.2988 -0.0825
  524PYPI   C1B 8143  14.955   6.392   9.535 -0.0548  0.0336 -0.2353
  524PYPI   C2B 8144  14.948   6.601   9.081  0.1728 -0.2732  0.0693
  524PYPI   C3B 8145  15.089   6.581   8.661 -0.1032  0.0596 -0.0500
  524PYPI   C4B 8146  15.267   6.581   8.213 -0.0785 -0.1084  0.0699
  525PYPI    C1 8147  16.203   7.515  10.782  0.0211 -0.0468  0.0869
  525PYPI    C2 8148  16.584   7.429  10.866 -0.0541 -0.2312  0.2482
  525PYPI    C3 8149  16.356   7.613  11.138 -0.0325  0.0401  0.0862
  525PYPI   PO4 8150  16.218   7.395  10.476 -0.1288 -0.3549 -0.0575
  525PYPI   GL1 8151  16.426   7.414  10.103 -0.1897 -0.1908 -0.1541
  525PYPI   GL2 8152  16.640   7.712  10.015  0.0278  0.1561  0.2103
  525PYPI   C1A 8153  16.336   7.470   9.577 -0.1537 -0.3318  0.1135
  525PYPI   C2A 8154  16.330   7.120   9.403 -0.0253 -0.2294 -0.5064
  525PYPI   D3A 8155  16.472   7.129   8.970  0.1478  0.0028 -0.0550
  525PYPI   C4A 8156  16.481   6.799   8.917 -0.0723  0.0767 -0.0001
  525PYPI   C1B 8157  16.747   7.765   9.723  0.0480 -0.0528  0.1798
  525PYPI   C2B 8158  16.660   7.763   9.240  0.0994 -0.2584 -0.0666
  525PYPI   C3B 8159  16.588   7.568   8.903 -0.0723  0.2170 -0.1045
  525PYPI   C4B 8160  16.774   7.353   8.604  0.0267 -0.1554 -0.1888
  526PYPI    C1 8161  17.005  15.783  10.886  0.1440  0.0711  0.0084
  526PYPI    C2 8162  17.382  15.909  10.930  0.0640  0.2619  0.1622
  526PYPI    C3 8163  17.184  15.758  11.243  0.0452  0.0687  0.0583
  526PYPI   PO4 8164  16.944  15.651  10.743 -0.0262 -0.3521 -0.3967
  526PYPI   GL1 8165  16.739  15.648  10.424  0.4078  0.2351  0.0371
  526PYPI   GL2 8166  16.506  15.648  10.508 -0.1610  0.1163  0.1076
  526PYPI   C1A 8167  16.859  15.448  10.138 -0.3574 -0.1706  0.1679
  526PYPI   C2A 8168  16.831  15.476   9.731  0.1909  0.2392 -0.0248
  526PYPI   D3A 8169  16.901  15.654   9.243 -0.2544  0.3223  0.2429
  526PYPI   C4A 8170  16.554  15.401   9.024  0.1887  0.2992 -0.3630
  526PYPI   C1B 8171  16.261  15.484  10.157 -0.0822  0.4900  0.1369
  526PYPI   C2B 8172  16.312  15.493   9.804  0.0565 -0.0500  0.2076
  526PYPI   C3B 8173  16.239  15.361   9.441  0.0518  0.2099  0.1634
  526PYPI   C4B 8174  16.179  15.053   9.174 -0.2827  0.2286 -0.1347
  527PYPI    C1 8175   4.719   6.006  10.399  0.0990 -0.0484 -0.1191
  527PYPI    C2 8176   4.327   6.019  10.473  0.1161  0.3713 -0.0781
  527PYPI    C3 8177   4.586   5.977  10.775  0.0980 -0.2047 -0.1306
  527PYPI   PO4 8178   4.864   6.131  10.252  0.1897 -0.2509 -0.0246
  527PYPI   GL1 8179   4.958   6.255   9.923 -0.1353  0.2182  0.2271
  527PYPI   GL2 8180   5.256   6.026   9.906  0.1375 -0.0919 -0.1351
  527PYPI   C1A 8181   4.766   6.134   9.633  0.1655  0.2438  0.1088
  527PYPI   C2A 8182   4.692   5.971   9.308 -0.2236 -0.0102  0.0651
  527PYPI   D3A 8183   4.346   5.996   9.132 -0.2692  0.1997  0.1966
  527PYPI   C4A 8184   4.192   6.080   8.719 -0.0608 -0.0119  0.2564
  527PYPI   C1B 8185   5.277   6.116   9.439 -0.0099 -0.0173  0.1999
  527PYPI   C2B 8186   5.093   6.019   8.986 -0.2782 -0.3147  0.0360
  527PYPI   C3B 8187   4.728   5.797   8.780  0.0196 -0.0525  0.0463
  527PYPI   C4B 8188   4.766   5.620   8.414 -0.1026 -0.0536  0.1309
  528PYPI    C1 8189   0.879  14.614  10.714  0.1786 -0.3597 -0.2110
  528PYPI    C2 8190   0.844  14.715  11.099 -0.1958 -0.1138 -0.3043
  528PYPI    C3 8191   0.968  14.348  10.999 -0.0403 -0.1613  0.0471
  528PYPI   PO4 8192   1.055  14.823  10.618 -0.1090 -0.1777  0.1880
  528PYPI   GL1 8193   1.225  14.894  10.162 -0.3562  0.2109 -0.0219
  528PYPI   GL2 8194   1.033  14.563  10.152  0.1223 -0.0749  0.2913
  528PYPI   C1A 8195   1.164  14.907   9.756 -0.2044 -0.0782  0.2886
  528PYPI   C2A 8196   1.076  14.697   9.398 -0.2077  0.2800 -0.2524
  528PYPI   D3A 8197   0.687  14.659   9.042 -0.3127  0.0927  0.1039
  528PYPI   C4A 8198   0.605  14.594   8.628  0.0544  0.0253 -0.0133
  528PYPI   C1B 8199   0.860  14.374   9.717 -0.2912 -0.5281 -0.5650
  528PYPI   C2B 8200   0.715  14.226   9.374  0.2205 -0.1740  0.0328
  528PYPI   C3B 8201   0.475  14.157   8.977 -0.0832  0.0924  0.0695
  528PYPI   C4B 8202   0.306  14.228   8.548 -0.1343 -0.0645  0.1056
  529PYPI    C1 8203  17.686   0.771  10.693 -0.0109  0.0871 -0.1389
  529PYPI    C2 8204  17.711   1.036  10.991 -0.1369  0.0877 -0.1284
  529PYPI    C3 8205  17.751   0.646  11.067 -0.3972  0.0702 -0.0734
  529PYPI   PO4 8206  17.339   0.940  10.496  0.0426  0.0741  0.2295
  529PYPI   GL1 8207  17.252   1.141  10.140  0.1302  0.1099  0.0810
  529PYPI   GL2 8208  16.918   1.071  10.231 -0.1517 -0.1790  0.3631
  529PYPI   C1A 8209  17.484   1.077   9.754  0.1005 -0.1692 -0.0521
  529PYPI   C2A 8210  17.461   1.163   9.193 -0.0498 -0.2532 -0.5216
  529PYPI   D3A 8211  17.513   1.231   8.769  0.1038  0.2059  0.1164
  529PYPI   C4A 8212  17.813   1.514   8.469 -0.0156 -0.2496  0.0212
  529PYPI   C1B 8213  16.934   1.106   9.771 -0.2283  0.1076 -0.0997
  529PYPI   C2B 8214  16.959   1.105   9.389  0.0747 -0.0195  0.3966
  529PYPI   C3B 8215  17.009   0.847   9.046  0.0333  0.1601 -0.1426
  529PYPI   C4B 8216  16.896   0.428   8.663 -0.0084 -0.1458 -0.0806
  530PYPI    C1 8217  11.827   0.125  10.955  0.0125  0.1116 -0.0064
  530PYPI    C2 8218  12.017   0.154  10.604  0.0623  0.1491  0.0232
  530PYPI    C3 8219  12.221   0.056  10.934 -0.0244 -0.1080  0.0028
  530PYPI   PO4 8220  11.609   0.185  10.872 -0.0822 -0.0035  0.0059
  530PYPI   GL1 8221  11.517   0.167  10.444  0.0638  0.1617 -0.1481
  530PYPI   GL2 8222  11.231   0.086  10.264 -0.0474  0.1313 -0.1080
  530PYPI   C1A 8223  11.868   0.187  10.145 -0.0261 -0.1935 -0.0818
  530PYPI   C2A 8224  11.972   0.246   9.846 -0.0231  0.0713  0.1971
  530PYPI   D3A 8225  11.824   0.003   9.488 -0.0425 -0.0551 -0.0421
  530PYPI   C4A 8226  11.806   0.152   9.072 -0.4152 -0.0082  0.0035
  530PYPI   C1B 8227  11.039   0.319   9.932  0.2747  0.0369  0.3528
  530PYPI   C2B 8228  11.108   0.488   9.452 -0.0054  0.0708 -0.1737
  530PYPI   C3B 8229  11.098   0.558   9.049 -0.2069 -0.2396  0.3548
  530PYPI   C4B 8230  10.905   0.334   8.620  0.1046 -0.0763 -0.1379
  531PYPI    C1 8231   7.883   2.673  10.018 -0.1551 -0.1144  0.0930
  531PYPI    C2 8232   7.839   3.064   9.944  0.0033 -0.0910  0.1186
  531PYPI    C3 8233   7.695   2.907  10.283  0.1458 -0.0092  0.2179
  531PYPI   PO4 8234   8.120   2.578   9.875 -0.1919 -0.0981  0.0463
  531PYPI   GL1 8235   8.208   2.108   9.872  0.0555  0.0592  0.2484
  531PYPI   GL2 8236   8.161   1.866   9.804 -0.3928 -0.1246 -0.0168
  531PYPI   C1A 8237   8.346   2.128   9.415 -0.1861 -0.2056 -0.0714
  531PYPI   C2A 8238   8.576   2.166   9.015 -0.0042 -0.0708 -0.0650
  531PYPI   D3A 8239   8.551   1.896   8.613 -0.0621  0.1279 -0.0749
  531PYPI   C4A 8240   8.728   1.686   8.268  0.1878 -0.2758  0.2737
  531PYPI   C1B 8241   7.995   1.821   9.366  0.0326  0.1953  0.0306
  531PYPI   C2B 8242   7.994   1.662   8.894  0.0339  0.3295  0.1066
  531PYPI   C3B 8243   7.998   1.840   8.503 -0.0339 -0.0614  0.1258
  531PYPI   C4B 8244   8.162   2.117   8.212  0.0768 -0.0185 -0.0173
  532PYPI    C1 8245  17.245   5.511  10.326  0.1542  0.0357 -0.1207
  532PYPI    C2 8246  17.228   5.648  10.702 -0.1015  0.1609 -0.1753
  532PYPI    C3 8247  17.238   5.905  10.396  0.4959  0.0672 -0.2467
  532PYPI   PO4 8248  17.433   5.199  10.361  0.1906 -0.1087  0.1152
  532PYPI   GL1 8249  17.670   4.981  10.006  0.0657  0.2407 -0.0204
  532PYPI   GL2 8250  17.448   4.910   9.822  0.0992 -0.2273 -0.2868
  532PYPI   C1A 8251  17.932   5.111   9.637 -0.0527  0.0876  0.0058
  532PYPI   C2A 8252  17.999   5.173   9.215  0.0104 -0.2224 -0.0910
  532PYPI   D3A 8253  18.045   5.407   8.768 -0.0495  0.0951 -0.2163
  532PYPI   C4A 8254  17.873   5.156   8.493  0.0670 -0.2933 -0.0383
  532PYPI   C1B 8255  17.174   5.015   9.580 -0.0965 -0.0677 -0.0906
  532PYPI   C2B 8256  17.278   4.952   9.218  0.1724 -0.1183 -0.0542
  532PYPI   C3B 8257  17.336   5.015   8.787 -0.0820  0.3337  0.2224
  532PYPI   C4B 8258  17.389   4.952   8.334  0.1954 -0.3592 -0.3448
  533PYPI    C1 8259  17.096   7.600  10.269  0.0834  0.0340 -0.1194
  533PYPI    C2 8260  17.135   7.529  10.661  0.2812  0.1240 -0.1216
  533PYPI    C3 8261  16.818   7.733  10.525  0.1153 -0.0695 -0.0306
  533PYPI   PO4 8262  17.252   7.369  10.120 -0.0166  0.0057  0.1362
  533PYPI   GL1 8263  17.273   7.248   9.716  0.1364  0.1646 -0.0531
  533PYPI   GL2 8264  17.165   7.554   9.680  0.0012  0.1313  0.0581
  533PYPI   C1A 8265  17.606   7.392   9.447  0.0989 -0.2525  0.2201
  533PYPI   C2A 8266  18.040   7.501   9.380  0.0520  0.1177 -0.0377
  533PYPI   D3A 8267  18.395   7.507   9.411 -0.1640  0.0424  0.4400
  533PYPI   C4A 8268  18.625   7.636   9.762 -0.0761  0.0037 -0.0893
  533PYPI   C1B 8269  17.198   7.606   9.248 -0.0029 -0.0792  0.1650
  533PYPI   C2B 8270  17.382   7.322   8.982  0.0124  0.0145 -0.0208
  533PYPI   C3B 8271  17.651   7.320   8.530  0.4545 -0.2901  0.0690
  533PYPI   C4B 8272  17.948   7.283   8.184  0.2102  0.2188 -0.1245
  534PYPI    C1 8273   6.578  17.061  10.903  0.0374  0.1547 -0.1251
  534PYPI    C2 8274   6.278  16.907  10.687  0.0984  0.0094 -0.1070
  534PYPI    C3 8275   6.236  17.265  10.860 -0.0762 -0.0235 -0.0793
  534PYPI   PO4 8276   6.798  17.044  10.677 -0.3786  0.3432  0.0433
  534PYPI   GL1 8277   6.604  16.875  10.308 -0.0984  0.1318  0.0067
  534PYPI   GL2 8278   6.470  17.257  10.317 -0.0936  0.0857 -0.0540
  534PYPI   C1A 8279   6.713  16.678   9.794 -0.2679 -0.0953 -0.2881
  534PYPI   C2A 8280   7.010  16.657   9.447  0.3258 -0.1927 -0.1542
  534PYPI   D3A 8281   7.188  16.738   9.087  0.4210 -0.1676 -0.1429
  534PYPI   C4A 8282   7.071  16.796   8.664  0.0305  0.2518 -0.1641
  534PYPI   C1B 8283   6.536  17.138   9.852  0.1338  0.3575  0.0803
  534PYPI   C2B 8284   6.655  17.099   9.394 -0.0923  0.0593  0.0310
  534PYPI   C3B 8285   6.720  16.940   9.025 -0.0220  0.0514  0.2784
  534PYPI   C4B 8286   6.605  16.775   8.623 -0.0593  0.0523 -0.0586
  535PYPI    C1 8287  12.024   3.763  10.618  0.1866 -0.1395 -0.0017
  535PYPI    C2 8288  12.305   3.520  10.768  0.1990 -0.0424  0.1347
  535PYPI    C3 8289  12.390   3.904  10.697  0.1867 -0.0825 -0.1034
  535PYPI   PO4 8290  11.931   3.697  10.327 -0.0122  0.1927  0.1469
  535PYPI   GL1 8291  11.740   3.919   9.957  0.0538  0.4708 -0.2716
  535PYPI   GL2 8292  11.640   4.158   9.681 -0.1472  0.1563 -0.1985
  535PYPI   C1A 8293  11.470   3.640   9.707  0.3380  0.0202 -0.1512
  535PYPI   C2A 8294  11.547   3.468   9.389 -0.0134 -0.2253  0.3556
  535PYPI   D3A 8295  11.575   3.654   9.071  0.0428 -0.0200 -0.2314
  535PYPI   C4A 8296  11.729   3.347   8.755 -0.2691  0.0799  0.2262
  535PYPI   C1B 8297  11.617   4.090   9.235  0.1059  0.3500  0.1631
  535PYPI   C2B 8298  11.694   4.072   8.807 -0.3011  0.0734  0.0871
  535PYPI   C3B 8299  11.639   4.151   8.441 -0.0812 -0.0305 -0.2562
  535PYPI   C4B 8300  11.445   4.108   8.038 -0.0331  0.1176  0.2728
  536PYPI    C1 8301   3.197  10.337  10.238  0.2321 -0.0684 -0.0552
  536PYPI    C2 8302   3.505  10.215  10.463  0.0117 -0.1444  0.2112
  536PYPI    C3 8303   3.147  10.041  10.503 -0.1039  0.0411  0.0086
  536PYPI   PO4 8304   3.208  10.588  10.235  0.3700 -0.2522  0.3355
  536PYPI   GL1 8305   3.232  10.894   9.958  0.2099 -0.2384  0.0718
  536PYPI   GL2 8306   3.604  10.865   9.897 -0.1318 -0.2025  0.4876
  536PYPI   C1A 8307   3.058  10.894   9.510 -0.1753 -0.0298  0.1173
  536PYPI   C2A 8308   2.976  10.787   9.101 -0.1155 -0.0114 -0.1770
  536PYPI   D3A 8309   3.094  10.715   8.699  0.0262  0.0541 -0.4885
  536PYPI   C4A 8310   3.165  10.537   8.351 -0.0520 -0.2763 -0.3031
  536PYPI   C1B 8311   3.572  10.795   9.500 -0.0226 -0.2487  0.1973
  536PYPI   C2B 8312   3.559  10.817   9.045 -0.0067  0.0726  0.1182
  536PYPI   C3B 8313   3.547  10.924   8.683  0.0621  0.1047  0.2013
  536PYPI   C4B 8314   3.531  10.858   8.212  0.0765 -0.1313  0.4496
  537PYPI    C1 8315   5.741   5.577  10.488 -0.0494  0.1828 -0.0381
  537PYPI    C2 8316   5.790   5.918  10.691  0.0703  0.2017 -0.0980
  537PYPI    C3 8317   6.032   5.608  10.761  0.0484  0.1749 -0.1412
  537PYPI   PO4 8318   5.720   5.643  10.179 -0.0499 -0.1145  0.1011
  537PYPI   GL1 8319   5.628   5.733   9.684  0.0375  0.2266  0.0088
  537PYPI   GL2 8320   5.745   6.089   9.652 -0.0885  0.0424 -0.0182
  537PYPI   C1A 8321   5.535   5.743   9.216  0.1307  0.2200 -0.1637
  537PYPI   C2A 8322   5.503   5.728   8.708  0.0807 -0.3065 -0.0830
  537PYPI   D3A 8323   5.601   5.738   8.254  0.1568  0.1092 -0.2405
  537PYPI   C4A 8324   5.557   5.921   7.864 -0.1837  0.0592  0.3758
  537PYPI   C1B 8325   5.753   6.214   9.319 -0.0845  0.0973 -0.1703
  537PYPI   C2B 8326   5.737   6.162   8.984  0.1234  0.1314  0.0179
  537PYPI   C3B 8327   5.892   6.062   8.557 -0.1458  0.1640 -0.1335
  537PYPI   C4B 8328   5.947   6.091   8.146  0.2848  0.0155  0.0878
  538PYPI    C1 8329   4.846   8.083  10.742 -0.0649  0.0046 -0.0754
  538PYPI    C2 8330   4.877   7.714  10.894  0.0316  0.0114 -0.0780
  538PYPI    C3 8331   4.872   8.031  11.137 -0.0743  0.0073 -0.0745
  538PYPI   PO4 8332   4.985   8.075  10.520 -0.0604 -0.0378  0.1141
  538PYPI   GL1 8333   5.009   8.062  10.117  0.0563  0.3471 -0.0618
  538PYPI   GL2 8334   4.733   7.952  10.048 -0.0949 -0.0065 -0.0880
  538PYPI   C1A 8335   5.154   8.361   9.816  0.0622 -0.1530  0.0932
  538PYPI   C2A 8336   5.285   8.354   9.362 -0.0822  0.0156 -0.1621
  538PYPI   D3A 8337   5.351   8.329   9.025  0.0535  0.0102 -0.0334
  538PYPI   C4A 8338   5.445   8.557   8.651 -0.0153 -0.0530 -0.2246
  538PYPI   C1B 8339   5.027   7.937   9.600 -0.0408  0.2339 -0.1267
  538PYPI   C2B 8340   5.014   7.934   9.146  0.0439  0.0448 -0.2185
  538PYPI   C3B 8341   5.213   7.916   8.807 -0.0009 -0.0710  0.3156
  538PYPI   C4B 8342   5.213   8.135   8.336  0.1323 -0.0222  0.1314
  539PYPI    C1 8343  17.955  11.477  10.462 -0.1501  0.1484 -0.0867
  539PYPI    C2 8344  17.597  11.479  10.642 -0.1843 -0.0225 -0.1505
  539PYPI    C3 8345  17.761  11.822  10.517 -0.1745  0.0955  0.1759
  539PYPI   PO4 8346  17.936  11.280  10.362  0.1060 -0.1441  0.0274
  539PYPI   GL1 8347  17.882  11.314   9.927  0.1562 -0.0025 -0.0391
  539PYPI   GL2 8348  18.003  11.628   9.968 -0.1755 -0.3267  0.1175
  539PYPI   C1A 8349  17.969  11.459   9.483  0.1579  0.0245  0.3379
  539PYPI   C2A 8350  17.952  11.473   9.078 -0.3063 -0.2601 -0.1426
  539PYPI   D3A 8351  17.825  11.555   8.706 -0.0361 -0.2242  0.0044
  539PYPI   C4A 8352  18.048  11.634   8.303 -0.2333  0.1908 -0.3278
  539PYPI   C1B 8353  17.707  11.865   9.653  0.0699  0.0661 -0.1284
  539PYPI   C2B 8354  17.539  11.599   9.341  0.1025 -0.2815 -0.0706
  539PYPI   C3B 8355  17.388  11.501   8.927  0.0391  0.0401 -0.0085
  539PYPI   C4B 8356  17.214  11.530   8.551 -0.0714 -0.0960 -0.1021
  540ERGO   ROH 8357   9.611   0.732   9.900 -0.1643 -0.2310  0.1188
  540ERGO    R1 8358   9.721   0.759   9.641 -0.0570 -0.2162  0.1649
  540ERGO    R2 8359   9.629   0.616   9.424 -0.0356 -0.1327  0.0962
  540ERGO    R3 8360   9.602   0.862   9.313  0.1027 -0.0950  0.1446
  540ERGO    R4 8361   9.639   0.680   9.085  0.0935 -0.0482  0.1156
  540ERGO    R5 8362   9.755   0.860   9.128  0.1546 -0.1108  0.1919
  540ERGO    C1 8363   9.620   0.948   8.782  0.2985  0.0363  0.1722
  540ERGO    C2 8364   9.498   0.861   8.522  0.2178  0.0784  0.0749
  541ERGO   ROH 8365  10.405   5.577  10.184  0.3938  0.0991  0.0763
  541ERGO    R1 8366  10.348   5.737   9.957  0.2794  0.0033  0.0360
  541ERGO    R2 8367  10.508   5.738   9.732  0.2402  0.0078  0.0046
  541ERGO    R3 8368  10.275   5.679   9.605  0.2434 -0.1415  0.0672
  541ERGO    R4 8369  10.468   5.725   9.389  0.1454  0.0021  0.0159
  541ERGO    R5 8370  10.274   5.822   9.413  0.0885 -0.1317  0.0769
  541ERGO    C1 8371  10.226   5.663   9.070  0.0931 -0.1414  0.0813
  541ERGO    C2 8372  10.362   5.602   8.786 -0.1192  0.0299 -0.0623
  542ERGO   ROH 8373  13.549  10.936  10.401 -0.3436 -0.0721  0.0101
  542ERGO    R1 8374  13.647  10.989  10.141 -0.2097 -0.0200  0.0700
  542ERGO    R2 8375  13.753  10.792   9.979 -0.0908  0.0165  0.0960
  542ERGO    R3 8376  13.568  10.885   9.802 -0.0120  0.0153  0.0130
  542ERGO    R4 8377  13.776  10.765   9.635  0.0469  0.0068  0.1058
  542ERGO    R5 8378  13.697  10.967   9.618  0.0624  0.0041  0.0644
  542ERGO    C1 8379  13.616  10.835   9.269  0.2011  0.0001  0.0337
  542ERGO    C2 8380  13.642  10.785   8.940 -0.0044 -0.0219 -0.0219
  543ERGO   ROH 8381   6.600  17.686  10.172 -0.1260 -0.1102  0.0783
  543ERGO    R1 8382   6.735  17.628   9.930 -0.0522 -0.0459  0.1031
  543ERGO    R2 8383   6.602  17.557   9.698  0.0211 -0.0490  0.0585
  543ERGO    R3 8384   6.742  17.765   9.592 -0.0038  0.0003  0.1233
  543ERGO    R4 8385   6.692  17.585   9.366 -0.0917  0.1292  0.0423
  543ERGO    R5 8386   6.885  17.663   9.430 -0.0664  0.0818  0.0176
  543ERGO    C1 8387   6.876  17.797   9.073 -0.1807  0.2792  0.0937
  543ERGO    C2 8388   6.757  17.780   8.718 -0.1833 -0.0288 -0.2669
  544ERGO   ROH 8389   1.165   0.946   9.906 -0.0670 -0.2251  0.1170
  544ERGO    R1 8390   1.310   0.799   9.713 -0.0460 -0.1308  0.0600
  544ERGO    R2 8391   1.200   0.586   9.574  0.0587 -0.2489  0.1537
  544ERGO    R3 8392   1.279   0.729   9.357 -0.1838 -0.2109  0.0869
  544ERGO    R4 8393   1.213   0.463   9.252 -0.0657 -0.2679  0.1557
  544ERGO    R5 8394   1.400   0.571   9.223 -0.1588 -0.1374  0.0224
  544ERGO    C1 8395   1.295   0.525   8.860 -0.3658 -0.2434  0.0942
  544ERGO    C2 8396   1.368   0.525   8.530 -0.0667 -0.0816  0.0163
  545ERGO   ROH 8397   0.663   1.864   9.885  0.0404 -0.0015 -0.1107
  545ERGO    R1 8398   0.808   1.898   9.645  0.0280  0.1867 -0.0934
  545ERGO    R2 8399   0.762   1.745   9.420  0.3245  0.0475 -0.0680
  545ERGO    R3 8400   0.732   1.987   9.300 -0.0676 -0.0240 -0.1277
  545ERGO    R4 8401   0.827   1.810   9.087  0.4814  0.1308 -0.0212
  545ERGO    R5 8402   0.915   2.001   9.147  0.0447  0.3258  0.0291
  545ERGO    C1 8403   0.838   2.076   8.781  0.2047  0.1123 -0.0500
  545ERGO    C2 8404   0.944   2.071   8.420 -0.0517 -0.2418  0.1677
  546ERGO   ROH 8405  12.876  12.825  10.301 -0.0159 -0.1926  0.0643
  546ERGO    R1 8406  12.833  12.874  10.026  0.0493 -0.0495  0.0792
  546ERGO    R2 8407  13.018  12.809   9.832  0.0057 -0.1455  0.0702
  546ERGO    R3 8408  12.809  12.676   9.722 -0.1088  0.0849  0.0018
  546ERGO    R4 8409  12.986  12.736   9.496  0.0507 -0.1336  0.0631
  546ERGO    R5 8410  12.774  12.784   9.511  0.0959  0.1122 -0.0211
  546ERGO    C1 8411  12.771  12.569   9.196 -0.0305  0.0899 -0.0053
  546ERGO    C2 8412  12.827  12.435   8.834 -0.0495  0.2563 -0.1848
  547ERGO   ROH 8413   6.237   4.043   9.505  0.1471 -0.0885 -0.0965
  547ERGO    R1 8414   6.292   3.940   9.247  0.0223 -0.0802 -0.1270
  547ERGO    R2 8415   6.103   3.936   9.045 -0.0311  0.0650 -0.0820
  547ERGO    R3 8416   6.295   4.068   8.906  0.0147 -0.0268 -0.1068
  547ERGO    R4 8417   6.106   3.976   8.702 -0.0965  0.1314 -0.0752
  547ERGO    R5 8418   6.321   3.941   8.705 -0.1173 -0.0030 -0.1392
  547ERGO    C1 8419   6.289   4.123   8.372 -0.0916  0.0838 -0.0945
  547ERGO    C2 8420   6.367   4.274   7.968 -0.1412  0.1432 -0.2386
  548ERGO   ROH 8421   1.842  15.897   9.979 -0.1172  0.0538  0.0980
  548ERGO    R1 8422   1.906  15.840   9.709 -0.2365 -0.0951  0.0997
  548ERGO    R2 8423   1.714  15.786   9.518 -0.3384  0.0527  0.1576
  548ERGO    R3 8424   1.838  15.987   9.384 -0.1514 -0.1157  0.0727
  548ERGO    R4 8425   1.701  15.832   9.176 -0.4309  0.0175  0.1561
  548ERGO    R5 8426   1.912  15.885   9.180 -0.3622 -0.2373  0.0549
  548ERGO    C1 8427   1.809  16.047   8.850 -0.3092 -0.1610  0.0756
  548ERGO    C2 8428   1.932  16.039   8.607 -0.2172  0.1345 -0.0613
  549ERGO   ROH 8429   4.162   0.087   9.637 -0.2038 -0.1278  0.0239
  549ERGO    R1 8430   4.238   0.112   9.366 -0.0285 -0.0816  0.0752
  549ERGO    R2 8431   4.324  -0.103   9.215 -0.1975 -0.1115  0.0169
  549ERGO    R3 8432   4.126  -0.022   9.047 -0.0178  0.2029 -0.0514
  549ERGO    R4 8433   4.323  -0.153   8.873 -0.1765 -0.1468  0.0224
  549ERGO    R5 8434   4.241   0.048   8.849  0.1626 -0.0075 -0.0247
  549ERGO    C1 8435   4.137  -0.106   8.516  0.0043  0.1281 -0.0385
  549ERGO    C2 8436   4.334  -0.221   8.268  0.0582  0.1167 -0.1461
  550ERGO   ROH 8437  15.778   6.856   9.634 -0.3926  0.0167 -0.0272
  550ERGO    R1 8438  15.799   6.785   9.360 -0.2127 -0.0165 -0.0061
  550ERGO    R2 8439  15.721   6.954   9.156 -0.0578 -0.0309 -0.0815
  550ERGO    R3 8440  15.975   6.911   9.068  0.0001 -0.0653  0.0990
  550ERGO    R4 8441  15.826   6.989   8.828  0.1933 -0.0064 -0.0004
  550ERGO    R5 8442  15.947   6.810   8.852  0.1420 -0.0304  0.0651
  550ERGO    C1 8443  16.125   6.970   8.555  0.3937 -0.0244  0.2163
  550ERGO    C2 8444  16.263   7.205   8.309 -0.0675 -0.0276  0.2201
  551ERGO   ROH 8445   5.973  11.001  10.255 -0.1860  0.0951  0.0952
  551ERGO    R1 8446   6.037  10.995   9.979 -0.0192  0.1005  0.1335
  551ERGO    R2 8447   5.906  10.832   9.799  0.1072  0.0856  0.0560
  551ERGO    R3 8448   5.866  11.066   9.666  0.1616  0.0801  0.0284
  551ERGO    R4 8449   5.811  10.857   9.467  0.1581  0.0708  0.0397
  551ERGO    R5 8450   5.949  11.024   9.446  0.1868  0.0477  0.0438
  551ERGO    C1 8451   5.718  11.091   9.150  0.2388  0.0571  0.0042
  551ERGO    C2 8452   5.757  11.071   8.805 -0.2260  0.3220 -0.2033
  552ERGO   ROH 8453   7.731  17.059  10.308 -0.2763  0.1741  0.1393
  552ERGO    R1 8454   7.589  16.996  10.071  0.0170 -0.1138  0.0329
  552ERGO    R2 8455   7.507  17.188   9.891 -0.3842 -0.2481  0.0595
  552ERGO    R3 8456   7.642  17.033   9.713  0.1337  0.1576  0.0765
  552ERGO    R4 8457   7.467  17.200   9.548 -0.3064 -0.3098  0.0484
  552ERGO    R5 8458   7.481  16.983   9.543  0.3239 -0.2859  0.0150
  552ERGO    C1 8459   7.572  17.062   9.181  0.2250  0.0350  0.0580
  552ERGO    C2 8460   7.532  17.179   8.894  0.0239 -0.1253 -0.0331
  553ERGO   ROH 8461   3.211  16.437   9.918 -0.1191  0.1595 -0.0663
  553ERGO    R1 8462   3.099  16.470   9.660 -0.0544  0.3115 -0.0762
  553ERGO    R2 8463   3.203  16.645   9.474  0.2773  0.0850 -0.1116
  553ERGO    R3 8464   3.208  16.423   9.316 -0.1253  0.0338 -0.0638
  553ERGO    R4 8465   3.227  16.648   9.129  0.3816 -0.0298 -0.1060
  553ERGO    R5 8466   3.082  16.485   9.122  0.0481  0.2535 -0.1115
  553ERGO    C1 8467   3.246  16.441   8.780  0.0644 -0.1445 -0.0579
  553ERGO    C2 8468   3.372  16.526   8.399 -0.0314 -0.0952 -0.0328
  554ERGO   ROH 8469   4.753  15.007   9.755 -0.3259 -0.3166  0.2574
  554ERGO    R1 8470   4.794  15.078   9.484 -0.3186 -0.0910  0.3165
  554ERGO    R2 8471   4.985  14.955   9.326 -0.1544  0.2072  0.2880
  554ERGO    R3 8472   4.773  14.911   9.161 -0.0608  0.1079  0.1907
  554ERGO    R4 8473   5.008  14.843   9.000  0.0811  0.4794  0.2058
  554ERGO    R5 8474   4.849  14.982   8.945 -0.0575  0.3605  0.2648
  554ERGO    C1 8475   4.823  14.735   8.655  0.3060  0.5446  0.0665
  554ERGO    C2 8476   4.732  14.603   8.313  0.0725 -0.2545 -0.1503
  555ERGO   ROH 8477   4.034  17.957  10.011  0.1141 -0.1035 -0.0122
  555ERGO    R1 8478   4.073  17.786   9.789  0.0971 -0.1390  0.0097
  555ERGO    R2 8479   3.869  17.721   9.614  0.0754 -0.1739  0.0315
  555ERGO    R3 8480   4.045  17.811   9.428  0.0598 -0.1904  0.0119
  555ERGO    R4 8481   3.861  17.639   9.279 -0.0146 -0.0857  0.0135
  555ERGO    R5 8482   4.078  17.624   9.281 -0.0290 -0.1561 -0.0401
  555ERGO    C1 8483   4.021  17.676   8.908 -0.0817 -0.0501 -0.0155
  555ERGO    C2 8484   3.929  17.592   8.582  0.0381 -0.1566  0.3129
  556ERGO   ROH 8485   9.691  17.804   9.970 -0.0212  0.1415  0.1415
  556ERGO    R1 8486   9.814  17.891   9.731 -0.0447  0.1343  0.1275
  556ERGO    R2 8487   9.882  17.717   9.527 -0.0851  0.1329  0.1199
  556ERGO    R3 8488   9.734  17.887   9.376 -0.0880  0.1461  0.1361
  556ERGO    R4 8489   9.925  17.767   9.188 -0.2769 -0.0625  0.0640
  556ERGO    R5 8490   9.891  17.980   9.220 -0.1308 -0.0218 -0.0154
  556ERGO    C1 8491   9.810  17.956   8.848 -0.3913 -0.1637  0.0467
  556ERGO    C2 8492   9.945  18.198   8.524  0.2319 -0.2308 -0.2086
  557ERGO   ROH 8493  17.988   3.126  10.138  0.1155  0.1500 -0.1902
  557ERGO    R1 8494  17.852   3.081   9.894  0.0463  0.1739 -0.1572
  557ERGO    R2 8495  17.906   3.225   9.664  0.0110  0.1691 -0.1716
  557ERGO    R3 8496  17.942   2.977   9.556 -0.0533  0.1641 -0.1802
  557ERGO    R4 8497  17.932   3.158   9.326 -0.0669  0.1628 -0.1761
  557ERGO    R5 8498  17.810   2.980   9.356 -0.0904  0.1858 -0.1534
  557ERGO    C1 8499  17.981   2.887   9.028 -0.1726  0.1544 -0.1866
  557ERGO    C2 8500  17.870   2.755   8.707  0.0079  0.2267 -0.3107
  558ERGO   ROH 8501  12.047   5.412  10.102  0.0396 -0.1527 -0.0969
  558ERGO    R1 8502  11.921   5.512   9.870  0.0677 -0.0317 -0.0613
  558ERGO    R2 8503  12.062   5.626   9.661  0.1180 -0.1568 -0.1000
  558ERGO    R3 8504  11.928   5.441   9.513 -0.0934 -0.0353 -0.0640
  558ERGO    R4 8505  11.950   5.677   9.338  0.0640 -0.0535 -0.0649
  558ERGO    R5 8506  11.767   5.569   9.390 -0.0161  0.1101 -0.0128
  558ERGO    C1 8507  11.759   5.533   9.011 -0.1660  0.1207 -0.0106
  558ERGO    C2 8508  11.748   5.752   8.778 -0.1810 -0.0449  0.0051
  559ERGO   ROH 8509   7.013   7.802   9.961  0.0979  0.1464  0.0501
  559ERGO    R1 8510   6.975   7.614   9.753 -0.0915  0.1620  0.0670
  559ERGO    R2 8511   6.789   7.650   9.551 -0.0080  0.3685  0.0137
  559ERGO    R3 8512   7.004   7.611   9.390 -0.0111  0.0815  0.0761
  559ERGO    R4 8513   6.773   7.581   9.213  0.0121  0.3355  0.0207
  559ERGO    R5 8514   6.935   7.439   9.239 -0.1720  0.1453  0.0844
  559ERGO    C1 8515   6.966   7.505   8.865  0.0208  0.0467  0.0833
  559ERGO    C2 8516   6.997   7.681   8.523 -0.0748 -0.1327 -0.1614
  560ERGO   ROH 8517   7.983   6.615  10.216  0.0145 -0.0572  0.0925
  560ERGO    R1 8518   8.111   6.596   9.964 -0.1076 -0.0353  0.0288
  560ERGO    R2 8519   8.088   6.792   9.771 -0.0812  0.0523  0.1143
  560ERGO    R3 8520   8.360   6.786   9.778 -0.0793 -0.1079 -0.0069
  560ERGO    R4 8521   8.294   6.922   9.526 -0.1091  0.1544  0.1435
  560ERGO    R5 8522   8.424   6.748   9.550 -0.1964  0.0588 -0.0683
  560ERGO    C1 8523   8.669   6.992   9.390 -0.1234  0.0634  0.0467
  560ERGO    C2 8524   8.725   7.278   9.072 -0.3609 -0.4293  0.2911
  561ERGO   ROH 8525  10.387   6.639  10.174 -0.0057 -0.0106  0.0181
  561ERGO    R1 8526  10.391   6.783   9.930  0.0340  0.0033  0.0265
  561ERGO    R2 8527  10.591   6.752   9.742  0.0434 -0.0169  0.0376
  561ERGO    R3 8528  10.383   6.702   9.575  0.0468  0.0246  0.0215
  561ERGO    R4 8529  10.611   6.748   9.397  0.0465  0.0797  0.0368
  561ERGO    R5 8530  10.418   6.849   9.390  0.0447  0.0767  0.0631
  561ERGO    C1 8531  10.427   6.698   9.039  0.0515  0.1750  0.0211
  561ERGO    C2 8532  10.518   6.794   8.713  0.1114 -0.1949 -0.1992
  562ERGO   ROH 8533   7.414  15.982   9.724  0.4094  0.2549  0.0966
  562ERGO    R1 8534   7.591  15.992   9.503  0.1951  0.2192 -0.0777
  562ERGO    R2 8535   7.661  15.767   9.359  0.2708  0.1528  0.0720
  562ERGO    R3 8536   7.574  15.915   9.148 -0.0625 -0.1266  0.0024
  562ERGO    R4 8537   7.768  15.727   9.033  0.3521  0.2200  0.0887
  562ERGO    R5 8538   7.769  15.944   9.011 -0.1164  0.2287 -0.0158
  562ERGO    C1 8539   7.749  15.842   8.644  0.0866 -0.0031  0.0330
  562ERGO    C2 8540   7.673  15.611   8.442 -0.0445 -0.2129 -0.0036
  563ERGO   ROH 8541  16.221  17.333  10.080 -0.0449  0.0289  0.0283
  563ERGO    R1 8542  16.189  17.298   9.801 -0.0124 -0.0152  0.0298
  563ERGO    R2 8543  15.950  17.217   9.687 -0.0182  0.0316  0.0087
  563ERGO    R3 8544  15.982  17.442   9.538  0.0689 -0.0062 -0.0299
  563ERGO    R4 8545  15.831  17.260   9.366  0.0568 -0.0059 -0.0240
  563ERGO    R5 8546  16.017  17.361   9.315  0.0938 -0.0621 -0.0069
  563ERGO    C1 8547  15.791  17.496   9.039  0.1821 -0.0634 -0.0793
  563ERGO    C2 8548  15.460  17.641   8.921  0.0968  0.2445 -0.1022
  564ERGO   ROH 8549  14.017   1.337  10.317  0.2156 -0.1274  0.0819
  564ERGO    R1 8550  14.051   1.220  10.061  0.0825  0.0970 -0.0406
  564ERGO    R2 8551  13.839   1.121   9.915  0.0342  0.0206  0.0872
  564ERGO    R3 8552  13.936   1.288   9.723 -0.2971  0.2529  0.1114
  564ERGO    R4 8553  13.807   1.070   9.574  0.2625 -0.0879  0.0798
  564ERGO    R5 8554  14.012   1.140   9.549  0.1178  0.4092  0.1433
  564ERGO    C1 8555  13.879   1.195   9.196  0.0845  0.0670  0.0982
  564ERGO    C2 8556  13.783   1.344   8.828 -0.1527  0.0549 -0.0938
  565ERGO   ROH 8557  15.872   0.589  10.367 -0.0331 -0.1859  0.1550
  565ERGO    R1 8558  15.730   0.481  10.147 -0.0807 -0.0601  0.1225
  565ERGO    R2 8559  15.536   0.622  10.011  0.0353  0.0959  0.1110
  565ERGO    R3 8560  15.688   0.561   9.794  0.0252  0.0139  0.1268
  565ERGO    R4 8561  15.441   0.674   9.683  0.0814  0.1000  0.0986
  565ERGO    R5 8562  15.531   0.482   9.632  0.0072  0.0609  0.1237
  565ERGO    C1 8563  15.529   0.648   9.288  0.0987  0.0253  0.1062
  565ERGO    C2 8564  15.223   0.728   8.948 -0.0756 -0.0674  0.2100
  566ERGO   ROH 8565   7.454   1.052   9.945 -0.2273 -0.4435  0.0170
  566ERGO    R1 8566   7.433   0.892   9.712 -0.1529 -0.3055 -0.0845
  566ERGO    R2 8567   7.226   0.921   9.531 -0.0751 -0.1789 -0.1453
  566ERGO    R3 8568   7.429   0.948   9.352 -0.0058 -0.0995 -0.0574
  566ERGO    R4 8569   7.190   0.910   9.187  0.0207  0.1291 -0.1693
  566ERGO    R5 8570   7.375   0.795   9.176 -0.0131  0.0657 -0.2080
  566ERGO    C1 8571   7.360   0.929   8.820  0.1415  0.3830 -0.1007
  566ERGO    C2 8572   7.260   0.989   8.510  0.0933  0.1653 -0.0768
  567ERGO   ROH 8573  14.145   4.301   9.900 -0.3749  0.2450  0.1189
  567ERGO    R1 8574  14.060   4.243   9.636 -0.3794  0.3330  0.1010
  567ERGO    R2 8575  13.959   4.437   9.466  0.0617  0.4856  0.0031
  567ERGO    R3 8576  14.154   4.345   9.300 -0.0389  0.0604  0.1073
  567ERGO    R4 8577  13.935   4.422   9.121  0.1297  0.3270  0.0045
  567ERGO    R5 8578  14.036   4.229   9.128 -0.1902  0.1543  0.1442
  567ERGO    C1 8579  14.104   4.327   8.765  0.0751 -0.1645  0.1031
  567ERGO    C2 8580  14.178   4.211   8.483  0.1487 -0.2310  0.0426
  568ERGO   ROH 8581   9.146  14.751   9.917  0.0008  0.0645  0.0053
  568ERGO    R1 8582   9.264  14.651   9.680  0.1069  0.1817  0.0076
  568ERGO    R2 8583   9.125  14.493   9.500  0.3105 -0.0867  0.0805
  568ERGO    R3 8584   9.205  14.683   9.322 -0.0225 -0.0063  0.0109
  568ERGO    R4 8585   9.166  14.441   9.161  0.3624 -0.1299  0.0933
  568ERGO    R5 8586   9.346  14.565   9.169  0.1617  0.1752  0.0358
  568ERGO    C1 8587   9.265  14.589   8.796  0.0799 -0.0796  0.0354
  568ERGO    C2 8588   9.418  14.639   8.395 -0.0517  0.0374 -0.0642
  569ERGO   ROH 8589   9.706   2.942   9.634  0.4042  0.1689  0.1552
  569ERGO    R1 8590   9.853   2.925   9.393  0.3015  0.1230  0.0950
  569ERGO    R2 8591   9.733   2.925   9.145  0.1744 -0.2054  0.1523
  569ERGO    R3 8592   9.903   3.131   9.097 -0.0596 -0.0658 -0.1050
  569ERGO    R4 8593   9.906   2.972   8.850  0.2797 -0.5007  0.1635
  569ERGO    R5 8594  10.080   3.033   8.968  0.1402 -0.0742  0.1652
  569ERGO    C1 8595  10.167   3.193   8.633  0.1213 -0.5417 -0.0716
  569ERGO    C2 8596  10.248   3.486   8.395 -0.0752  0.2216 -0.0058
  570ERGO   ROH 8597   2.086  11.831  10.089 -0.2191 -0.1143 -0.2233
  570ERGO    R1 8598   2.076  12.031   9.889 -0.1436  0.0215 -0.0952
  570ERGO    R2 8599   2.180  12.285   9.926  0.0539 -0.0708  0.0322
  570ERGO    R3 8600   2.318  12.226   9.699 -0.0643 -0.0334 -0.0492
  570ERGO    R4 8601   2.237  12.505   9.666  0.1674  0.0546  0.1626
  570ERGO    R5 8602   2.201  12.343   9.526 -0.0129  0.1830  0.0635
  570ERGO    C1 8603   2.399  12.579   9.302  0.1225  0.1627  0.1623
  570ERGO    C2 8604   2.515  12.902   9.060 -0.3783  0.1670  0.2785
  571ERGO   ROH 8605  13.200   6.630   9.842 -0.0619  0.1893 -0.0468
  571ERGO    R1 8606  13.288   6.634   9.573  0.0473  0.3657 -0.0095
  571ERGO    R2 8607  13.122   6.570   9.361  0.2478  0.0756 -0.0817
  571ERGO    R3 8608  13.200   6.814   9.269 -0.1525  0.2309 -0.0345
  571ERGO    R4 8609  13.145   6.656   9.027  0.4511  0.0493 -0.0765
  571ERGO    R5 8610  13.329   6.764   9.073  0.1856  0.4519  0.1193
  571ERGO    C1 8611  13.232   6.935   8.746  0.1937  0.1799 -0.0291
  571ERGO    C2 8612  13.409   7.073   8.484  0.1123  0.1267 -0.1994
  572ERGO   ROH 8613  12.424   0.481  10.542 -0.1135  0.0375  0.0138
  572ERGO    R1 8614  12.369   0.500  10.265 -0.1126 -0.1241  0.0026
  572ERGO    R2 8615  12.465   0.706  10.108 -0.2644 -0.1195 -0.0781
  572ERGO    R3 8616  12.564   0.503   9.957 -0.0990 -0.1072  0.0100
  572ERGO    R4 8617  12.488   0.708   9.763  0.1094 -0.0819 -0.0583
  572ERGO    R5 8618  12.425   0.500   9.762  0.1071 -0.0862 -0.1449
  572ERGO    C1 8619  12.594   0.518   9.421  0.4823 -0.0485  0.0361
  572ERGO    C2 8620  12.542   0.595   9.060 -0.0605  0.1036  0.0920
  573ERGO   ROH 8621   8.756  17.293  10.043  0.2217 -0.1559 -0.0945
  573ERGO    R1 8622   8.700  17.424   9.798  0.1434 -0.1761 -0.0878
  573ERGO    R2 8623   8.802  17.674   9.736  0.0893 -0.1622 -0.1231
  573ERGO    R3 8624   8.892  17.546   9.514  0.0580 -0.1585 -0.1383
  573ERGO    R4 8625   8.747  17.779   9.412  0.1561 -0.0854 -0.1100
  573ERGO    R5 8626   8.715  17.571   9.355  0.0806 -0.0630 -0.1485
  573ERGO    C1 8627   8.799  17.720   9.014  0.1655 -0.0371 -0.1165
  573ERGO    C2 8628   8.834  17.896   8.722 -0.0354  0.0368  0.0631
  574ERGO   ROH 8629   9.054  10.717  10.126 -0.0244  0.0787  0.1595
  574ERGO    R1 8630   8.955  10.895   9.929 -0.0079 -0.0183  0.0614
  574ERGO    R2 8631   9.117  11.072   9.792 -0.0126  0.0016  0.0727
  574ERGO    R3 8632   9.007  10.952   9.574  0.1228 -0.1122  0.0663
  574ERGO    R4 8633   9.095  11.215   9.478  0.0118 -0.0981  0.0257
  574ERGO    R5 8634   8.896  11.130   9.458  0.0671 -0.2066 -0.0192
  574ERGO    C1 8635   8.980  11.186   9.090  0.1531 -0.2630 -0.0076
  574ERGO    C2 8636   8.925  11.204   8.763 -0.0388 -0.1341  0.1244
  575ERGO   ROH 8637   1.251   3.097   9.842  0.0557  0.1925  0.1400
  575ERGO    R1 8638   1.186   3.283   9.638  0.0730  0.1664  0.1113
  575ERGO    R2 8639   1.373   3.378   9.458  0.0548  0.0267  0.0209
  575ERGO    R3 8640   1.193   3.289   9.274 -0.0512  0.0626  0.1057
  575ERGO    R4 8641   1.395   3.433   9.118 -0.0323 -0.0711 -0.0016
  575ERGO    R5 8642   1.180   3.467   9.114 -0.0208  0.0300  0.0641
  575ERGO    C1 8643   1.239   3.382   8.747 -0.1825 -0.0944  0.0649
  575ERGO    C2 8644   1.155   3.507   8.543  0.3339  0.0108 -0.3423
  576ERGO   ROH 8645   6.410  16.285   9.684  0.3205 -0.1231  0.1338
  576ERGO    R1 8646   6.404  16.364   9.413  0.0090 -0.0403  0.1602
  576ERGO    R2 8647   6.632  16.435   9.274 -0.1852  0.3127  0.0070
  576ERGO    R3 8648   6.547  16.245   9.099 -0.0630  0.2504  0.0143
  576ERGO    R4 8649   6.800  16.342   8.987 -0.0578  0.3075  0.0823
  576ERGO    R5 8650   6.608  16.331   8.884 -0.0174  0.2251  0.0184
  576ERGO    C1 8651   6.818  16.110   8.655  0.1310  0.2459  0.1329
  576ERGO    C2 8652   6.917  16.118   8.366 -0.0425 -0.2170  0.0240
  577ERGO   ROH 8653   4.807  16.774   9.931 -0.1148  0.2732  0.0466
  577ERGO    R1 8654   4.843  16.742   9.652  0.0232  0.3122  0.0591
  577ERGO    R2 8655   4.668  16.598   9.494  0.2353  0.1174 -0.0086
  577ERGO    R3 8656   4.660  16.829   9.350  0.0368  0.1119 -0.0073
  577ERGO    R4 8657   4.650  16.616   9.150  0.4667  0.1019 -0.0224
  577ERGO    R5 8658   4.791  16.782   9.155  0.2443  0.2890  0.0869
  577ERGO    C1 8659   4.632  16.842   8.814  0.4150  0.0875 -0.0294
  577ERGO    C2 8660   4.536  16.911   8.507 -0.2676  0.1536  0.2336
  578ERGO   ROH 8661  14.909   6.853   9.982  0.1769 -0.0322  0.0919
  578ERGO    R1 8662  14.963   7.008   9.751 -0.1052 -0.0507  0.0087
  578ERGO    R2 8663  15.221   7.060   9.664 -0.1877  0.4028  0.0042
  578ERGO    R3 8664  15.128   6.957   9.431  0.0268  0.0827  0.0546
  578ERGO    R4 8665  15.363   7.113   9.354 -0.0113  0.1197  0.0343
  578ERGO    R5 8666  15.163   7.131   9.270  0.0371 -0.0847 -0.1241
  578ERGO    C1 8667  15.359   7.046   8.954  0.2927 -0.3457  0.0992
  578ERGO    C2 8668  15.415   7.003   8.641 -0.0074 -0.1573  0.1003
  579ERGO   ROH 8669  11.346   4.362  10.100 -0.1680 -0.1156  0.1001
  579ERGO    R1 8670  11.235   4.456   9.857 -0.1631 -0.1045  0.1009
  579ERGO    R2 8671  11.390   4.564   9.655 -0.1766  0.1005  0.1912
  579ERGO    R3 8672  11.267   4.375   9.504  0.0201  0.0574  0.0789
  579ERGO    R4 8673  11.344   4.583   9.313 -0.2141  0.2609  0.2047
  579ERGO    R5 8674  11.145   4.499   9.340 -0.1239  0.0273  0.1631
  579ERGO    C1 8675  11.202   4.416   8.972 -0.0512  0.3138  0.1069
  579ERGO    C2 8676  11.154   4.338   8.611 -0.1082 -0.2167 -0.0076
  580ERGO   ROH 8677  13.672  17.378  10.017  0.1673  0.1216  0.0434
  580ERGO    R1 8678  13.731  17.379   9.740  0.1366  0.0978  0.0356
  580ERGO    R2 8679  13.709  17.153   9.583  0.2066  0.0588  0.0727
  580ERGO    R3 8680  13.550  17.313   9.432  0.1259 -0.0258  0.0693
  580ERGO    R4 8681  13.534  17.050   9.303  0.1326 -0.0653  0.1642
  580ERGO    R5 8682  13.587  17.239   9.207  0.0628 -0.0916  0.0839
  580ERGO    C1 8683  13.284  17.141   8.997  0.0138 -0.2174  0.2144
  580ERGO    C2 8684  13.079  17.108   8.712  0.3539  0.4890 -0.1785
  581ERGO   ROH 8685   0.146  15.094  10.581  0.2247 -0.3755  0.0592
  581ERGO    R1 8686   0.116  15.117  10.300  0.2350 -0.2784  0.0660
  581ERGO    R2 8687   0.196  14.919  10.125 -0.1360 -0.4003  0.0263
  581ERGO    R3 8688  -0.060  14.938  10.037 -0.1196  0.0727  0.0550
  581ERGO    R4 8689   0.102  14.908   9.793 -0.1971 -0.2383  0.0371
  581ERGO    R5 8690  -0.043  15.066   9.835  0.0962  0.0381  0.0483
  581ERGO    C1 8691  -0.194  14.919   9.516 -0.2172  0.3003  0.0705
  581ERGO    C2 8692  -0.176  14.716   9.192 -0.3231  0.0252 -0.4777
  582ERGO   ROH 8693   6.093  12.519   9.753 -0.0328  0.1323  0.0579
  582ERGO    R1 8694   5.987  12.627   9.514  0.2055 -0.0596 -0.1395
  582ERGO    R2 8695   6.043  12.519   9.265 -0.0013 -0.6254  0.0386
  582ERGO    R3 8696   5.772  12.511   9.244 -0.0302 -0.0923  0.0603
  582ERGO    R4 8697   5.870  12.436   8.978 -0.1991 -0.3303  0.0688
  582ERGO    R5 8698   5.727  12.594   9.024  0.1141 -0.0362  0.0540
  582ERGO    C1 8699   5.514  12.380   8.791 -0.3413  0.3421  0.1067
  582ERGO    C2 8700   5.407  12.293   8.463 -0.0119 -0.0915 -0.0698
  583ERGO   ROH 8701  10.244  10.055  10.182  0.0116  0.1457 -0.0525
  583ERGO    R1 8702  10.341   9.894   9.971  0.0185  0.0941 -0.0108
  583ERGO    R2 8703  10.180   9.805   9.765  0.0033 -0.0336  0.0521
  583ERGO    R3 8704  10.370   9.921   9.609 -0.0617 -0.0331 -0.0267
  583ERGO    R4 8705  10.225   9.743   9.428  0.0289 -0.2201  0.0887
  583ERGO    R5 8706  10.440   9.747   9.460  0.0253 -0.0882  0.0804
  583ERGO    C1 8707  10.429   9.816   9.085 -0.0172 -0.3282  0.0362
  583ERGO    C2 8708  10.523   9.851   8.754 -0.2322  0.0784 -0.2689
  584ERGO   ROH 8709  14.553   4.493   9.790  0.1490  0.2444  0.1617
  584ERGO    R1 8710  14.494   4.561   9.522  0.0695  0.1903  0.1653
  584ERGO    R2 8711  14.690   4.608   9.333  0.0138 -0.0536  0.0444
  584ERGO    R3 8712  14.555   4.419   9.193 -0.2241  0.0068  0.1867
  584ERGO    R4 8713  14.732   4.545   8.996 -0.2757 -0.1627  0.0267
  584ERGO    R5 8714  14.516   4.519   8.979 -0.3089 -0.0151  0.1908
  584ERGO    C1 8715  14.628   4.330   8.668 -0.6676 -0.1696  0.1498
  584ERGO    C2 8716  14.743   4.344   8.287  0.3060  0.0228  0.0254
  585ERGO   ROH 8717  16.706  10.790  10.294  0.0097 -0.0795  0.0753
  585ERGO    R1 8718  16.613  10.842  10.032  0.1182  0.1395  0.0781
  585ERGO    R2 8719  16.719  11.041   9.872  0.5097 -0.0354  0.1143
  585ERGO    R3 8720  16.752  10.837   9.696  0.1291 -0.0776  0.0829
  585ERGO    R4 8721  16.677  11.067   9.530  0.4323  0.0697  0.1312
  585ERGO    R5 8722  16.580  10.872   9.532  0.1201  0.2130  0.1443
  585ERGO    C1 8723  16.683  10.891   9.165  0.0299  0.0914  0.1116
  585ERGO    C2 8724  16.772  10.821   8.857 -0.0419  0.0766 -0.0742
  586ERGO   ROH 8725  10.309   6.199  10.071 -0.1264 -0.0853  0.0153
  586ERGO    R1 8726  10.402   6.324   9.835 -0.0184 -0.0562  0.0727
  586ERGO    R2 8727  10.576   6.200   9.659  0.0142 -0.0585  0.1050
  586ERGO    R3 8728  10.383   6.260   9.477  0.0878  0.0224  0.0529
  586ERGO    R4 8729  10.601   6.145   9.318  0.0406 -0.1588  0.1227
  586ERGO    R5 8730  10.504   6.338   9.285  0.1729 -0.1042  0.0559
  586ERGO    C1 8731  10.435   6.170   8.950  0.1249 -0.1412  0.0839
  586ERGO    C2 8732  10.341   6.071   8.739 -0.0370 -0.0577 -0.0551
  587ERGO   ROH 8733  12.727   3.646   9.809 -0.1519  0.0561 -0.0363
  587ERGO    R1 8734  12.856   3.562   9.572 -0.0629  0.0079  0.0270
  587ERGO    R2 8735  12.827   3.308   9.469 -0.1035  0.0122  0.0120
  587ERGO    R3 8736  12.753   3.441   9.244  0.0529  0.0423 -0.0205
  587ERGO    R4 8737  12.807   3.168   9.153 -0.0516  0.0220  0.0055
  587ERGO    R5 8738  12.894   3.351   9.072  0.0702 -0.0280  0.0363
  587ERGO    C1 8739  12.727   3.212   8.758  0.1254  0.0560 -0.0288
  587ERGO    C2 8740  12.817   3.040   8.438 -0.0259 -0.1024  0.0922
  588ERGO   ROH 8741   3.982   6.465   9.808  0.1469 -0.1715 -0.0094
  588ERGO    R1 8742   3.864   6.596   9.586  0.0865 -0.1480  0.0365
  588ERGO    R2 8743   3.937   6.850   9.506  0.0309 -0.1212  0.0725
  588ERGO    R3 8744   3.977   6.729   9.266  0.0079 -0.0679  0.0415
  588ERGO    R4 8745   4.044   7.010   9.220 -0.0516 -0.0449  0.0838
  588ERGO    R5 8746   3.903   6.890   9.105 -0.0519 -0.0489  0.0866
  588ERGO    C1 8747   4.144   6.990   8.827 -0.1211  0.0497  0.0613
  588ERGO    C2 8748   4.180   7.031   8.479 -0.3123 -0.1512  0.3161
  589ERGO   ROH 8749  11.211   0.555  10.360  0.3104  0.2305  0.0617
  589ERGO    R1 8750  11.398   0.634  10.162  0.2126  0.1409 -0.0691
  589ERGO    R2 8751  11.502   0.458   9.977  0.0384  0.0795 -0.1133
  589ERGO    R3 8752  11.410   0.641   9.799 -0.0152  0.0834 -0.0797
  589ERGO    R4 8753  11.577   0.460   9.640  0.0865  0.1866 -0.1010
  589ERGO    R5 8754  11.594   0.677   9.650 -0.0068  0.1942 -0.0456
  589ERGO    C1 8755  11.534   0.633   9.276  0.0642  0.2526 -0.0624
  589ERGO    C2 8756  11.571   0.569   8.950 -0.0827  0.2865 -0.2829
  590ERGO   ROH 8757   3.227  14.776  10.114  0.1069  0.1284 -0.1079
  590ERGO    R1 8758   3.330  14.708   9.859  0.0138 -0.0921 -0.0918
  590ERGO    R2 8759   3.207  14.524   9.692 -0.2828  0.0626 -0.0688
  590ERGO    R3 8760   3.217  14.729   9.514  0.0572  0.0259 -0.0957
  590ERGO    R4 8761   3.144  14.498   9.353 -0.2931  0.1370 -0.0710
  590ERGO    R5 8762   3.309  14.633   9.316 -0.0804 -0.1328 -0.0739
  590ERGO    C1 8763   3.117  14.675   8.989  0.0201  0.1458 -0.0974
  590ERGO    C2 8764   3.147  14.618   8.657 -0.2672 -0.0229  0.1811
  591ERGO   ROH 8765  17.543   2.266  10.000 -0.0679 -0.2924 -0.0783
  591ERGO    R1 8766  17.519   2.142   9.747  0.0065 -0.2068 -0.1283
  591ERGO    R2 8767  17.274   2.099   9.625  0.0387 -0.2111 -0.1919
  591ERGO    R3 8768  17.390   2.233   9.419  0.0539 -0.1141 -0.1215
  591ERGO    R4 8769  17.183   2.066   9.294 -0.2243  0.2588 -0.1751
  591ERGO    R5 8770  17.395   2.073   9.240 -0.2491  0.0731 -0.3059
  591ERGO    C1 8771  17.239   2.172   8.907 -0.3632  0.6235 -0.0994
  591ERGO    C2 8772  17.190   2.141   8.581 -0.1185  0.0074  0.1633
  592ERGO   ROH 8773   3.684   8.942   9.760  0.1488  0.0530  0.0298
  592ERGO    R1 8774   3.907   8.980   9.590  0.0990  0.2016 -0.0034
  592ERGO    R2 8775   3.983   8.793   9.401  0.2896  0.1798  0.0957
  592ERGO    R3 8776   3.964   9.005   9.231  0.0514  0.0678 -0.0213
  592ERGO    R4 8777   4.131   8.812   9.089  0.0492  0.0641 -0.0276
  592ERGO    R5 8778   4.179   9.020   9.129 -0.0288  0.1182 -0.1906
  592ERGO    C1 8779   4.198   9.022   8.748 -0.3143 -0.1084 -0.2093
  592ERGO    C2 8780   4.231   8.996   8.356  0.3411 -0.2549  0.2429
  593ERGO   ROH 8781  11.552   7.240  10.145 -0.1631 -0.0893  0.0103
  593ERGO    R1 8782  11.591   7.305   9.872 -0.1487  0.0330  0.0409
  593ERGO    R2 8783  11.715   7.133   9.694  0.0263  0.1859  0.0104
  593ERGO    R3 8784  11.487   7.170   9.550  0.0294  0.0592 -0.0285
  593ERGO    R4 8785  11.690   7.099   9.351  0.1336  0.3062 -0.0104
  593ERGO    R5 8786  11.561   7.274   9.348 -0.0083  0.2026  0.0314
  593ERGO    C1 8787  11.463   7.113   9.016  0.1991  0.2573 -0.0589
  593ERGO    C2 8788  11.384   7.066   8.717 -0.2687 -0.0476 -0.1909
  594ERGO   ROH 8789  14.914   4.976   9.542 -0.1373 -0.0583 -0.0263
  594ERGO    R1 8790  14.972   5.133   9.314  0.0039 -0.0915 -0.0149
  594ERGO    R2 8791  15.209   5.110   9.174  0.0601 -0.1696  0.0845
  594ERGO    R3 8792  15.043   5.071   8.962  0.1349 -0.1408  0.0210
  594ERGO    R4 8793  15.300   5.147   8.843  0.1027  0.1220  0.1262
  594ERGO    R5 8794  15.107   5.240   8.805  0.0478  0.0105  0.1500
  594ERGO    C1 8795  15.197   5.132   8.451  0.1978  0.3189  0.0908
  594ERGO    C2 8796  15.427   5.111   8.323  0.0208  0.1523  0.0379
  595ERGO   ROH 8797  10.173   0.753   9.989  0.0647  0.0656  0.2068
  595ERGO    R1 8798  10.262   0.831   9.732  0.1085 -0.0942  0.1718
  595ERGO    R2 8799  10.260   0.660   9.515 -0.0165 -0.1780  0.2361
  595ERGO    R3 8800  10.118   0.861   9.400  0.1146 -0.1247  0.1669
  595ERGO    R4 8801  10.240   0.718   9.175  0.0584 -0.2523  0.2192
  595ERGO    R5 8802  10.254   0.932   9.215  0.1775 -0.2504  0.1654
  595ERGO    C1 8803  10.096   0.941   8.869  0.2251 -0.2455  0.1443
  595ERGO    C2 8804  10.109   1.049   8.567  0.1088  0.1681  0.1238
  596ERGO   ROH 8805  15.946  13.382  10.287 -0.1813 -0.0931 -0.0688
  596ERGO    R1 8806  15.918  13.269  10.029 -0.1544 -0.2151 -0.0197
  596ERGO    R2 8807  15.722  13.084   9.968 -0.2966 -0.0775 -0.0144
  596ERGO    R3 8808  15.663  13.260   9.770 -0.0354 -0.1283 -0.1382
  596ERGO    R4 8809  15.599  12.997   9.657 -0.2373 -0.1173 -0.0259
  596ERGO    R5 8810  15.730  13.148   9.569 -0.0545 -0.2949 -0.0473
  596ERGO    C1 8811  15.472  13.113   9.289  0.0426 -0.1881 -0.1489
  596ERGO    C2 8812  15.341  12.865   9.022  0.2660 -0.3471  0.2608
  597ERGO   ROH 8813  17.721  17.107  10.110 -0.1527 -0.1748  0.0292
  597ERGO    R1 8814  17.577  17.033   9.879 -0.1254  0.0671 -0.0695
  597ERGO    R2 8815  17.572  17.188   9.650  0.2925  0.0791 -0.0801
  597ERGO    R3 8816  17.654  16.957   9.531 -0.0118 -0.0668 -0.0157
  597ERGO    R4 8817  17.537  17.116   9.314  0.1997  0.0334 -0.0600
  597ERGO    R5 8818  17.485  16.911   9.368 -0.0746  0.1143 -0.0036
  597ERGO    C1 8819  17.593  16.858   9.006 -0.1403 -0.1302  0.0120
  597ERGO    C2 8820  17.528  16.725   8.845  0.2288 -0.0558  0.0591
  598ERGO   ROH 8821  16.592   2.606  10.255 -0.3012 -0.1982  0.0663
  598ERGO    R1 8822  16.471   2.660  10.005 -0.1526 -0.1656  0.0008
  598ERGO    R2 8823  16.617   2.733   9.781 -0.0138 -0.2063  0.0808
  598ERGO    R3 8824  16.487   2.523   9.668 -0.0113 -0.1692  0.0071
  598ERGO    R4 8825  16.561   2.694   9.443 -0.1268 -0.0154  0.0755
  598ERGO    R5 8826  16.362   2.620   9.489 -0.0980 -0.0854  0.1075
  598ERGO    C1 8827  16.406   2.474   9.139 -0.1901  0.1305  0.0032
  598ERGO    C2 8828  16.374   2.457   8.776 -0.2718 -0.0367  0.3397
  599ERGO   ROH 8829  17.723  10.511  10.160  0.3210  0.0739  0.0992
  599ERGO    R1 8830  17.663  10.561   9.888  0.2026  0.1585  0.1403
  599ERGO    R2 8831  17.859  10.602   9.698  0.1218  0.1414  0.0543
  599ERGO    R3 8832  17.730  10.400   9.569 -0.0063  0.2138  0.0664
  599ERGO    R4 8833  17.903  10.520   9.365  0.1500  0.0309  0.0847
  599ERGO    R5 8834  17.689  10.487   9.349  0.1240  0.2000  0.0340
  599ERGO    C1 8835  17.809  10.283   9.050  0.0460  0.0344  0.1138
  599ERGO    C2 8836  17.736  10.299   8.757 -0.1374  0.1562 -0.0829
  600ERGO   ROH 8837   7.871  11.462  10.132 -0.0971 -0.1553 -0.1215
  600ERGO    R1 8838   7.752  11.452   9.875 -0.0261  0.0841 -0.1668
  600ERGO    R2 8839   7.802  11.642   9.681  0.2801  0.0955 -0.0874
  600ERGO    R3 8840   7.869  11.425   9.532  0.0592  0.0587 -0.1352
  600ERGO    R4 8841   7.911  11.654   9.353  0.4190  0.0636 -0.0426
  600ERGO    R5 8842   7.790  11.477   9.312  0.2088  0.2324 -0.1470
  600ERGO    C1 8843   8.037  11.457   9.022  0.2926  0.0104 -0.0614
  600ERGO    C2 8844   8.001  11.677   8.703  0.0365 -0.1928  0.0093
  601ERGO   ROH 8845  12.638   7.196  10.242 -0.0534 -0.0791  0.1971
  601ERGO    R1 8846  12.510   7.293  10.010 -0.0422 -0.0689  0.1959
  601ERGO    R2 8847  12.642   7.442   9.818 -0.0202 -0.1074  0.1844
  601ERGO    R3 8848  12.547   7.251   9.650 -0.0635 -0.0980  0.1967
  601ERGO    R4 8849  12.646   7.463   9.473 -0.0613 -0.1092  0.1830
  601ERGO    R5 8850  12.447   7.375   9.471 -0.0728 -0.0868  0.2084
  601ERGO    C1 8851  12.559   7.296   9.115 -0.1259 -0.1015  0.1937
  601ERGO    C2 8852  12.660   7.313   8.778  0.2800  0.3564  0.1610
  602ERGO   ROH 8853   8.518   8.690  10.084 -0.1588  0.0449  0.0891
  602ERGO    R1 8854   8.377   8.803   9.867  0.0062  0.1698  0.0451
  602ERGO    R2 8855   8.504   8.904   9.643  0.1619  0.0069  0.0583
  602ERGO    R3 8856   8.338   8.734   9.512  0.0052  0.1664  0.0457
  602ERGO    R4 8857   8.486   8.871   9.299  0.0211  0.1589  0.0500
  602ERGO    R5 8858   8.269   8.855   9.317  0.0151  0.2914  0.1185
  602ERGO    C1 8859   8.319   8.692   8.976 -0.2080  0.3972  0.0332
  602ERGO    C2 8860   8.250   8.556   8.719 -0.3075  0.0108 -0.0975
  603ERGO   ROH 8861  16.796   7.248   9.875 -0.2429 -0.1351 -0.1872
  603ERGO    R1 8862  16.791   7.145   9.611  0.0507 -0.2183 -0.1644
  603ERGO    R2 8863  16.827   7.304   9.389 -0.1987 -0.1946 -0.1912
  603ERGO    R3 8864  17.022   7.123   9.331  0.1950  0.1771 -0.0823
  603ERGO    R4 8865  16.904   7.191   9.071 -0.1833 -0.4595 -0.0957
  603ERGO    R5 8866  16.929   6.991   9.154  0.3597 -0.2987  0.1702
  603ERGO    C1 8867  17.131   6.955   8.832  0.1954 -0.2647  0.0621
  603ERGO    C2 8868  17.202   7.052   8.540  0.5307  0.0937  0.0275
  604ERGO   ROH 8869  18.065  16.296  10.525 -0.0401 -0.0463  0.0645
  604ERGO    R1 8870  18.177  16.277  10.265  0.1023 -0.0159  0.1230
  604ERGO    R2 8871  18.143  16.056  10.104  0.1639  0.0161  0.0664
  604ERGO    R3 8872  18.052  16.239   9.926  0.2865  0.0577  0.0454
  604ERGO    R4 8873  18.075  15.991   9.772  0.1005  0.0168  0.0790
  604ERGO    R5 8874  18.163  16.184   9.721  0.2374 -0.0522  0.0473
  604ERGO    C1 8875  17.950  16.125   9.410  0.1787  0.0562  0.0667
  604ERGO    C2 8876  17.702  15.896   9.307 -0.3223  0.1883 -0.0904
  605ERGO   ROH 8877  14.967   5.910   9.547  0.1423 -0.4516 -0.1821
  605ERGO    R1 8878  14.795   5.922   9.323  0.1632 -0.3660 -0.1958
  605ERGO    R2 8879  14.634   6.140   9.270  0.0490 -0.4022 -0.0455
  605ERGO    R3 8880  14.758   6.133   9.028  0.0928 -0.1487 -0.0316
  605ERGO    R4 8881  14.474   6.172   8.965  0.0647 -0.4634 -0.0590
  605ERGO    R5 8882  14.604   6.016   8.886  0.2602 -0.2693 -0.1072
  605ERGO    C1 8883  14.497   6.185   8.561  0.1148 -0.2611 -0.0539
  605ERGO    C2 8884  14.361   6.315   8.305 -0.0712  0.1296  0.0243
  606ERGO   ROH 8885   7.826   9.606  10.223 -0.0817 -0.0736  0.0012
  606ERGO    R1 8886   7.744   9.785  10.020 -0.0289 -0.0959 -0.0392
  606ERGO    R2 8887   7.920   9.955   9.892 -0.0085 -0.0664  0.0352
  606ERGO    R3 8888   7.819   9.838   9.668  0.1128 -0.0881 -0.0098
  606ERGO    R4 8889   7.875  10.114   9.588 -0.0035 -0.0392  0.0482
  606ERGO    R5 8890   7.686  10.009   9.566  0.0519 -0.1361 -0.0194
  606ERGO    C1 8891   7.755  10.097   9.202  0.1134 -0.0438  0.0134
  606ERGO    C2 8892   7.810  10.102   8.914  0.0795  0.0459 -0.3833
  607ERGO   ROH 8893   2.479   7.801   9.748 -0.2226  0.2296  0.0773
  607ERGO    R1 8894   2.353   7.832   9.497 -0.3452  0.2769  0.1446
  607ERGO    R2 8895   2.348   8.073   9.362  0.0176  0.1885 -0.0293
  607ERGO    R3 8896   2.454   7.925   9.160 -0.4050 -0.1699 -0.0039
  607ERGO    R4 8897   2.343   8.163   9.028  0.2437  0.1410 -0.0477
  607ERGO    R5 8898   2.300   7.955   8.978 -0.3518  0.2274  0.0029
  607ERGO    C1 8899   2.439   8.077   8.644 -0.0214 -0.2230 -0.0346
  607ERGO    C2 8900   2.463   8.001   8.310 -0.1684 -0.2102 -0.0840
  608ERGO   ROH 8901   3.060   2.626   9.681 -0.3545  0.0681 -0.0435
  608ERGO    R1 8902   3.140   2.591   9.411 -0.1629 -0.1423  0.0375
  608ERGO    R2 8903   3.035   2.393   9.249 -0.4020  0.0275 -0.0157
  608ERGO    R3 8904   2.980   2.602   9.085  0.1636  0.1108 -0.1210
  608ERGO    R4 8905   2.983   2.368   8.909 -0.2999  0.0209 -0.0315
  608ERGO    R5 8906   3.097   2.552   8.882  0.1508 -0.2441 -0.0492
  608ERGO    C1 8907   2.900   2.550   8.556  0.2904  0.0953 -0.1395
  608ERGO    C2 8908   2.870   2.502   8.269 -0.0866 -0.0419  0.0457
  609ERGO   ROH 8909  10.130   7.926  10.134 -0.3222  0.3196  0.0470
  609ERGO    R1 8910  10.159   7.723   9.938  0.0940  0.3116  0.1090
  609ERGO    R2 8911   9.953   7.648   9.769  0.2097 -0.2291  0.1884
  609ERGO    R3 8912  10.136   7.701   9.576  0.0412  0.1364  0.1232
  609ERGO    R4 8913   9.921   7.562   9.436  0.1793 -0.1050  0.1592
  609ERGO    R5 8914  10.131   7.510   9.433  0.2555  0.2023  0.0281
  609ERGO    C1 8915  10.073   7.563   9.060  0.0035  0.3104  0.0809
  609ERGO    C2 8916  10.196   7.558   8.689  0.0857 -0.1447  0.1353
  610ERGO   ROH 8917  12.685  11.878  10.586 -0.0486  0.2148 -0.1515
  610ERGO    R1 8918  12.764  11.920  10.318  0.0358  0.1705 -0.1341
  610ERGO    R2 8919  13.008  11.834  10.219  0.0340  0.0801 -0.0657
  610ERGO    R3 8920  12.853  11.711  10.033  0.0386  0.1207 -0.0962
  610ERGO    R4 8921  13.105  11.764   9.895  0.0744  0.0592 -0.0489
  610ERGO    R5 8922  12.906  11.821   9.828  0.1024  0.1083 -0.0848
  610ERGO    C1 8923  13.016  11.608   9.532  0.1024  0.0851 -0.0677
  610ERGO    C2 8924  13.050  11.598   9.185  0.2371 -0.2433 -0.0716
  611ERGO   ROH 8925   7.882  18.000  10.006 -0.3403  0.0545  0.0419
  611ERGO    R1 8926   7.793  18.100   9.757 -0.2173  0.0573 -0.0017
  611ERGO    R2 8927   7.967  18.170   9.554 -0.1229 -0.0949  0.0240
  611ERGO    R3 8928   7.815  17.998   9.408 -0.1956 -0.0321  0.0258
  611ERGO    R4 8929   7.951  18.165   9.209 -0.0798 -0.1310  0.0226
  611ERGO    R5 8930   7.737  18.130   9.224 -0.1004 -0.0140 -0.0016
  611ERGO    C1 8931   7.799  18.001   8.871 -0.1229 -0.0933  0.0235
  611ERGO    C2 8932   7.661  18.145   8.507  0.0365  0.0819 -0.0543
  612ERGO   ROH 8933  14.530   9.533  10.549 -0.1941  0.0752  0.0986
  612ERGO    R1 8934  14.430   9.421  10.308 -0.0642 -0.0393  0.0957
  612ERGO    R2 8935  14.313   9.575  10.110 -0.1610 -0.1599  0.0556
  612ERGO    R3 8936  14.499   9.455   9.953 -0.0340 -0.0267  0.1034
  612ERGO    R4 8937  14.286   9.534   9.768 -0.0762 -0.2475  0.0595
  612ERGO    R5 8938  14.372   9.335   9.790  0.0947 -0.1687  0.1072
  612ERGO    C1 8939  14.446   9.398   9.421  0.0926 -0.1734  0.1065
  612ERGO    C2 8940  14.620   9.270   9.057  0.0798 -0.1822 -0.0144
  613ERGO   ROH 8941   8.686   0.529   9.720 -0.4018 -0.1195  0.0900
  613ERGO    R1 8942   8.742   0.618   9.457 -0.1080 -0.4264  0.0428
  613ERGO    R2 8943   8.658   0.482   9.233 -0.6054 -0.2583  0.1202
  613ERGO    R3 8944   8.549   0.722   9.166  0.2051  0.1135  0.0115
  613ERGO    R4 8945   8.597   0.586   8.909 -0.6434 -0.4042  0.0789
  613ERGO    R5 8946   8.666   0.785   8.966  0.2082 -0.5618 -0.2334
  613ERGO    C1 8947   8.458   0.872   8.658  0.0952 -0.1402 -0.0472
  613ERGO    C2 8948   8.276   0.869   8.424  0.2871 -0.0983  0.3077
  614ERGO   ROH 8949  12.081  15.701  10.055 -0.0337  0.0598 -0.0192
  614ERGO    R1 8950  11.872  15.721   9.866  0.0078  0.2536 -0.0461
  614ERGO    R2 8951  11.829  15.949   9.716  0.3463  0.2386 -0.1766
  614ERGO    R3 8952  11.845  15.777   9.507  0.1185  0.0942 -0.0799
  614ERGO    R4 8953  11.701  16.009   9.400  0.4875  0.2564 -0.2315
  614ERGO    R5 8954  11.636  15.801   9.393  0.1717  0.3484 -0.1261
  614ERGO    C1 8955  11.643  15.882   9.020  0.3559  0.1313 -0.1726
  614ERGO    C2 8956  11.475  15.824   8.603  0.1180 -0.2272  0.1696
  615ERGO   ROH 8957   3.658  16.310   9.869  0.1003  0.0715  0.1830
  615ERGO    R1 8958   3.556  16.351   9.609  0.1053 -0.1909  0.1370
  615ERGO    R2 8959   3.640  16.559   9.447 -0.2053 -0.0917  0.0983
  615ERGO    R3 8960   3.690  16.358   9.270  0.2000 -0.0680  0.1760
  615ERGO    R4 8961   3.740  16.605   9.119 -0.0889 -0.0249  0.1422
  615ERGO    R5 8962   3.608  16.441   9.061  0.1878 -0.2460  0.1075
  615ERGO    C1 8963   3.845  16.443   8.763  0.3594  0.0362  0.2409
  615ERGO    C2 8964   3.930  16.614   8.424  0.1658 -0.1314 -0.2758
  616ERGO   ROH 8965   0.454   8.690   9.907  0.1443 -0.0361 -0.0834
  616ERGO    R1 8966   0.272   8.540   9.750  0.1941 -0.0856 -0.0948
  616ERGO    R2 8967   0.093   8.659   9.577  0.0394 -0.1216  0.0351
  616ERGO    R3 8968   0.207   8.491   9.396  0.0975  0.0593 -0.0975
  616ERGO    R4 8969  -0.043   8.579   9.269 -0.0772 -0.1572  0.0957
  616ERGO    R5 8970   0.022   8.373   9.300  0.1581 -0.1009 -0.0174
  616ERGO    C1 8971  -0.015   8.376   8.920 -0.0907 -0.0080  0.0065
  616ERGO    C2 8972  -0.073   8.152   8.698  0.2280  0.1111 -0.0317
  617ERGO   ROH 8973  12.888  10.247  10.187  0.0151  0.0422  0.0555
  617ERGO    R1 8974  12.890  10.145   9.923  0.2366 -0.0363  0.0855
  617ERGO    R2 8975  12.708  10.225   9.731  0.0853 -0.4520  0.0445
  617ERGO    R3 8976  12.932  10.281   9.587 -0.0060 -0.0484  0.0494
  617ERGO    R4 8977  12.740  10.178   9.390  0.1383 -0.2612  0.0226
  617ERGO    R5 8978  12.943  10.106   9.424  0.2542  0.0346 -0.0239
  617ERGO    C1 8979  12.969  10.204   9.057  0.0834  0.2287  0.0145
  617ERGO    C2 8980  12.906  10.238   8.716  0.0746  0.0490 -0.1536
  618ERGO   ROH 8981   1.391   2.697   9.695 -0.0193 -0.0479  0.0783
  618ERGO    R1 8982   1.364   2.865   9.468  0.2094  0.0945  0.1538
  618ERGO    R2 8983   1.574   2.918   9.296  0.2465 -0.2475  0.0880
  618ERGO    R3 8984   1.399   2.830   9.108 -0.0098  0.1597  0.1248
  618ERGO    R4 8985   1.598   2.985   8.958  0.1990 -0.1139  0.1104
  618ERGO    R5 8986   1.382   3.013   8.954  0.2378  0.2763  0.2292
  618ERGO    C1 8987   1.447   2.943   8.584 -0.0693  0.3462  0.1583
  618ERGO    C2 8988   1.405   2.849   8.235 -0.3679 -0.2396 -0.0514
  619ERGO   ROH 8989   2.988   5.613   9.834  0.2301 -0.2040  0.0350
  619ERGO    R1 8990   2.977   5.449   9.603 -0.1176 -0.1287 -0.0075
  619ERGO    R2 8991   2.741   5.393   9.471 -0.2646  0.2804  0.0643
  619ERGO    R3 8992   2.876   5.489   9.255 -0.1905  0.1284  0.0420
  619ERGO    R4 8993   2.662   5.324   9.142 -0.3675  0.3412  0.0755
  619ERGO    R5 8994   2.875   5.307   9.099 -0.3906  0.1212  0.0529
  619ERGO    C1 8995   2.743   5.373   8.748 -0.3579  0.2340  0.0611
  619ERGO    C2 8996   2.709   5.211   8.413 -0.1485 -0.0832 -0.2020
  620ERGO   ROH 8997   5.933   1.887   9.523 -0.0102 -0.0848 -0.0955
  620ERGO    R1 8998   6.008   1.697   9.327  0.1212 -0.0912 -0.0415
  620ERGO    R2 8999   5.844   1.628   9.115  0.1226 -0.3391  0.0268
  620ERGO    R3 9000   6.062   1.695   8.967  0.0174 -0.1766 -0.0552
  620ERGO    R4 9001   5.871   1.587   8.773 -0.0204 -0.1684 -0.0059
  620ERGO    R5 9002   6.077   1.523   8.802  0.0169 -0.0883 -0.1405
  620ERGO    C1 9003   6.092   1.626   8.435 -0.2023  0.0837 -0.1020
  620ERGO    C2 9004   6.171   1.698   8.152  0.0604 -0.0767  0.1062
  621ERGO   ROH 9005   4.779  12.688  10.092  0.0492 -0.3075 -0.1404
  621ERGO    R1 9006   4.794  12.729   9.812 -0.0011 -0.2606 -0.1369
  621ERGO    R2 9007   4.933  12.939   9.699 -0.1376 -0.1598 -0.1227
  621ERGO    R3 9008   5.056  12.741   9.560 -0.0306 -0.0678 -0.1596
  621ERGO    R4 9009   5.090  12.980   9.394 -0.1901 -0.0232 -0.1315
  621ERGO    R5 9010   5.006  12.789   9.331 -0.0812 -0.0665 -0.1484
  621ERGO    C1 9011   5.297  12.818   9.086 -0.1201  0.1427 -0.1712
  621ERGO    C2 9012   5.450  12.887   8.726 -0.1370 -0.2050  0.0616
  622ERGO   ROH 9013   1.786   1.701   9.818 -0.1952  0.1246 -0.0877
  622ERGO    R1 9014   1.685   1.730   9.555 -0.1844 -0.0208 -0.1078
  622ERGO    R2 9015   1.832   1.843   9.350 -0.2366  0.0093 -0.1215
  622ERGO    R3 9016   1.774   1.610   9.223 -0.0735 -0.0647 -0.0649
  622ERGO    R4 9017   1.836   1.798   9.007 -0.1115 -0.0818 -0.1091
  622ERGO    R5 9018   1.656   1.677   9.026 -0.0579 -0.1796 -0.1214
  622ERGO    C1 9019   1.783   1.553   8.689  0.1144 -0.2042 -0.0488
  622ERGO    C2 9020   1.869   1.511   8.314 -0.1283  0.1498 -0.2301
  623ERGO   ROH 9021  17.152   9.626   9.873 -0.2113 -0.2596 -0.0338
  623ERGO    R1 9022  17.133   9.748   9.619 -0.1132 -0.0727  0.0450
  623ERGO    R2 9023  17.124   9.602   9.384  0.0381  0.0975 -0.0752
  623ERGO    R3 9024  16.897   9.746   9.342  0.0240  0.0740 -0.0737
  623ERGO    R4 9025  17.021   9.724   9.078 -0.0495 -0.0231 -0.0941
  623ERGO    R5 9026  16.959   9.908   9.177 -0.0279  0.0106 -0.1517
  623ERGO    C1 9027  16.749   9.931   8.859 -0.1135 -0.1155 -0.1035
  623ERGO    C2 9028  16.535  10.009   8.565  0.0127 -0.0633  0.2908
  624ERGO   ROH 9029  15.897   7.593  10.174  0.2481 -0.1581  0.1032
  624ERGO    R1 9030  15.897   7.791   9.971  0.0031 -0.2126  0.0477
  624ERGO    R2 9031  16.111   7.828   9.800  0.0425  0.1303  0.1701
  624ERGO    R3 9032  15.920   7.798   9.608  0.2089 -0.2768  0.0570
  624ERGO    R4 9033  16.140   7.938   9.474 -0.0781  0.4105  0.2503
  624ERGO    R5 9034  15.931   8.001   9.481 -0.2705 -0.1541  0.1863
  624ERGO    C1 9035  15.979   7.974   9.104  0.0081  0.1915  0.1908
  624ERGO    C2 9036  15.803   8.008   8.854 -0.2242 -0.0720 -0.1915
  625ERGO   ROH 9037  11.468   9.807  10.063  0.1639 -0.0259  0.0147
  625ERGO    R1 9038  11.426   9.655   9.828  0.0891 -0.0858  0.0651
  625ERGO    R2 9039  11.301   9.760   9.604 -0.0693 -0.1692  0.1060
  625ERGO    R3 9040  11.528   9.675   9.479 -0.1030 -0.1133  0.0079
  625ERGO    R4 9041  11.338   9.722   9.262 -0.1781 -0.1082  0.0879
  625ERGO    R5 9042  11.450   9.539   9.299 -0.1400 -0.0922  0.0140
  625ERGO    C1 9043  11.571   9.620   8.946 -0.2730 -0.0201 -0.0148
  625ERGO    C2 9044  11.688   9.745   8.631  0.0827 -0.1613  0.2354
  626ERGO   ROH 9045  10.952  17.955   9.921  0.1816  0.2984 -0.0202
  626ERGO    R1 9046  10.835  17.959   9.663  0.1094  0.2760  0.0124
  626ERGO    R2 9047  10.859  18.174   9.491  0.2568  0.1697 -0.1015
  626ERGO    R3 9048  10.952  17.985   9.320  0.0353 -0.0026 -0.0373
  626ERGO    R4 9049  10.862  18.203   9.147  0.2064  0.0098 -0.1161
  626ERGO    R5 9050  10.803  17.994   9.134 -0.0009  0.0573 -0.0070
  626ERGO    C1 9051  10.952  18.042   8.786 -0.0310 -0.2452 -0.0644
  626ERGO    C2 9052  11.099  17.999   8.468 -0.0657 -0.2071 -0.1182
  627ERGO   ROH 9053  17.839   1.329  10.071 -0.0030 -0.2361  0.0817
  627ERGO    R1 9054  17.836   1.418   9.802  0.0625 -0.0712  0.1334
  627ERGO    R2 9055  18.065   1.433   9.648  0.0866 -0.0995  0.1559
  627ERGO    R3 9056  17.922   1.279   9.477  0.0119  0.0759  0.0587
  627ERGO    R4 9057  18.147   1.379   9.317  0.2365 -0.2118  0.2104
  627ERGO    R5 9058  17.935   1.395   9.268  0.2947  0.0504  0.0653
  627ERGO    C1 9059  18.061   1.203   8.963  0.2536 -0.1126  0.1508
  627ERGO    C2 9060  18.220   1.250   8.671  0.2323 -0.2828  0.0682
  628ERGO   ROH 9061  17.955   4.106  10.005 -0.0061 -0.0022  0.0106
  628ERGO    R1 9062  18.162   4.123   9.813  0.0379  0.1041  0.0668
  628ERGO    R2 9063  18.148   3.997   9.568  0.1959  0.0444  0.0884
  628ERGO    R3 9064  18.198   4.247   9.472  0.0490  0.0610  0.0517
  628ERGO    R4 9065  18.214   4.072   9.237  0.1297  0.0353  0.0729
  628ERGO    R5 9066  18.366   4.213   9.304  0.0568  0.1310  0.0439
  628ERGO    C1 9067  18.299   4.350   8.954 -0.0467  0.0455  0.0295
  628ERGO    C2 9068  18.389   4.336   8.668  0.1065 -0.0564 -0.0511
  629ERGO   ROH 9069   7.197   8.671   9.767 -0.1733 -0.0283 -0.0915
  629ERGO    R1 9070   7.257   8.537   9.525  0.0127 -0.0885 -0.0147
  629ERGO    R2 9071   7.223   8.656   9.277 -0.1169 -0.2621 -0.0855
  629ERGO    R3 9072   7.484   8.587   9.245 -0.0240  0.0448 -0.0203
  629ERGO    R4 9073   7.378   8.610   8.972 -0.0649 -0.3854 -0.0412
  629ERGO    R5 9074   7.483   8.439   9.057  0.1655 -0.1593  0.1379
  629ERGO    C1 9075   7.714   8.519   8.764  0.0525 -0.1691  0.0459
  629ERGO    C2 9076   7.671   8.651   8.460 -0.3480  0.0430 -0.0884
  630ERGO   ROH 9077  16.417  13.087  10.252 -0.0031  0.1074  0.0815
  630ERGO    R1 9078  16.466  13.234  10.015  0.0904  0.0921  0.0908
  630ERGO    R2 9079  16.584  13.122   9.793  0.0233  0.0311  0.0851
  630ERGO    R3 9080  16.362  13.215   9.667  0.0814  0.1770  0.0888
  630ERGO    R4 9081  16.549  13.151   9.450  0.0451  0.0821  0.0870
  630ERGO    R5 9082  16.447  13.341   9.482  0.1602  0.1412  0.1009
  630ERGO    C1 9083  16.319  13.256   9.132  0.1123  0.2488  0.0915
  630ERGO    C2 9084  16.346  13.515   8.768  0.2686 -0.2989 -0.1428
  631ERGO   ROH 9085   6.164   9.073   9.988 -0.1148 -0.1634 -0.1559
  631ERGO    R1 9086   5.965   9.213   9.843 -0.0675  0.0458 -0.0221
  631ERGO    R2 9087   5.899   9.476   9.897  0.2537  0.1211  0.0160
  631ERGO    R3 9088   5.952   9.509   9.633  0.1046  0.0543 -0.0235
  631ERGO    R4 9089   5.718   9.678   9.684  0.1358  0.0743  0.0704
  631ERGO    R5 9090   5.736   9.525   9.531  0.0441  0.0348  0.0963
  631ERGO    C1 9091   5.662   9.827   9.311 -0.0729 -0.0155  0.0651
  631ERGO    C2 9092   5.489   9.988   9.086 -0.0109 -0.2883 -0.3263
  632ERGO   ROH 9093  16.427   1.264  10.117 -0.0568 -0.1088  0.0381
  632ERGO    R1 9094  16.434   1.091   9.893 -0.1477 -0.0565 -0.0068
  632ERGO    R2 9095  16.261   1.118   9.679 -0.1339  0.0921 -0.0061
  632ERGO    R3 9096  16.492   1.126   9.535 -0.1257  0.0070  0.0039
  632ERGO    R4 9097  16.283   1.081   9.336 -0.0923 -0.2400  0.0304
  632ERGO    R5 9098  16.462   0.961   9.365 -0.0684 -0.1666  0.1627
  632ERGO    C1 9099  16.512   1.066   9.001 -0.0604 -0.5132  0.0610
  632ERGO    C2 9100  16.444   0.963   8.552  0.2842  0.2804 -0.0635
  633ERGO   ROH 9101  11.163   3.259   9.890  0.0491  0.2049  0.0999
  633ERGO    R1 9102  11.017   3.307   9.652  0.0108 -0.2943  0.0138
  633ERGO    R2 9103  11.088   3.503   9.470 -0.5176 -0.0683  0.0444
  633ERGO    R3 9104  11.083   3.295   9.294  0.2505 -0.1231  0.0476
  633ERGO    R4 9105  11.102   3.533   9.126 -0.6535 -0.0024  0.0423
  633ERGO    R5 9106  10.953   3.376   9.110 -0.0888 -0.5916  0.0543
  633ERGO    C1 9107  11.105   3.357   8.761 -0.0113 -0.0154  0.0441
  633ERGO    C2 9108  11.081   3.481   8.447  0.0221 -0.2759 -0.3197
  634ERGO   ROH 9109   1.472   9.752  10.021 -0.3872 -0.1579  0.1262
  634ERGO    R1 9110   1.303   9.687   9.803 -0.2799 -0.0256  0.0006
  634ERGO    R2 9111   1.322   9.812   9.557  0.1269 -0.1664 -0.0494
  634ERGO    R3 9112   1.346   9.557   9.466 -0.1433 -0.2494  0.1010
  634ERGO    R4 9113   1.189   9.695   9.261  0.2488 -0.1156 -0.1243
  634ERGO    R5 9114   1.135   9.510   9.363 -0.1159  0.0043 -0.0827
  634ERGO    C1 9115   1.134   9.387   9.002  0.0661 -0.1638 -0.0267
  634ERGO    C2 9116   1.077   9.332   8.707  0.0048  0.2731 -0.1536
  635ERGO   ROH 9117   4.208  13.548   9.933  0.1409  0.2162 -0.0357
  635ERGO    R1 9118   4.195  13.650   9.669  0.1306  0.1939 -0.0453
  635ERGO    R2 9119   4.421  13.701   9.518  0.1256  0.0443 -0.1164
  635ERGO    R3 9120   4.297  13.541   9.337 -0.0215  0.0916 -0.0572
  635ERGO    R4 9121   4.535  13.639   9.198  0.0122 -0.1128 -0.1263
  635ERGO    R5 9122   4.329  13.651   9.127  0.0122  0.0157 -0.0868
  635ERGO    C1 9123   4.485  13.452   8.842 -0.1920 -0.1597 -0.0764
  635ERGO    C2 9124   4.601  13.402   8.453 -0.0472  0.2099  0.3101
  636ERGO   ROH 9125  15.690   3.599   9.909 -0.0090 -0.2465  0.0474
  636ERGO    R1 9126  15.790   3.474   9.676 -0.0242 -0.0999 -0.0380
  636ERGO    R2 9127  15.632   3.321   9.509 -0.0094 -0.0823 -0.0623
  636ERGO    R3 9128  15.726   3.490   9.318 -0.1267  0.0396 -0.0146
  636ERGO    R4 9129  15.664   3.242   9.174  0.1441 -0.0039 -0.0678
  636ERGO    R5 9130  15.854   3.350   9.172  0.0448  0.1813 -0.0071
  636ERGO    C1 9131  15.771   3.355   8.800  0.1234  0.1562 -0.0263
  636ERGO    C2 9132  15.738   3.250   8.522 -0.1300 -0.1194  0.2519
  637ERGO   ROH 9133  11.101   8.427  10.351  0.2355  0.2402 -0.0405
  637ERGO    R1 9134  10.950   8.449  10.113  0.1469  0.0101 -0.0072
  637ERGO    R2 9135  10.963   8.670   9.947 -0.1145 -0.0324 -0.0874
  637ERGO    R3 9136  11.020   8.485   9.757  0.0138 -0.0443 -0.0394
  637ERGO    R4 9137  10.981   8.734   9.608  0.1584 -0.0466 -0.0793
  637ERGO    R5 9138  10.880   8.544   9.572  0.1646 -0.0355 -0.1526
  637ERGO    C1 9139  11.044   8.597   9.232  0.4376 -0.0663 -0.0297
  637ERGO    C2 9140  11.118   8.420   8.956 -0.0479 -0.0693 -0.1483
  638ERGO   ROH 9141  10.499  17.125   9.861 -0.0235  0.0116  0.1563
  638ERGO    R1 9142  10.545  17.018   9.603 -0.1176 -0.0124  0.1499
  638ERGO    R2 9143  10.351  17.016   9.406 -0.1415  0.1064  0.1740
  638ERGO    R3 9144  10.543  17.142   9.261 -0.0823 -0.0067  0.1515
  638ERGO    R4 9145  10.368  17.017   9.061 -0.2841  0.2456  0.1657
  638ERGO    R5 9146  10.585  16.994   9.077 -0.2962  0.0352  0.0662
  638ERGO    C1 9147  10.559  17.136   8.724 -0.3115  0.2201  0.1396
  638ERGO    C2 9148  10.477  17.260   8.415  0.2588  0.2026  0.1338
  639ERGO   ROH 9149  15.775   9.264  10.266 -0.0174 -0.1999  0.0050
  639ERGO    R1 9150  15.678   9.214  10.004 -0.0396 -0.1077 -0.0043
  639ERGO    R2 9151  15.547   9.406   9.854 -0.0014 -0.0377  0.0534
  639ERGO    R3 9152  15.738   9.346   9.670 -0.0233 -0.0320  0.0281
  639ERGO    R4 9153  15.497   9.398   9.512 -0.0230  0.0523  0.0536
  639ERGO    R5 9154  15.623   9.220   9.503 -0.0580  0.0291  0.0047
  639ERGO    C1 9155  15.647   9.336   9.141 -0.0562  0.1100  0.0298
  639ERGO    C2 9156  15.620   9.354   8.789  0.1825 -0.3772  0.2389
  640ERGO   ROH 9157   7.605  13.441   9.724 -0.0736  0.2904  0.0860
  640ERGO    R1 9158   7.632  13.566   9.472 -0.0946  0.1838  0.0289
  640ERGO    R2 9159   7.762  13.446   9.259 -0.1021  0.0952  0.0674
  640ERGO    R3 9160   7.528  13.498   9.130 -0.1152  0.0300  0.0665
  640ERGO    R4 9161   7.709  13.406   8.920 -0.0894  0.1077  0.0648
  640ERGO    R5 9162   7.595  13.591   8.920 -0.1465  0.0668  0.0769
  640ERGO    C1 9163   7.459  13.431   8.601 -0.0943  0.0539  0.0625
  640ERGO    C2 9164   7.388  13.409   8.320 -0.2784 -0.1184 -0.0561
  641ERGO   ROH 9165   3.940   5.534   9.835 -0.1374  0.0162  0.0948
  641ERGO    R1 9166   3.889   5.668   9.590 -0.0941 -0.1144  0.0133
  641ERGO    R2 9167   4.062   5.656   9.375 -0.0379 -0.2000  0.0641
  641ERGO    R3 9168   3.839   5.574   9.243  0.0075 -0.2973  0.0464
  641ERGO    R4 9169   4.022   5.664   9.032 -0.1611  0.1668  0.0830
  641ERGO    R5 9170   3.816   5.730   9.062 -0.2309 -0.1010  0.2374
  641ERGO    C1 9171   3.789   5.592   8.708 -0.1902  0.2892  0.0774
  641ERGO    C2 9172   3.812   5.339   8.528 -0.2393  0.1664 -0.0683
  642ERGO   ROH 9173   3.364   1.622   9.734 -0.1293 -0.0879  0.0428
  642ERGO    R1 9174   3.542   1.599   9.515 -0.0576  0.0491  0.0843
  642ERGO    R2 9175   3.505   1.415   9.312  0.1298  0.0186  0.0700
  642ERGO    R3 9176   3.523   1.636   9.154 -0.0026  0.0378  0.0813
  642ERGO    R4 9177   3.578   1.411   8.974  0.2357  0.0922  0.0922
  642ERGO    R5 9178   3.703   1.586   9.004  0.0815  0.1924  0.1339
  642ERGO    C1 9179   3.638   1.615   8.629  0.1730  0.1531  0.1158
  642ERGO    C2 9180   3.778   1.552   8.302 -0.2365  0.0763  0.0067
  643ERGO   ROH 9181   6.046   5.729   9.392  0.0798 -0.3472  0.1162
  643ERGO    R1 9182   6.028   5.567   9.161 -0.1223 -0.1390 -0.0175
  643ERGO    R2 9183   5.942   5.665   8.917  0.1870  0.2203  0.0121
  643ERGO    R3 9184   6.178   5.562   8.830  0.0373 -0.1759  0.0544
  643ERGO    R4 9185   5.990   5.507   8.613  0.0234  0.3469 -0.0818
  643ERGO    R5 9186   6.117   5.362   8.714 -0.2993  0.0191 -0.1217
  643ERGO    C1 9187   6.239   5.318   8.355 -0.2124  0.0486 -0.0968
  643ERGO    C2 9188   6.299   5.162   7.926 -0.2085 -0.1692 -0.0397
  644ERGO   ROH 9189  14.749   3.121   9.816 -0.0227 -0.0140 -0.0552
  644ERGO    R1 9190  14.742   2.994   9.563 -0.0438  0.0273 -0.0763
  644ERGO    R2 9191  14.536   3.031   9.382  0.0098  0.1732 -0.1166
  644ERGO    R3 9192  14.739   3.100   9.214  0.0868  0.0862 -0.0584
  644ERGO    R4 9193  14.543   2.965   9.043  0.1699  0.0258 -0.0853
  644ERGO    R5 9194  14.755   2.916   9.062  0.1520  0.0248  0.0298
  644ERGO    C1 9195  14.738   2.991   8.688  0.3354 -0.1416 -0.0125
  644ERGO    C2 9196  14.497   2.912   8.375  0.1858  0.1028 -0.2419
  645ERGO   ROH 9197   1.637   5.572   9.951  0.0192 -0.2032 -0.0901
  645ERGO    R1 9198   1.748   5.594   9.691  0.1491  0.0763 -0.0155
  645ERGO    R2 9199   1.635   5.471   9.470  0.5689 -0.1653 -0.1068
  645ERGO    R3 9200   1.641   5.723   9.368  0.0636 -0.1284 -0.0707
  645ERGO    R4 9201   1.583   5.552   9.138  0.3088 -0.2063 -0.0777
  645ERGO    R5 9202   1.743   5.698   9.153  0.0448  0.0971 -0.1077
  645ERGO    C1 9203   1.558   5.835   8.849 -0.3170 -0.1956 -0.0269
  645ERGO    C2 9204   1.586   5.899   8.533 -0.1637 -0.0845 -0.0283
  646ERGO   ROH 9205  13.263   5.606   9.622  0.0921  0.2009 -0.0475
  646ERGO    R1 9206  13.288   5.481   9.369  0.0505  0.0894  0.0027
  646ERGO    R2 9207  13.072   5.438   9.202  0.0402  0.1233  0.0061
  646ERGO    R3 9208  13.225   5.571   9.022  0.1139 -0.0173 -0.0368
  646ERGO    R4 9209  13.038   5.416   8.859  0.0894 -0.0348  0.0103
  646ERGO    R5 9210  13.255   5.416   8.842  0.0915 -0.1160  0.0446
  646ERGO    C1 9211  13.162   5.529   8.490  0.1874 -0.2589 -0.0275
  646ERGO    C2 9212  12.964   5.495   8.225  0.0643  0.1863 -0.0797
  647ERGO   ROH 9213   8.992  17.143   9.683 -0.0203  0.1095 -0.2190
  647ERGO    R1 9214   9.047  17.119   9.406  0.1419  0.1108 -0.1885
  647ERGO    R2 9215   8.857  17.169   9.211  0.1078 -0.3465 -0.2891
  647ERGO    R3 9216   9.047  17.338   9.116 -0.1888  0.0071 -0.2703
  647ERGO    R4 9217   8.883  17.273   8.883 -0.0262 -0.3206 -0.2914
  647ERGO    R5 9218   9.099  17.254   8.899  0.0113  0.0869 -0.2527
  647ERGO    C1 9219   9.076  17.492   8.602 -0.3824  0.0264 -0.2751
  647ERGO    C2 9220   9.120  17.584   8.312 -0.2120  0.1841  0.0427
  648ERGO   ROH 9221   9.747   8.722   9.989 -0.1120 -0.1412  0.1314
  648ERGO    R1 9222   9.776   8.764   9.711 -0.2266 -0.2738  0.0976
  648ERGO    R2 9223   9.995   8.891   9.601 -0.4744  0.0843 -0.0131
  648ERGO    R3 9224  10.010   8.665   9.451 -0.0564 -0.0004  0.1446
  648ERGO    R4 9225  10.047   8.885   9.260 -0.4918 -0.0623 -0.0127
  648ERGO    R5 9226   9.901   8.723   9.246 -0.1873 -0.3546  0.1108
  648ERGO    C1 9227  10.092   8.669   8.920 -0.1095 -0.2272  0.1358
  648ERGO    C2 9228  10.275   8.572   8.668 -0.0151  0.2126  0.0533
  649ERGO   ROH 9229  14.858  10.850  10.307 -0.0954 -0.1638  0.1700
  649ERGO    R1 9230  14.725  10.929  10.071 -0.0052 -0.1041  0.1384
  649ERGO    R2 9231  14.854  11.059   9.863  0.1126 -0.2040  0.1471
  649ERGO    R3 9232  14.751  10.855   9.715  0.0120 -0.1563  0.1506
  649ERGO    R4 9233  14.816  11.063   9.520  0.1130 -0.1926  0.1473
  649ERGO    R5 9234  14.623  10.964   9.544  0.0646 -0.0976  0.1493
  649ERGO    C1 9235  14.697  10.875   9.181  0.0186 -0.1412  0.1506
  649ERGO    C2 9236  14.791  10.886   8.857 -0.0679 -0.1245  0.0528
  650ERGO   ROH 9237   7.570   5.844   9.625  0.2453 -0.2631 -0.3457
  650ERGO    R1 9238   7.395   5.993   9.459  0.2339 -0.0910 -0.1833
  650ERGO    R2 9239   7.455   6.247   9.369  0.3785 -0.1298 -0.1986
  650ERGO    R3 9240   7.406   6.137   9.125  0.0834 -0.0582 -0.1750
  650ERGO    R4 9241   7.480   6.415   9.068  0.2763 -0.1110 -0.1965
  650ERGO    R5 9242   7.300   6.312   9.002  0.1305  0.0512 -0.0638
  650ERGO    C1 9243   7.448   6.409   8.664 -0.0603 -0.0328 -0.1732
  650ERGO    C2 9244   7.443   6.489   8.343 -0.0512 -0.0571 -0.0209
  651ERGO   ROH 9245   9.473   4.456  10.047  0.0302  0.1767  0.1697
  651ERGO    R1 9246   9.680   4.583   9.900 -0.0393  0.0925 -0.0050
  651ERGO    R2 9247   9.947   4.535   9.950 -0.0121  0.1950 -0.0390
  651ERGO    R3 9248   9.953   4.478   9.684 -0.0808 -0.0434  0.0092
  651ERGO    R4 9249  10.196   4.635   9.732 -0.1789  0.1785 -0.2395
  651ERGO    R5 9250  10.042   4.676   9.582 -0.2693 -0.0718 -0.2128
  651ERGO    C1 9251  10.346   4.640   9.355 -0.3405 -0.0549 -0.3110
  651ERGO    C2 9252  10.405   4.678   9.002  0.0756 -0.1970  0.1235
  652ERGO   ROH 9253  14.631  10.459  10.341 -0.2156 -0.0185  0.1191
  652ERGO    R1 9254  14.754  10.472  10.086 -0.0747 -0.1074  0.1832
  652ERGO    R2 9255  14.906  10.265   9.985 -0.3409 -0.3008  0.1816
  652ERGO    R3 9256  14.736  10.286   9.774 -0.2101  0.0389  0.1013
  652ERGO    R4 9257  14.999  10.239   9.653 -0.2083 -0.3193  0.2184
  652ERGO    R5 9258  14.862  10.402   9.607  0.0586 -0.0859  0.2070
  652ERGO    C1 9259  14.893  10.243   9.262 -0.0082 -0.0112  0.1644
  652ERGO    C2 9260  14.954  10.187   8.911  0.0707  0.1325  0.0763
  653ERGO   ROH 9261   9.244   5.453   9.681 -0.1697  0.0118  0.1024
  653ERGO    R1 9262   9.344   5.424   9.418 -0.1355  0.1780  0.0959
  653ERGO    R2 9263   9.367   5.178   9.293  0.2422  0.2110  0.0836
  653ERGO    R3 9264   9.219   5.299   9.100  0.0396 -0.0072  0.0983
  653ERGO    R4 9265   9.279   5.033   8.992  0.4018  0.0733  0.1020
  653ERGO    R5 9266   9.317   5.225   8.895  0.1154  0.1239  0.0882
  653ERGO    C1 9267   9.089   5.062   8.635  0.3043 -0.2118  0.1267
  653ERGO    C2 9268   8.950   5.006   8.283  0.0958  0.0103 -0.0326
  654ERGO   ROH 9269  17.074  14.062  10.263  0.0488  0.0364 -0.0012
  654ERGO    R1 9270  17.019  14.098   9.988 -0.0305  0.0256  0.0132
  654ERGO    R2 9271  17.211  14.181   9.808 -0.0789  0.0032 -0.0473
  654ERGO    R3 9272  17.137  13.956   9.674 -0.1333  0.0016 -0.0156
  654ERGO    R4 9273  17.203  14.150   9.464  0.1335 -0.1123 -0.0441
  654ERGO    R5 9274  17.017  14.038   9.483  0.0455  0.0134 -0.1271
  654ERGO    C1 9275  17.128  13.921   9.137  0.2061 -0.1810 -0.0125
  654ERGO    C2 9276  17.002  13.979   8.685  0.0028  0.1786 -0.1804
  655ERGO   ROH 9277   5.295   5.502  10.048 -0.0836 -0.0503  0.0173
  655ERGO    R1 9278   5.146   5.438   9.815 -0.1388  0.0589  0.0226
  655ERGO    R2 9279   5.072   5.628   9.629  0.0803  0.0991 -0.0237
  655ERGO    R3 9280   5.195   5.459   9.455 -0.0915 -0.0757  0.0199
  655ERGO    R4 9281   4.999   5.603   9.292  0.1290  0.1699 -0.0401
  655ERGO    R5 9282   5.021   5.387   9.309 -0.1531  0.1378 -0.0174
  655ERGO    C1 9283   5.072   5.430   8.933 -0.0038  0.0469 -0.0087
  655ERGO    C2 9284   5.125   5.475   8.667  0.3331  0.0955 -0.1735
  656ERGO   ROH 9285   8.219  14.457   9.844 -0.2219 -0.0461 -0.0646
  656ERGO    R1 9286   8.174  14.367   9.580 -0.1287 -0.0315 -0.0864
  656ERGO    R2 9287   7.999  14.493   9.407 -0.1503 -0.0848 -0.1067
  656ERGO    R3 9288   8.216  14.501   9.244 -0.1185  0.0324 -0.0592
  656ERGO    R4 9289   7.998  14.403   9.074 -0.0025 -0.1869 -0.0801
  656ERGO    R5 9290   8.192  14.308   9.104  0.0635 -0.0281 -0.0072
  656ERGO    C1 9291   8.201  14.357   8.726  0.1135 -0.1364 -0.0200
  656ERGO    C2 9292   8.303  14.447   8.494 -0.2323 -0.4026  0.1707
  657ERGO   ROH 9293  14.033  13.062  10.268  0.0134 -0.0628  0.0202
  657ERGO    R1 9294  14.067  13.031   9.989  0.0286 -0.0859  0.0248
  657ERGO    R2 9295  14.215  12.825   9.879 -0.0356 -0.1437  0.0473
  657ERGO    R3 9296  13.986  12.779   9.739 -0.0393 -0.0667  0.0269
  657ERGO    R4 9297  14.200  12.763   9.539 -0.0391 -0.0120  0.0226
  657ERGO    R5 9298  14.021  12.888   9.529 -0.0262  0.0105  0.0688
  657ERGO    C1 9299  13.976  12.683   9.210 -0.0447  0.1368 -0.0108
  657ERGO    C2 9300  13.926  12.671   8.964  0.2860  0.0522  0.1529
  658ERGO   ROH 9301   1.015  16.708  10.339  0.0284 -0.0221  0.0089
  658ERGO    R1 9302   0.968  16.649  10.066  0.0039 -0.0589  0.0211
  658ERGO    R2 9303   0.992  16.839   9.866 -0.0285 -0.0820 -0.0051
  658ERGO    R3 9304   1.160  16.655   9.758 -0.0281 -0.0851  0.0007
  658ERGO    R4 9305   1.066  16.814   9.530 -0.0005 -0.0712  0.0002
  658ERGO    R5 9306   1.058  16.597   9.549 -0.0126 -0.0711 -0.0104
  658ERGO    C1 9307   1.268  16.627   9.232  0.0161 -0.0680  0.0086
  658ERGO    C2 9308   1.305  16.717   8.913  0.1056  0.2156 -0.0552
  659ERGO   ROH 9309  15.395   6.027   9.673  0.3119 -0.1396 -0.0338
  659ERGO    R1 9310  15.363   5.946   9.404  0.3527 -0.1871 -0.0255
  659ERGO    R2 9311  15.207   6.087   9.223  0.0781 -0.4160  0.0192
  659ERGO    R3 9312  15.435   6.086   9.076  0.0438 -0.0667 -0.0445
  659ERGO    R4 9313  15.219   6.088   8.878 -0.0006 -0.0759  0.0143
  659ERGO    R5 9314  15.384   5.946   8.888  0.1304  0.0657 -0.1643
  659ERGO    C1 9315  15.441   6.087   8.538 -0.0784  0.4499 -0.0483
  659ERGO    C2 9316  15.374   6.022   8.243  0.0735 -0.1157  0.0510
  660ERGO   ROH 9317   0.650  10.835   9.877 -0.0615 -0.0541  0.0049
  660ERGO    R1 9318   0.680  10.813   9.597  0.0166 -0.0694  0.0153
  660ERGO    R2 9319   0.513  10.940   9.418  0.0870 -0.0570 -0.0352
  660ERGO    R3 9320   0.746  11.038   9.319  0.1268 -0.0911  0.0215
  660ERGO    R4 9321   0.570  11.010   9.085  0.1641 -0.0515 -0.0215
  660ERGO    R5 9322   0.771  10.927   9.108  0.1499 -0.0891  0.0189
  660ERGO    C1 9323   0.823  11.143   8.797  0.2464 -0.0801  0.0397
  660ERGO    C2 9324   0.772  11.339   8.531  0.1903  0.1037 -0.0985
  661ERGO   ROH 9325  11.921  10.650  10.195 -0.1924  0.0515  0.0144
  661ERGO    R1 9326  11.969  10.553   9.934 -0.0298  0.0881  0.0302
  661ERGO    R2 9327  11.782  10.572   9.731  0.0398 -0.0185 -0.0428
  661ERGO    R3 9328  11.985  10.695   9.599  0.0195  0.1074  0.0402
  661ERGO    R4 9329  11.832  10.559   9.389  0.2148 -0.0332 -0.0175
  661ERGO    R5 9330  12.046  10.540   9.426  0.2130  0.1231  0.0904
  661ERGO    C1 9331  12.052  10.666   9.066  0.2976  0.0764  0.0750
  661ERGO    C2 9332  12.109  10.730   8.778 -0.1770 -0.0459  0.0735
  662ERGO   ROH 9333  16.280   6.206   9.929 -0.2565  0.0027 -0.0545
  662ERGO    R1 9334  16.413   6.156   9.685 -0.1083 -0.0132  0.0322
  662ERGO    R2 9335  16.287   6.041   9.467  0.0042  0.0689 -0.0558
  662ERGO    R3 9336  16.380   6.261   9.338  0.1788  0.0415  0.0131
  662ERGO    R4 9337  16.288   6.082   9.124 -0.0863  0.1887 -0.0443
  662ERGO    R5 9338  16.485   6.175   9.141  0.0307 -0.0028 -0.0662
  662ERGO    C1 9339  16.375   6.314   8.803  0.0249  0.2326  0.0268
  662ERGO    C2 9340  16.285   6.468   8.442  0.0236  0.1236 -0.1934
  663ERGO   ROH 9341   8.360  16.354   9.842 -0.4274 -0.0865 -0.1991
  663ERGO    R1 9342   8.558  16.369   9.641 -0.3165 -0.0078 -0.0844
  663ERGO    R2 9343   8.576  16.186   9.435 -0.0839 -0.0393 -0.0369
  663ERGO    R3 9344   8.567  16.409   9.279 -0.1249 -0.0769 -0.0892
  663ERGO    R4 9345   8.629  16.190   9.093  0.1715 -0.0761 -0.0004
  663ERGO    R5 9346   8.741  16.376   9.118  0.0232  0.0109  0.0479
  663ERGO    C1 9347   8.650  16.401   8.748  0.2817 -0.1330 -0.0282
  663ERGO    C2 9348   8.585  16.394   8.479  0.2720 -0.0292 -0.1984
  664ERGO   ROH 9349   0.576   9.162   7.916  0.0629 -0.2314 -0.0715
  664ERGO    R1 9350   0.569   9.339   7.695  0.1182 -0.1325  0.0039
  664ERGO    R2 9351   0.717   9.296   7.466  0.0684 -0.1062 -0.0377
  664ERGO    R3 9352   0.475   9.320   7.344  0.0614  0.0604  0.0082
  664ERGO    R4 9353   0.670   9.336   7.125  0.0294 -0.0416 -0.0241
  664ERGO    R5 9354   0.512   9.479   7.169  0.1295  0.0536  0.0188
  664ERGO    C1 9355   0.416   9.381   6.813  0.0001  0.1525  0.0271
  664ERGO    C2 9356   0.466   9.502   6.571 -0.2493  0.1336  0.3271
  665ERGO   ROH 9357  12.858   4.651   9.668 -0.2450 -0.2951  0.2190
  665ERGO    R1 9358  12.958   4.659   9.404 -0.1104  0.0088  0.2759
  665ERGO    R2 9359  13.070   4.439   9.280 -0.0248  0.1579  0.0884
  665ERGO    R3 9360  12.886   4.494   9.087  0.0696  0.3483  0.0496
  665ERGO    R4 9361  13.108   4.366   8.944 -0.1141 -0.0957  0.1306
  665ERGO    R5 9362  13.016   4.559   8.897  0.1941  0.0344  0.0182
  665ERGO    C1 9363  12.957   4.376   8.568 -0.0774 -0.0646  0.1187
  665ERGO    C2 9364  12.961   4.023   8.497  0.1583  0.0420  0.0455
  666ERGO   ROH 9365  10.152  16.112  10.025 -0.1376 -0.2992 -0.0285
  666ERGO    R1 9366  10.076  15.976   9.788 -0.3033 -0.1191 -0.0824
  666ERGO    R2 9367   9.896  16.082   9.607 -0.0262  0.2694 -0.1520
  666ERGO    R3 9368  10.097  16.038   9.430 -0.0227 -0.0985 -0.0637
  666ERGO    R4 9369   9.865  16.107   9.264  0.2197  0.5216 -0.1579
  666ERGO    R5 9370   9.990  15.930   9.245 -0.1729  0.2401 -0.1787
  666ERGO    C1 9371  10.037  16.081   8.898  0.3661  0.3231 -0.0785
  666ERGO    C2 9372  10.098  16.252   8.592  0.0547 -0.0775 -0.4724
  667ERGO   ROH 9373  17.043   4.491   9.749  0.0058  0.3390  0.0312
  667ERGO    R1 9374  17.208   4.504   9.520 -0.0374  0.2281 -0.0056
  667ERGO    R2 9375  17.220   4.301   9.333 -0.0553  0.1308  0.1065
  667ERGO    R3 9376  17.159   4.501   9.159 -0.0988  0.0294  0.0019
  667ERGO    R4 9377  17.260   4.283   8.990 -0.2691 -0.1319  0.0904
  667ERGO    R5 9378  17.332   4.489   8.993 -0.1984 -0.1461 -0.0982
  667ERGO    C1 9379  17.227   4.461   8.627 -0.4344 -0.3799 -0.0172
  667ERGO    C2 9380  17.148   4.390   8.290  0.1641 -0.1042 -0.1028
  668ERGO   ROH 9381   3.375  10.438   9.761  0.2111  0.0420 -0.0438
  668ERGO    R1 9382   3.266  10.313   9.532  0.0899  0.1640 -0.0543
  668ERGO    R2 9383   3.263  10.434   9.284  0.2776  0.1580 -0.0625
  668ERGO    R3 9384   3.387  10.205   9.206  0.0091 -0.0030 -0.0295
  668ERGO    R4 9385   3.247  10.298   8.966  0.0991  0.1096 -0.0343
  668ERGO    R5 9386   3.232  10.100   9.056 -0.1218  0.1442  0.0039
  668ERGO    C1 9387   3.355  10.005   8.708 -0.2569 -0.0698  0.0132
  668ERGO    C2 9388   3.284  10.066   8.383  0.0269  0.1376 -0.1837
  669ERGO   ROH 9389   4.043  11.353  10.015  0.0771 -0.0297 -0.0932
  669ERGO    R1 9390   3.983  11.204   9.782  0.1415 -0.0544 -0.0941
  669ERGO    R2 9391   3.813  11.297   9.586  0.0766 -0.1396 -0.0784
  669ERGO    R3 9392   4.025  11.246   9.423  0.0932 -0.0191 -0.0960
  669ERGO    R4 9393   3.793  11.257   9.243  0.0651 -0.1727 -0.0739
  669ERGO    R5 9394   3.938  11.094   9.259  0.1683 -0.0839 -0.0778
  669ERGO    C1 9395   3.981  11.185   8.891  0.0739 -0.0787 -0.0877
  669ERGO    C2 9396   3.886  11.188   8.471 -0.1259  0.0114  0.2705
  670ERGO   ROH 9397  17.079   8.066  10.004 -0.2115  0.1258 -0.0758
  670ERGO    R1 9398  17.012   8.158   9.745  0.0188  0.1204 -0.1399
  670ERGO    R2 9399  17.201   8.196   9.546  0.1560 -0.2050 -0.0784
  670ERGO    R3 9400  17.037   8.032   9.405 -0.0061 -0.0427 -0.0816
  670ERGO    R4 9401  17.223   8.140   9.206 -0.0196 -0.0762 -0.1120
  670ERGO    R5 9402  17.006   8.145   9.196 -0.0216  0.0650 -0.0211
  670ERGO    C1 9403  17.083   7.954   8.875 -0.2738  0.1511 -0.1346
  670ERGO    C2 9404  17.185   7.666   8.679  0.4147 -0.0570  0.3106
  671ERGO   ROH 9405  16.084   4.925   9.786 -0.0003  0.1692 -0.0799
  671ERGO    R1 9406  16.199   4.941   9.528 -0.0499  0.1244 -0.1039
  671ERGO    R2 9407  16.293   4.719   9.393  0.0782  0.1247 -0.0100
  671ERGO    R3 9408  16.126   4.807   9.198 -0.0091 -0.0807 -0.0321
  671ERGO    R4 9409  16.371   4.732   9.056  0.0510  0.0772 -0.0192
  671ERGO    R5 9410  16.268   4.924   9.045 -0.1127 -0.0096 -0.0785
  671ERGO    C1 9411  16.259   4.823   8.677 -0.0466 -0.1433 -0.0453
  671ERGO    C2 9412  16.057   4.798   8.382  0.0019 -0.1268  0.2042
  672ERGO   ROH 9413  11.882  11.407  10.090  0.0706  0.2179  0.1219
  672ERGO    R1 9414  11.900  11.590   9.875  0.1513  0.1180  0.0421
  672ERGO    R2 9415  12.020  11.525   9.634  0.1772 -0.0194  0.0877
  672ERGO    R3 9416  11.782  11.607   9.531  0.2128 -0.0089  0.0149
  672ERGO    R4 9417  11.953  11.561   9.297  0.3254  0.1349  0.0736
  672ERGO    R5 9418  11.842  11.743   9.343  0.2753  0.0916  0.1098
  672ERGO    C1 9419  11.690  11.659   9.004  0.4451  0.2348 -0.0028
  672ERGO    C2 9420  11.639  11.595   8.719 -0.1090  0.1807 -0.0950
  673ERGO   ROH 9421   9.107   0.542   9.762  0.0691  0.2078 -0.0561
  673ERGO    R1 9422   9.208   0.656   9.524  0.0218  0.0295 -0.1645
  673ERGO    R2 9423   9.202   0.524   9.281 -0.1594 -0.0979 -0.0974
  673ERGO    R3 9424   9.075   0.749   9.199 -0.0800 -0.0733 -0.1513
  673ERGO    R4 9425   9.178   0.629   8.953  0.0154 -0.0732 -0.1027
  673ERGO    R5 9426   9.210   0.833   9.021  0.0165 -0.0862 -0.0799
  673ERGO    C1 9427   9.044   0.902   8.684  0.1918 -0.0358 -0.1564
  673ERGO    C2 9428   8.997   0.877   8.316  0.2091  0.1015 -0.1719
  674ERGO   ROH 9429   7.483  12.619  10.067 -0.2777  0.1887 -0.0405
  674ERGO    R1 9430   7.464  12.475   9.824 -0.2240  0.0973  0.0056
  674ERGO    R2 9431   7.307  12.560   9.613 -0.1244  0.0624 -0.0991
  674ERGO    R3 9432   7.540  12.539   9.473 -0.0695 -0.0535  0.0134
  674ERGO    R4 9433   7.332  12.567   9.268  0.0592  0.0105 -0.0855
  674ERGO    R5 9434   7.482  12.409   9.281 -0.0217 -0.0444  0.0031
  674ERGO    C1 9435   7.565  12.551   8.937  0.2176 -0.1285  0.0279
  674ERGO    C2 9436   7.504  12.572   8.531  0.2093  0.1895  0.1006
  675loPI    C1 9437   9.981   9.649   5.755  0.0083 -0.0081 -0.2714
  675loPI    C2 9438  10.280   9.386   5.720 -0.0398 -0.0903 -0.0816
  675loPI    C3 9439  10.359   9.771   5.795  0.0135 -0.1417  0.1320
  675loPI   PO4 9440   9.880   9.661   5.973 -0.1477 -0.2457 -0.0270
  675loPI   GL1 9441   9.692   9.704   6.421  0.1003 -0.1636 -0.0782
  675loPI   GL2 9442   9.790  10.026   6.420  0.2870  0.1530  0.0898
  675loPI   C1A 9443   9.484   9.688   6.866 -0.0568 -0.1874  0.0241
  675loPI   C2A 9444   9.382   9.897   7.201  0.0385  0.2940  0.1649
  675loPI   C3A 9445   9.329   9.921   7.570 -0.0830 -0.1557 -0.0878
  675loPI   C4A 9446   9.247  10.034   7.969 -0.0746  0.2509  0.0340
  675loPI   C5A 9447   8.964  10.014   8.174  0.2045  0.0813  0.0022
  675loPI   C6A 9448   8.747   9.917   8.580 -0.0119  0.0301 -0.3487
  675loPI   C1B 9449  10.001   9.884   6.863  0.0210  0.0438  0.2762
  675loPI   C2B 9450  10.243   9.776   7.311 -0.0913 -0.2588 -0.2484
  675loPI   C3B 9451  10.164   9.623   7.709 -0.1722 -0.2697 -0.0402
  675loPI   C4B 9452  10.117   9.815   8.151 -0.0284  0.0977  0.2521
  676loPI    C1 9453  11.448  16.331   5.844  0.1475 -0.1403 -0.1025
  676loPI    C2 9454  11.067  16.433   5.783  0.1161 -0.0905  0.1652
  676loPI    C3 9455  11.296  16.323   5.474 -0.1536 -0.2582  0.0207
  676loPI   PO4 9456  11.480  16.465   6.034 -0.3056 -0.0051  0.2391
  676loPI   GL1 9457  11.609  16.777   6.305 -0.1130 -0.1070 -0.3692
  676loPI   GL2 9458  11.881  16.814   6.324 -0.0147  0.0645  0.0132
  676loPI   C1A 9459  11.600  16.942   6.720 -0.1000 -0.1704  0.0698
  676loPI   C2A 9460  11.812  16.801   7.101  0.0900  0.2389  0.2276
  676loPI   C3A 9461  11.958  16.796   7.486  0.0131  0.1606 -0.1260
  676loPI   C4A 9462  12.048  17.018   7.901 -0.0368  0.0875 -0.0410
  676loPI   C5A 9463  12.244  16.965   8.324  0.1551  0.2975  0.0121
  676loPI   C6A 9464  12.535  17.050   8.616  0.3254 -0.3131  0.0505
  676loPI   C1B 9465  12.118  17.012   6.787 -0.1836 -0.0200 -0.3363
  676loPI   C2B 9466  12.247  17.118   7.100  0.1331 -0.2159 -0.0623
  676loPI   C3B 9467  12.416  17.059   7.546 -0.3080 -0.0868 -0.1940
  676loPI   C4B 9468  12.552  16.930   7.907 -0.3039  0.3149 -0.3343
  677loPI    C1 9469  17.996   0.988   5.587 -0.2713 -0.0313  0.2112
  677loPI    C2 9470  17.730   0.694   5.532 -0.2190 -0.0244 -0.0929
  677loPI    C3 9471  17.993   0.783   5.244  0.0156  0.0697  0.1458
  677loPI   PO4 9472  18.000   0.989   5.863 -0.2042 -0.0591  0.1634
  677loPI   GL1 9473  18.021   1.086   6.262  0.1848 -0.0073 -0.0894
  677loPI   GL2 9474  18.175   0.933   6.444  0.1477  0.1046 -0.0858
  677loPI   C1A 9475  17.695   1.142   6.655  0.1356 -0.1506 -0.2971
  677loPI   C2A 9476  17.531   1.139   6.952 -0.2342  0.3833  0.3207
  677loPI   C3A 9477  17.393   0.999   7.365  0.2044  0.1953 -0.5637
  677loPI   C4A 9478  17.403   1.119   7.823  0.1248  0.1317 -0.1338
  677loPI   C5A 9479  17.502   0.940   8.274  0.4396  0.0751 -0.2970
  677loPI   C6A 9480  17.834   0.972   8.562 -0.0734 -0.1834 -0.0067
  677loPI   C1B 9481  18.266   1.001   6.891 -0.0752  0.5596  0.0279
  677loPI   C2B 9482  18.373   1.075   7.332  0.0613  0.0466  0.4091
  677loPI   C3B 9483  18.256   1.135   7.709  0.0473  0.0044  0.1410
  677loPI   C4B 9484  18.342   1.137   8.130  0.1254 -0.3011  0.0592
  678loPI    C1 9485   3.800   5.157   5.108 -0.1294  0.1405 -0.0588
  678loPI    C2 9486   3.638   4.940   4.814 -0.0539 -0.0239  0.0193
  678loPI    C3 9487   4.019   4.880   4.920 -0.0789  0.0382  0.1471
  678loPI   PO4 9488   3.721   5.111   5.388  0.1143 -0.1617 -0.1050
  678loPI   GL1 9489   3.740   5.047   5.818  0.0929 -0.0322 -0.0261
  678loPI   GL2 9490   3.778   5.327   6.140 -0.2038 -0.2176  0.0910
  678loPI   C1A 9491   3.649   4.798   6.114 -0.1541 -0.1119  0.1188
  678loPI   C2A 9492   3.965   4.640   6.479 -0.1236 -0.1266 -0.0820
  678loPI   C3A 9493   3.999   4.865   6.880  0.4691 -0.0956 -0.1418
  678loPI   C4A 9494   4.094   4.935   7.218  0.2776  0.1702 -0.1735
  678loPI   C5A 9495   4.110   4.722   7.582 -0.3455  0.0869  0.2883
  678loPI   C6A 9496   4.320   4.364   7.757  0.1861  0.1521 -0.0296
  678loPI   C1B 9497   3.727   5.091   6.466  0.1323 -0.1382  0.0946
  678loPI   C2B 9498   3.565   5.115   6.869  0.0909 -0.1058  0.1313
  678loPI   C3B 9499   3.383   5.144   7.272  0.4507  0.3061  0.1589
  678loPI   C4B 9500   3.184   5.136   7.684  0.0008  0.0215  0.1498
  679loPI    C1 9501  12.989  13.159   5.299  0.3038  0.1253 -0.0598
  679loPI    C2 9502  12.787  13.485   5.187  0.0673  0.0194  0.0511
  679loPI    C3 9503  13.181  13.462   5.121  0.1019  0.3610  0.1167
  679loPI   PO4 9504  12.898  13.116   5.561 -0.2431 -0.0295 -0.2775
  679loPI   GL1 9505  12.800  13.084   6.032 -0.1402 -0.0992 -0.2798
  679loPI   GL2 9506  12.667  13.385   6.204  0.0872  0.4816 -0.0521
  679loPI   C1A 9507  12.807  12.790   6.349 -0.0651 -0.0969 -0.1330
  679loPI   C2A 9508  12.868  12.757   6.893 -0.1009 -0.1554  0.1552
  679loPI   C3A 9509  12.585  12.685   7.074 -0.0923 -0.1190  0.0561
  679loPI   C4A 9510  12.399  12.614   7.420  0.0496  0.2158  0.0914
  679loPI   C5A 9511  12.118  12.654   7.862  0.1384  0.4126  0.1693
  679loPI   C6A 9512  11.879  12.776   8.226 -0.0245  0.2429  0.0616
  679loPI   C1B 9513  12.578  13.206   6.508  0.0767  0.4301 -0.0750
  679loPI   C2B 9514  12.593  13.170   6.919  0.1361 -0.1649 -0.0424
  679loPI   C3B 9515  12.748  13.034   7.396  0.1642  0.1490  0.0396
  679loPI   C4B 9516  12.626  12.925   7.824  0.0807 -0.0810  0.1060
  680loPI    C1 9517   3.683   7.144   5.337  0.1504  0.0356  0.2754
  680loPI    C2 9518   3.637   6.748   5.376  0.1400 -0.0007 -0.0696
  680loPI    C3 9519   3.321   6.979   5.292  0.2313  0.0115 -0.3928
  680loPI   PO4 9520   3.760   7.201   5.624  0.1950 -0.0116 -0.1444
  680loPI   GL1 9521   3.570   7.199   5.977  0.2680  0.0169 -0.1496
  680loPI   GL2 9522   3.820   7.472   6.131 -0.2148 -0.1205  0.0328
  680loPI   C1A 9523   3.568   7.175   6.396 -0.1563 -0.0229  0.1754
  680loPI   C2A 9524   3.585   7.140   6.692  0.0066  0.0827  0.2100
  680loPI   C3A 9525   3.683   7.010   7.109  0.3831 -0.5343  0.0125
  680loPI   C4A 9526   3.796   6.851   7.533  0.2215  0.1899  0.3625
  680loPI   C5A 9527   3.567   6.618   7.857  0.0290 -0.0006  0.1301
  680loPI   C6A 9528   3.368   6.347   8.142  0.2448  0.0820  0.1790
  680loPI   C1B 9529   3.561   7.692   6.424 -0.0907 -0.1548  0.1990
  680loPI   C2B 9530   3.624   7.830   6.909  0.0631 -0.1442  0.0652
  680loPI   C3B 9531   3.383   7.824   7.324  0.0849  0.1502  0.3126
  680loPI   C4B 9532   3.086   8.069   7.435  0.0349  0.1418 -0.2958
  681loPI    C1 9533   5.338   5.139   4.723 -0.0046 -0.0784  0.1543
  681loPI    C2 9534   5.649   5.002   4.512 -0.1342  0.2186 -0.2419
  681loPI    C3 9535   5.363   4.750   4.634  0.1066 -0.0077 -0.1348
  681loPI   PO4 9536   5.504   5.326   4.912 -0.0449 -0.2658  0.0106
  681loPI   GL1 9537   5.424   5.272   5.475  0.2576 -0.2711 -0.0067
  681loPI   GL2 9538   5.784   5.298   5.410  0.1264  0.0536 -0.0620
  681loPI   C1A 9539   5.482   5.132   5.867  0.1242 -0.0327 -0.0507
  681loPI   C2A 9540   5.671   5.087   6.316  0.2106  0.2110 -0.1343
  681loPI   C3A 9541   5.641   4.831   6.748 -0.3530 -0.1140 -0.1118
  681loPI   C4A 9542   5.671   4.814   7.146  0.3608 -0.1779  0.1551
  681loPI   C5A 9543   5.780   5.008   7.493  0.1041 -0.1754  0.0284
  681loPI   C6A 9544   5.732   5.340   7.655 -0.0861 -0.1654 -0.1782
  681loPI   C1B 9545   5.943   5.447   5.722 -0.2969 -0.0169 -0.2162
  681loPI   C2B 9546   6.047   5.437   6.123 -0.1347 -0.3082  0.0991
  681loPI   C3B 9547   6.031   5.285   6.613  0.0205 -0.1856  0.0092
  681loPI   C4B 9548   5.819   5.283   7.049  0.3010  0.2376 -0.4054
  682loPI    C1 9549   2.957  17.466   5.440 -0.0507  0.2267 -0.0442
  682loPI    C2 9550   2.753  17.330   5.123 -0.1679  0.0213  0.1169
  682loPI    C3 9551   3.132  17.450   5.081 -0.2672  0.2511 -0.1531
  682loPI   PO4 9552   2.911  17.252   5.633  0.2457  0.1175  0.1114
  682loPI   GL1 9553   3.099  17.187   6.005 -0.0335 -0.1152  0.0419
  682loPI   GL2 9554   3.031  16.898   6.113 -0.0234  0.0821 -0.2858
  682loPI   C1A 9555   3.086  17.428   6.378  0.2716 -0.3147  0.0286
  682loPI   C2A 9556   3.316  17.433   6.690  0.1000  0.1068  0.1039
  682loPI   C3A 9557   3.525  17.380   7.105  0.0968  0.4570  0.2283
  682loPI   C4A 9558   3.684  17.146   7.479 -0.0687  0.1719 -0.1904
  682loPI   C5A 9559   4.034  17.062   7.786  0.2161  0.1294 -0.2055
  682loPI   C6A 9560   4.485  17.021   7.899  0.0427  0.1833 -0.1717
  682loPI   C1B 9561   2.841  17.015   6.463  0.2750  0.1967 -0.3072
  682loPI   C2B 9562   2.739  17.403   6.806  0.1839  0.0151 -0.0426
  682loPI   C3B 9563   2.957  17.596   7.193  0.0417  0.0168  0.1443
  682loPI   C4B 9564   3.290  17.460   7.534  0.4662 -0.1654  0.0047
  683loPI    C1 9565   4.088   5.988   5.730 -0.1196  0.0110  0.1156
  683loPI    C2 9566   3.905   5.992   5.374 -0.1439 -0.0939  0.1266
  683loPI    C3 9567   3.742   6.184   5.684 -0.1979 -0.1252  0.1178
  683loPI   PO4 9568   4.307   5.752   5.606 -0.3585 -0.0651  0.3377
  683loPI   GL1 9569   4.688   5.748   5.810 -0.2276 -0.1355 -0.2639
  683loPI   GL2 9570   4.539   6.045   6.060  0.3394 -0.1087  0.0765
  683loPI   C1A 9571   4.593   5.550   6.223 -0.2463 -0.1061  0.0864
  683loPI   C2A 9572   4.513   5.577   6.697 -0.1639  0.0478  0.0504
  683loPI   C3A 9573   4.423   5.629   7.100 -0.0441 -0.2869 -0.2051
  683loPI   C4A 9574   4.240   5.639   7.411 -0.0072 -0.0905 -0.2620
  683loPI   C5A 9575   4.067   5.605   7.814 -0.1852  0.1029  0.0085
  683loPI   C6A 9576   3.904   5.667   8.204  0.1257 -0.2083 -0.0696
  683loPI   C1B 9577   4.837   6.187   6.408  0.3131 -0.2017 -0.0987
  683loPI   C2B 9578   5.121   6.323   6.745  0.1143  0.0125 -0.0748
  683loPI   C3B 9579   5.303   6.526   7.143 -0.2668  0.3410 -0.1590
  683loPI   C4B 9580   5.474   6.765   7.520  0.0845 -0.0002  0.2948
  684loPI    C1 9581   4.463  16.176   5.591  0.3216  0.3001  0.1588
  684loPI    C2 9582   4.552  15.998   5.244  0.0935  0.0772  0.2122
  684loPI    C3 9583   4.652  16.380   5.303  0.0246  0.1547 -0.1465
  684loPI   PO4 9584   4.529  16.051   5.776  0.2078 -0.0266  0.3193
  684loPI   GL1 9585   4.936  16.131   6.101  0.0978  0.0430  0.1169
  684loPI   GL2 9586   5.163  15.846   6.133  0.4307  0.0669 -0.2911
  684loPI   C1A 9587   5.141  16.250   6.482 -0.1811  0.3540  0.3250
  684loPI   C2A 9588   5.284  16.339   6.967  0.0370 -0.0161  0.3356
  684loPI   C3A 9589   5.049  16.506   7.253  0.0790  0.1789  0.1917
  684loPI   C4A 9590   4.724  16.395   7.356  0.2479  0.1878  0.3409
  684loPI   C5A 9591   4.336  16.440   7.122 -0.1321  0.0357 -0.4370
  684loPI   C6A 9592   4.299  16.366   6.747 -0.4103  0.1081  0.2389
  684loPI   C1B 9593   5.029  15.770   6.593  0.3870  0.0920  0.2875
  684loPI   C2B 9594   5.026  15.594   6.967  0.2072 -0.1098 -0.1616
  684loPI   C3B 9595   5.019  15.963   7.252  0.0529 -0.0346 -0.2869
  684loPI   C4B 9596   4.978  16.086   7.760 -0.2199  0.3640  0.2111
  685loPI    C1 9597   5.528   7.217   5.406  0.0648  0.1023  0.1461
  685loPI    C2 9598   5.411   7.600   5.410 -0.1727  0.0316  0.1013
  685loPI    C3 9599   5.797   7.509   5.456 -0.1433  0.2648  0.3435
  685loPI   PO4 9600   5.375   7.106   5.535 -0.1238 -0.2017 -0.0389
  685loPI   GL1 9601   5.268   6.781   5.714  0.2033  0.1760  0.0365
  685loPI   GL2 9602   4.995   6.936   5.807  0.1353 -0.1622 -0.3590
  685loPI   C1A 9603   5.466   6.876   6.155 -0.0694  0.1610  0.1185
  685loPI   C2A 9604   5.620   7.039   6.605  0.0723  0.1764  0.1671
  685loPI   C3A 9605   5.453   7.264   6.973 -0.0351 -0.0488  0.0828
  685loPI   C4A 9606   5.537   7.285   7.470  0.2703  0.1649  0.0609
  685loPI   C5A 9607   5.296   7.386   7.767  0.1651 -0.0291  0.0849
  685loPI   C6A 9608   5.154   6.930   7.952  0.2137  0.0673  0.0096
  685loPI   C1B 9609   4.963   6.847   6.215 -0.1746 -0.1423 -0.2583
  685loPI   C2B 9610   5.158   6.866   6.557 -0.1457  0.0149 -0.1157
  685loPI   C3B 9611   4.981   6.999   6.975  0.1624 -0.4667 -0.0981
  685loPI   C4B 9612   5.083   6.993   7.402 -0.3527 -0.1391 -0.1964
  686loPI    C1 9613   9.987  11.850   5.588  0.0303  0.0774 -0.0163
  686loPI    C2 9614  10.085  11.469   5.517 -0.1750  0.0133  0.0373
  686loPI    C3 9615   9.781  11.637   5.320  0.0855  0.2337 -0.1845
  686loPI   PO4 9616  10.243  11.926   5.801 -0.1375  0.2643  0.1456
  686loPI   GL1 9617  10.535  11.887   6.075  0.1211 -0.0190 -0.2189
  686loPI   GL2 9618  10.191  12.128   6.232 -0.0893  0.1649  0.0111
  686loPI   C1A 9619  10.883  11.877   6.307  0.0837 -0.1366 -0.0507
  686loPI   C2A 9620  10.836  11.683   6.660 -0.0986  0.2479 -0.1536
  686loPI   C3A 9621  10.873  11.576   7.060  0.1175 -0.1675  0.0741
  686loPI   C4A 9622  10.841  11.539   7.491 -0.2414 -0.2246 -0.0578
  686loPI   C5A 9623  10.993  11.515   7.807  0.0875 -0.1529 -0.2119
  686loPI   C6A 9624  11.336  11.567   7.977  0.1748 -0.2176 -0.0299
  686loPI   C1B 9625  10.261  12.151   6.733  0.1054 -0.1529 -0.1483
  686loPI   C2B 9626  10.442  12.018   7.162  0.3126 -0.0626 -0.0737
  686loPI   C3B 9627  10.412  11.991   7.456 -0.1826  0.0522 -0.2831
  686loPI   C4B 9628  10.582  11.872   7.788  0.3513 -0.0541 -0.0046
  687loPI    C1 9629  17.080   5.091   5.336 -0.0923 -0.1050  0.1733
  687loPI    C2 9630  17.197   5.454   5.217 -0.2224 -0.0728  0.1419
  687loPI    C3 9631  17.467   5.162   5.263 -0.1166  0.0289  0.1728
  687loPI   PO4 9632  16.827   5.017   5.256  0.0574  0.0017 -0.0898
  687loPI   GL1 9633  16.504   4.673   5.453 -0.1077 -0.0389  0.3672
  687loPI   GL2 9634  16.300   4.848   5.268  0.1055  0.1370 -0.0702
  687loPI   C1A 9635  16.476   4.583   5.760  0.1105  0.0153  0.0556
  687loPI   C2A 9636  16.589   4.369   6.215  0.1863 -0.1239 -0.0879
  687loPI   C3A 9637  16.530   4.478   6.638  0.1188 -0.1168  0.1600
  687loPI   C4A 9638  16.514   4.312   7.044  0.0792  0.2707  0.2220
  687loPI   C5A 9639  16.913   4.371   7.437  0.2176  0.2361  0.2495
  687loPI   C6A 9640  17.222   4.266   7.766 -0.1362 -0.0604  0.1067
  687loPI   C1B 9641  16.041   4.866   5.615 -0.2188 -0.0236 -0.2475
  687loPI   C2B 9642  15.890   4.983   6.052 -0.3339  0.1358 -0.1088
  687loPI   C3B 9643  15.757   4.918   6.517  0.1291 -0.0932  0.1921
  687loPI   C4B 9644  15.614   4.915   6.956  0.2031  0.1436 -0.3434
  688loPI    C1 9645  17.742  14.134   5.787  0.1382  0.1481  0.0470
  688loPI    C2 9646  17.784  14.455   5.552 -0.0327  0.1601  0.0312
  688loPI    C3 9647  18.020  14.137   5.499  0.0009  0.2041 -0.0866
  688loPI   PO4 9648  17.784  14.187   6.054 -0.0476 -0.1884  0.0900
  688loPI   GL1 9649  17.496  14.342   6.429  0.0816  0.0152 -0.3634
  688loPI   GL2 9650  17.741  14.050   6.490 -0.0085  0.3153  0.3265
  688loPI   C1A 9651  17.503  14.235   6.856  0.0171 -0.0065 -0.3783
  688loPI   C2A 9652  17.401  14.057   7.315  0.0245 -0.0179  0.0231
  688loPI   C3A 9653  17.269  13.966   7.721 -0.0595 -0.0832 -0.1938
  688loPI   C4A 9654  17.168  13.769   8.159 -0.0562 -0.4782  0.0981
  688loPI   C5A 9655  16.851  13.601   8.296  0.0267  0.0432  0.2403
  688loPI   C6A 9656  16.629  13.313   8.427  0.0871  0.3063 -0.0646
  688loPI   C1B 9657  17.984  14.156   6.834 -0.0610 -0.0853  0.0390
  688loPI   C2B 9658  17.935  14.164   7.175 -0.1424  0.0608 -0.0186
  688loPI   C3B 9659  17.752  14.313   7.520  0.1401 -0.0295 -0.1209
  688loPI   C4B 9660  17.751  14.181   7.973  0.0058 -0.2946  0.3091
  689loPI    C1 9661   4.017  16.211   5.934  0.0892  0.1661  0.0762
  689loPI    C2 9662   3.999  16.271   5.539  0.3059 -0.3411 -0.0190
  689loPI    C3 9663   3.672  16.321   5.765  0.2182  0.1029 -0.2341
  689loPI   PO4 9664   4.196  16.377   6.046  0.2616 -0.2428  0.2473
  689loPI   GL1 9665   4.297  16.776   6.073  0.1716 -0.1519 -0.0805
  689loPI   GL2 9666   4.570  16.989   6.044 -0.0011  0.3600  0.0676
  689loPI   C1A 9667   4.016  16.971   6.342  0.0295  0.2569 -0.2082
  689loPI   C2A 9668   3.729  17.008   6.710 -0.1724  0.0971 -0.1229
  689loPI   C3A 9669   3.524  16.803   7.120 -0.1717  0.1799 -0.0013
  689loPI   C4A 9670   3.590  16.587   7.461  0.1055 -0.1742 -0.0038
  689loPI   C5A 9671   3.870  16.528   7.862 -0.0466  0.1090  0.1017
  689loPI   C6A 9672   4.332  16.579   7.676  0.1400  0.2828  0.0144
  689loPI   C1B 9673   4.497  16.825   6.502  0.2088  0.1100  0.2233
  689loPI   C2B 9674   4.262  16.866   6.829  0.2138  0.0016 -0.1960
  689loPI   C3B 9675   4.095  17.212   7.070  0.1107 -0.0320  0.1923
  689loPI   C4B 9676   4.239  17.327   7.440  0.0990  0.2217  0.0398
  690loPI    C1 9677  10.780  10.472   5.639 -0.0727  0.1999 -0.2011
  690loPI    C2 9678  10.463  10.230   5.658  0.0469  0.0451 -0.1535
  690loPI    C3 9679  10.824  10.094   5.763  0.1014  0.2697 -0.0452
  690loPI   PO4 9680  10.748  10.621   5.830  0.3044  0.1277  0.4260
  690loPI   GL1 9681  10.913  10.814   6.027  0.0634 -0.1670 -0.1675
  690loPI   GL2 9682  11.098  11.002   5.977 -0.2181 -0.1531  0.2536
  690loPI   C1A 9683  10.986  10.589   6.401  0.2474 -0.1006  0.0277
  690loPI   C2A 9684  10.893  10.553   6.848 -0.1200 -0.0986 -0.0126
  690loPI   C3A 9685  11.011  10.488   7.305  0.0603  0.0477 -0.2276
  690loPI   C4A 9686  11.026  10.362   7.777 -0.1017  0.1970 -0.0413
  690loPI   C5A 9687  11.180   9.982   8.105 -0.2789 -0.1748  0.1040
  690loPI   C6A 9688  11.437   9.642   8.165 -0.1748 -0.0310 -0.1303
  690loPI   C1B 9689  11.232  11.042   6.266 -0.0827 -0.0244  0.0911
  690loPI   C2B 9690  11.417  10.880   6.591 -0.0800 -0.5393 -0.2782
  690loPI   C3B 9691  11.368  10.777   6.991  0.1980 -0.2590  0.3456
  690loPI   C4B 9692  11.518  10.575   7.373  0.0999  0.0740  0.2676
  691loPI    C1 9693  13.585   0.830   5.395  0.1247 -0.0455 -0.0757
  691loPI    C2 9694  13.315   1.068   5.221  0.1842  0.0369 -0.0556
  691loPI    C3 9695  13.354   0.689   5.100  0.1574  0.0656 -0.1550
  691loPI   PO4 9696  13.535   0.916   5.633  0.1867  0.1606 -0.2793
  691loPI   GL1 9697  13.339   0.987   5.959  0.3312 -0.0310 -0.1139
  691loPI   GL2 9698  13.285   1.118   6.190 -0.1176  0.0365 -0.0406
  691loPI   C1A 9699  13.320   0.635   6.207 -0.0919 -0.0662  0.1973
  691loPI   C2A 9700  12.922   0.699   6.440  0.1626 -0.1945 -0.2845
  691loPI   C3A 9701  12.729   0.726   6.887  0.1291  0.2870 -0.0311
  691loPI   C4A 9702  12.636   0.803   7.381  0.3242 -0.0712 -0.2682
  691loPI   C5A 9703  12.291   0.887   7.670  0.0839 -0.0848  0.1250
  691loPI   C6A 9704  11.963   0.961   7.909 -0.2626 -0.1966  0.0204
  691loPI   C1B 9705  13.317   1.072   6.623 -0.2729  0.3215  0.1219
  691loPI   C2B 9706  13.071   1.054   6.949  0.0630 -0.1002 -0.3233
  691loPI   C3B 9707  13.091   1.158   7.333 -0.0279 -0.0607  0.1170
  691loPI   C4B 9708  13.188   1.355   7.699  0.0776  0.1953  0.0400
  692loPI    C1 9709  16.556   4.198   5.050 -0.4946  0.5003 -0.0924
  692loPI    C2 9710  16.184   4.052   5.049 -0.2958 -0.0277 -0.1612
  692loPI    C3 9711  16.412   4.020   4.722 -0.0314 -0.1354  0.0309
  692loPI   PO4 9712  16.688   4.274   5.216  0.0302  0.2211 -0.0172
  692loPI   GL1 9713  16.802   4.213   5.680 -0.0246  0.1219  0.0376
  692loPI   GL2 9714  16.475   4.072   5.792 -0.1269  0.1458  0.3600
  692loPI   C1A 9715  16.998   4.465   5.979 -0.0770 -0.1497 -0.0508
  692loPI   C2A 9716  16.822   4.844   6.213 -0.0061  0.0565  0.1073
  692loPI   C3A 9717  16.787   4.965   6.681 -0.0443  0.3144 -0.1040
  692loPI   C4A 9718  16.591   4.903   6.997  0.2600 -0.1667 -0.0137
  692loPI   C5A 9719  16.470   4.735   7.435 -0.0425  0.1742  0.0042
  692loPI   C6A 9720  16.202   4.741   7.871  0.1686  0.1095 -0.2048
  692loPI   C1B 9721  16.264   3.929   6.177  0.0961 -0.0696  0.0054
  692loPI   C2B 9722  16.148   3.627   6.628  0.1393 -0.2238  0.0153
  692loPI   C3B 9723  16.038   3.490   7.154 -0.1362  0.0913  0.4108
  692loPI   C4B 9724  15.848   3.331   7.454 -0.0787  0.3139 -0.1136
  693loPI    C1 9725   4.081  11.135   5.587  0.2043 -0.0923 -0.0718
  693loPI    C2 9726   4.360  11.323   5.371  0.2506 -0.1121 -0.0294
  693loPI    C3 9727   4.066  11.124   5.187  0.2680 -0.0968 -0.0742
  693loPI   PO4 9728   4.230  11.085   5.797  0.0098  0.0242  0.1219
  693loPI   GL1 9729   4.260  11.044   6.137  0.3791  0.2714  0.1586
  693loPI   GL2 9730   3.874  11.001   6.368 -0.0776 -0.2411  0.0965
  693loPI   C1A 9731   4.214  11.515   6.357  0.1133 -0.1531  0.0762
  693loPI   C2A 9732   4.135  11.583   6.794 -0.0244  0.0874 -0.1167
  693loPI   C3A 9733   3.967  11.737   7.195  0.2471  0.0014 -0.1047
  693loPI   C4A 9734   3.829  11.945   7.608  0.1254  0.0777 -0.1345
  693loPI   C5A 9735   3.676  11.790   8.045 -0.0543  0.0234 -0.1963
  693loPI   C6A 9736   3.662  11.832   8.493  0.1410 -0.2448 -0.1921
  693loPI   C1B 9737   3.861  11.067   6.874  0.0192  0.2090 -0.0394
  693loPI   C2B 9738   3.873  11.182   7.367 -0.1636 -0.2662 -0.5458
  693loPI   C3B 9739   3.659  11.443   7.639 -0.1076 -0.3273 -0.0961
  693loPI   C4B 9740   3.501  11.319   8.154 -0.1400 -0.0211  0.1271
  694loPI    C1 9741  12.108  10.213   5.311 -0.0430  0.1985  0.1958
  694loPI    C2 9742  12.287  10.199   4.953 -0.1624  0.0322  0.1413
  694loPI    C3 9743  12.230  10.551   5.136  0.0457  0.1029  0.0719
  694loPI   PO4 9744  12.167   9.963   5.465  0.1740 -0.1057 -0.1653
  694loPI   GL1 9745  12.171   9.959   5.983 -0.3146 -0.0693  0.1193
  694loPI   GL2 9746  12.358   9.719   5.997  0.2027  0.0247  0.2845
  694loPI   C1A 9747  11.833  10.067   6.203  0.0941  0.0981  0.0108
  694loPI   C2A 9748  11.593   9.920   6.494 -0.0564  0.0283 -0.3751
  694loPI   C3A 9749  11.554  10.024   7.008  0.1220 -0.3892 -0.1154
  694loPI   C4A 9750  11.569   9.971   7.450 -0.0252  0.1939 -0.1013
  694loPI   C5A 9751  11.829   9.827   7.770 -0.2098  0.0032 -0.2326
  694loPI   C6A 9752  11.989   9.718   8.184  0.1487  0.1341  0.1017
  694loPI   C1B 9753  12.122   9.739   6.437  0.1729 -0.2242  0.2091
  694loPI   C2B 9754  11.908   9.603   6.777  0.0108 -0.2795 -0.1213
  694loPI   C3B 9755  11.766   9.549   7.252 -0.0683 -0.3248  0.1368
  694loPI   C4B 9756  11.887   9.369   7.588 -0.0278  0.2373 -0.0423
  695loPI    C1 9757   9.953  10.135   5.504 -0.2568  0.0136 -0.0807
  695loPI    C2 9758  10.231   9.929   5.302 -0.2168 -0.1853  0.1719
  695loPI    C3 9759  10.212  10.327   5.268 -0.2196 -0.2157 -0.2307
  695loPI   PO4 9760   9.963  10.149   5.768 -0.0832  0.1494  0.1913
  695loPI   GL1 9761  10.189  10.238   6.143  0.1136 -0.1561  0.0091
  695loPI   GL2 9762  10.537  10.344   6.168  0.1468  0.0989  0.1846
  695loPI   C1A 9763  10.347  10.162   6.569 -0.1017  0.2130 -0.2242
  695loPI   C2A 9764  10.477  10.198   7.055 -0.0594  0.3977 -0.1505
  695loPI   C3A 9765  10.702  10.098   7.485  0.0396 -0.0358 -0.1278
  695loPI   C4A 9766  10.668   9.944   7.996 -0.0162 -0.1123  0.1168
  695loPI   C5A 9767  10.723   9.750   8.298  0.3375  0.0640  0.0927
  695loPI   C6A 9768  10.741   9.396   8.573  0.1050  0.2388  0.0252
  695loPI   C1B 9769  10.852  10.113   6.419  0.0216 -0.2577  0.2558
  695loPI   C2B 9770  10.960  10.044   6.873 -0.0342 -0.0113 -0.0628
  695loPI   C3B 9771  11.094   9.995   7.233 -0.0645 -0.0761  0.4293
  695loPI   C4B 9772  11.103   9.841   7.669  0.2071 -0.0562 -0.1235
  696loPI    C1 9773   3.470  15.294   5.433 -0.0807 -0.1668 -0.0418
  696loPI    C2 9774   3.176  15.562   5.400  0.3914  0.4190  0.3092
  696loPI    C3 9775   3.315  15.377   5.074 -0.1335  0.3781  0.0991
  696loPI   PO4 9776   3.487  15.333   5.765  0.0279  0.1778 -0.1712
  696loPI   GL1 9777   3.858  15.355   6.139  0.4132 -0.0437  0.0191
  696loPI   GL2 9778   3.589  15.365   6.195  0.1550 -0.1499 -0.2794
  696loPI   C1A 9779   3.749  14.920   6.251 -0.0567 -0.0699 -0.1625
  696loPI   C2A 9780   3.514  14.785   6.642 -0.1051 -0.3659 -0.0344
  696loPI   C3A 9781   3.529  14.697   7.072 -0.2462 -0.1487 -0.0599
  696loPI   C4A 9782   3.820  14.724   7.412  0.2180 -0.1230  0.2079
  696loPI   C5A 9783   4.064  14.616   7.802  0.0250 -0.0997  0.1073
  696loPI   C6A 9784   4.330  14.464   8.078 -0.0701  0.0628 -0.3552
  696loPI   C1B 9785   3.613  15.290   6.646  0.2321 -0.0038  0.1938
  696loPI   C2B 9786   3.742  15.159   7.052 -0.0557 -0.0750  0.0952
  696loPI   C3B 9787   3.856  15.187   7.440 -0.0956 -0.0885 -0.1475
  696loPI   C4B 9788   4.004  15.145   7.836  0.1129  0.2987 -0.1978
  697loPI    C1 9789   1.844   6.246   5.456  0.0519 -0.0142  0.0725
  697loPI    C2 9790   1.901   5.923   5.228  0.1575 -0.0600  0.1629
  697loPI    C3 9791   2.092   6.264   5.142  0.1131 -0.0462  0.1187
  697loPI   PO4 9792   1.697   6.129   5.631 -0.1534  0.2619  0.0488
  697loPI   GL1 9793   1.379   6.328   5.957 -0.2222 -0.1108 -0.0493
  697loPI   GL2 9794   1.585   6.461   6.119  0.1544  0.0307  0.2037
  697loPI   C1A 9795   1.297   6.022   6.333 -0.0320 -0.4635 -0.2818
  697loPI   C2A 9796   1.271   6.116   6.738 -0.1099 -0.0259  0.0001
  697loPI   C3A 9797   1.334   6.060   7.221  0.2902  0.0016  0.1705
  697loPI   C4A 9798   1.603   5.822   7.548  0.1996 -0.1735 -0.0963
  697loPI   C5A 9799   1.670   5.788   8.007 -0.3650 -0.2124  0.1275
  697loPI   C6A 9800   2.012   5.659   8.327  0.1123  0.1125 -0.1462
  697loPI   C1B 9801   1.490   6.541   6.530  0.0829 -0.0727  0.0249
  697loPI   C2B 9802   1.520   6.556   6.989 -0.0180 -0.1025  0.1126
  697loPI   C3B 9803   1.592   6.460   7.399 -0.0372  0.0061  0.0046
  697loPI   C4B 9804   1.673   6.302   7.768 -0.3438  0.1977 -0.0200
  698loPI    C1 9805  11.579   7.430   5.708  0.1293  0.2128  0.0499
  698loPI    C2 9806  11.191   7.520   5.669  0.1090  0.0471 -0.1502
  698loPI    C3 9807  11.384   7.335   5.372  0.3389  0.1158 -0.0463
  698loPI   PO4 9808  11.608   7.492   5.969 -0.1030 -0.6194  0.0408
  698loPI   GL1 9809  11.833   7.401   6.315 -0.0492  0.1865  0.1946
  698loPI   GL2 9810  11.708   7.697   6.528 -0.0718  0.0678 -0.1095
  698loPI   C1A 9811  11.983   7.272   6.586 -0.0032 -0.1003 -0.3217
  698loPI   C2A 9812  11.956   7.361   6.986  0.0682  0.1878 -0.1892
  698loPI   C3A 9813  11.741   7.419   7.365 -0.1023  0.1611  0.1592
  698loPI   C4A 9814  11.569   7.401   7.661  0.3776  0.2590  0.1602
  698loPI   C5A 9815  11.377   7.348   7.968 -0.2100  0.1573  0.1166
  698loPI   C6A 9816  11.511   7.136   8.275 -0.1442 -0.0096  0.1125
  698loPI   C1B 9817  11.686   7.764   6.991 -0.1109  0.2179  0.1246
  698loPI   C2B 9818  11.433   7.822   7.336 -0.0119 -0.2350 -0.2807
  698loPI   C3B 9819  11.208   7.779   7.654  0.2882  0.1949 -0.1504
  698loPI   C4B 9820  11.003   7.594   8.090 -0.1278 -0.0589  0.2431
  699loPI    C1 9821  11.928   1.992   5.320  0.1246 -0.0233  0.1599
  699loPI    C2 9822  11.696   2.192   5.063  0.1246  0.1617  0.3012
  699loPI    C3 9823  11.661   1.795   5.097  0.1052  0.1388  0.0375
  699loPI   PO4 9824  11.860   2.124   5.571  0.0768 -0.0003 -0.1519
  699loPI   GL1 9825  11.721   2.058   5.978 -0.1221 -0.2584 -0.0830
  699loPI   GL2 9826  11.519   2.300   5.888  0.0862 -0.1543 -0.0467
  699loPI   C1A 9827  11.949   2.081   6.420 -0.2797  0.2002 -0.0257
  699loPI   C2A 9828  12.006   1.972   6.798 -0.0820 -0.0982 -0.1680
  699loPI   C3A 9829  11.748   2.045   7.105  0.3594  0.2463  0.2760
  699loPI   C4A 9830  11.850   2.282   7.495 -0.2470  0.1414  0.0422
  699loPI   C5A 9831  11.755   2.400   7.872 -0.0791 -0.1966  0.1785
  699loPI   C6A 9832  12.073   2.747   8.130 -0.0916 -0.0974  0.1248
  699loPI   C1B 9833  11.431   2.178   6.378 -0.1057  0.0454  0.2258
  699loPI   C2B 9834  11.367   2.229   6.824 -0.0230 -0.0906  0.0846
  699loPI   C3B 9835  11.362   2.312   7.287 -0.3902  0.1631  0.1442
  699loPI   C4B 9836  11.252   2.212   7.658  0.0675 -0.1278  0.2668
  700loPI    C1 9837   4.753   4.986   5.112 -0.0600  0.0668 -0.0773
  700loPI    C2 9838   4.548   4.760   4.854 -0.1203  0.2912 -0.2295
  700loPI    C3 9839   4.898   4.920   4.745  0.0208  0.1086 -0.0532
  700loPI   PO4 9840   4.688   4.788   5.309  0.0503 -0.1806 -0.1647
  700loPI   GL1 9841   4.486   4.789   5.631 -0.1275  0.0987  0.0032
  700loPI   GL2 9842   4.646   4.539   5.814 -0.0330 -0.0407 -0.1323
  700loPI   C1A 9843   4.696   5.050   6.035  0.0247  0.1182  0.1539
  700loPI   C2A 9844   4.750   5.133   6.505 -0.2488  0.3302 -0.1422
  700loPI   C3A 9845   4.890   5.347   6.939  0.3457  0.1444  0.1178
  700loPI   C4A 9846   4.892   5.540   7.372  0.1698 -0.0893 -0.0007
  700loPI   C5A 9847   4.759   5.571   7.778 -0.2302  0.1502  0.2379
  700loPI   C6A 9848   4.492   5.749   8.053  0.2748  0.2885  0.0167
  700loPI   C1B 9849   4.590   4.593   6.180 -0.2372  0.1746  0.1448
  700loPI   C2B 9850   4.533   4.687   6.607  0.2869 -0.1332 -0.3893
  700loPI   C3B 9851   4.547   4.725   7.011 -0.0605  0.2772 -0.0330
  700loPI   C4B 9852   4.633   4.488   7.388 -0.0766  0.2862  0.3754
  701loPI    C1 9853   9.128  11.628   5.748 -0.0009 -0.2039 -0.1979
  701loPI    C2 9854   9.438  11.855   5.635 -0.0245 -0.1116 -0.0800
  701loPI    C3 9855   9.293  11.576   5.388  0.0461 -0.0420 -0.2008
  701loPI   PO4 9856   9.002  11.820   5.875  0.0559 -0.1214  0.0698
  701loPI   GL1 9857   9.059  11.886   6.265 -0.2295 -0.1059 -0.1886
  701loPI   GL2 9858   9.402  11.716   6.122 -0.1656 -0.0533 -0.0050
  701loPI   C1A 9859   9.013  12.009   6.611  0.1773 -0.2570  0.2387
  701loPI   C2A 9860   9.057  12.089   7.015 -0.0675 -0.2443 -0.1026
  701loPI   C3A 9861   9.020  12.052   7.440 -0.4179 -0.1046 -0.0057
  701loPI   C4A 9862   8.797  12.179   7.810 -0.1197  0.2516  0.2455
  701loPI   C5A 9863   8.496  11.975   8.107 -0.2108  0.0443 -0.0139
  701loPI   C6A 9864   8.126  12.017   8.403 -0.2268 -0.1379  0.0139
  701loPI   C1B 9865   9.387  11.672   6.674 -0.3527 -0.0142  0.0352
  701loPI   C2B 9866   9.418  11.750   7.083 -0.2462 -0.0272  0.0935
  701loPI   C3B 9867   9.324  11.667   7.407 -0.0554 -0.1120  0.2567
  701loPI   C4B 9868   9.270  11.813   7.791 -0.3834 -0.0482  0.4339
  702loPI    C1 9869   3.541  11.136   5.534  0.0550 -0.0407 -0.0610
  702loPI    C2 9870   3.408  10.760   5.565 -0.1313  0.0317  0.0396
  702loPI    C3 9871   3.183  11.038   5.386 -0.0492  0.1238  0.0783
  702loPI   PO4 9872   3.617  11.251   5.742  0.3548  0.1403 -0.2788
  702loPI   GL1 9873   3.779  11.385   6.081 -0.1910  0.3183 -0.1352
  702loPI   GL2 9874   3.413  11.331   6.172  0.1031 -0.0961  0.2154
  702loPI   C1A 9875   3.722  11.470   6.582  0.0369 -0.1004  0.1515
  702loPI   C2A 9876   3.638  11.494   6.933 -0.0056  0.3021 -0.0265
  702loPI   C3A 9877   3.463  11.722   7.229 -0.0201 -0.0043 -0.0464
  702loPI   C4A 9878   3.125  11.682   7.570  0.3912 -0.2315  0.0249
  702loPI   C5A 9879   2.796  11.332   7.543 -0.0101  0.0008  0.1905
  702loPI   C6A 9880   2.667  10.871   7.691 -0.1508  0.0438 -0.0129
  702loPI   C1B 9881   3.340  11.728   6.382  0.2225 -0.0439  0.3932
  702loPI   C2B 9882   3.220  11.745   6.802  0.2457  0.1450 -0.0193
  702loPI   C3B 9883   2.957  11.930   7.093 -0.2911  0.1111 -0.0384
  702loPI   C4B 9884   2.636  11.797   7.312  0.2229 -0.0713  0.1611
  703loPI    C1 9885   9.073  11.159   5.512  0.0013 -0.1512 -0.0851
  703loPI    C2 9886   8.784  11.010   5.278  0.0110 -0.0352 -0.1719
  703loPI    C3 9887   9.007  11.317   5.150  0.1430 -0.0947 -0.0869
  703loPI   PO4 9888   8.943  11.205   5.780 -0.0611 -0.1804 -0.1906
  703loPI   GL1 9889   9.045  11.156   6.185  0.4219 -0.0974  0.0871
  703loPI   GL2 9890   8.813  11.443   6.207  0.1099 -0.0511 -0.1119
  703loPI   C1A 9891   9.177  11.227   6.572 -0.0604  0.2505 -0.0973
  703loPI   C2A 9892   9.289  11.282   6.988 -0.2421  0.1117 -0.3744
  703loPI   C3A 9893   9.284  11.192   7.361 -0.1166  0.0161 -0.1883
  703loPI   C4A 9894   9.382  11.303   7.794 -0.0121  0.2712 -0.1240
  703loPI   C5A 9895   9.329  11.381   8.257 -0.0726 -0.0283  0.3318
  703loPI   C6A 9896   9.340  11.634   8.543  0.2510  0.0593  0.0729
  703loPI   C1B 9897   8.756  11.501   6.555 -0.0115 -0.2506  0.0124
  703loPI   C2B 9898   8.919  11.602   6.952 -0.2264 -0.0091  0.2475
  703loPI   C3B 9899   8.854  11.508   7.275  0.0207 -0.0806 -0.2931
  703loPI   C4B 9900   8.437  11.358   7.400 -0.2008 -0.0882  0.1513
  704loPI    C1 9901  10.895   7.229   5.421  0.2713 -0.0353 -0.0268
  704loPI    C2 9902  10.647   7.173   5.113 -0.0243  0.3124  0.1406
  704loPI    C3 9903  10.927   7.458   5.094  0.2105  0.0802  0.0477
  704loPI   PO4 9904  10.773   7.162   5.643 -0.0904 -0.1592 -0.1051
  704loPI   GL1 9905  10.826   7.450   6.012  0.3123 -0.2236  0.0552
  704loPI   GL2 9906  10.815   7.154   6.126 -0.1702  0.0118 -0.1367
  704loPI   C1A 9907  10.763   7.641   6.356 -0.2300 -0.0391  0.0670
  704loPI   C2A 9908  10.878   7.648   6.770  0.3585 -0.1378  0.0239
  704loPI   C3A 9909  10.865   7.718   7.188  0.2011 -0.1768 -0.0843
  704loPI   C4A 9910  10.718   7.827   7.607 -0.0395 -0.0908 -0.1564
  704loPI   C5A 9911  10.582   8.093   7.863  0.1468 -0.1002  0.1073
  704loPI   C6A 9912  10.590   8.505   7.834 -0.0925 -0.1611  0.0457
  704loPI   C1B 9913  10.795   7.139   6.655  0.0852  0.1650  0.0915
  704loPI   C2B 9914  10.786   7.238   7.079 -0.1560  0.2288 -0.0804
  704loPI   C3B 9915  10.479   7.335   7.389  0.2158 -0.2631 -0.1585
  704loPI   C4B 9916  10.069   7.403   7.606 -0.2320 -0.2549  0.0192
  705loPI    C1 9917   1.929   7.679   5.190 -0.0880 -0.1862 -0.0829
  705loPI    C2 9918   1.803   7.517   4.846 -0.1283 -0.0942 -0.1118
  705loPI    C3 9919   2.180   7.459   4.968 -0.1107 -0.1179 -0.1771
  705loPI   PO4 9920   1.712   7.576   5.365 -0.0764  0.2524  0.2456
  705loPI   GL1 9921   1.398   7.546   5.556  0.0035  0.1426  0.0138
  705loPI   GL2 9922   1.293   7.889   5.445  0.1008  0.0140  0.0563
  705loPI   C1A 9923   1.477   7.404   6.018  0.1146  0.0104  0.3477
  705loPI   C2A 9924   1.282   7.511   6.299 -0.0402 -0.4915  0.2093
  705loPI   C3A 9925   1.269   7.527   6.775 -0.0157  0.1933  0.0318
  705loPI   C4A 9926   1.334   7.431   7.182  0.3141 -0.0456 -0.0451
  705loPI   C5A 9927   1.508   7.174   7.541 -0.0872  0.1538 -0.1313
  705loPI   C6A 9928   1.569   6.811   7.850 -0.0411  0.3408  0.4854
  705loPI   C1B 9929   1.219   7.898   5.875 -0.1318  0.0993 -0.0383
  705loPI   C2B 9930   1.031   7.930   6.283  0.0636 -0.2983 -0.1021
  705loPI   C3B 9931   1.058   7.971   6.695  0.0315 -0.1483  0.0019
  705loPI   C4B 9932   1.108   7.933   7.120 -0.3267 -0.2294  0.2347
  706loPI    C1 9933   0.127   9.117   5.603  0.0036  0.1315  0.2384
  706loPI    C2 9934   0.073   9.272   5.238 -0.1964 -0.1212  0.1580
  706loPI    C3 9935   0.409   9.071   5.323 -0.1378 -0.0389  0.1221
  706loPI   PO4 9936   0.121   9.290   5.727 -0.1540 -0.0190  0.0439
  706loPI   GL1 9937   0.228   9.418   6.105  0.0779 -0.2250 -0.0329
  706loPI   GL2 9938   0.462   9.140   6.152  0.1428 -0.1475  0.0682
  706loPI   C1A 9939  -0.030   9.175   6.394  0.3005 -0.3733  0.0332
  706loPI   C2A 9940  -0.066   9.199   6.836 -0.1048 -0.0238  0.1530
  706loPI   C3A 9941   0.149   8.968   7.102 -0.0183  0.0003 -0.4935
  706loPI   C4A 9942   0.210   8.954   7.624 -0.1099 -0.0248  0.0336
  706loPI   C5A 9943  -0.099   8.942   8.009 -0.1595  0.1286 -0.0742
  706loPI   C6A 9944  -0.367   9.177   8.338  0.0998 -0.1527 -0.1011
  706loPI   C1B 9945   0.840   9.186   6.399  0.1836  0.0196  0.1674
  706loPI   C2B 9946   0.936   9.018   6.770 -0.0058 -0.1393 -0.0026
  706loPI   C3B 9947   0.703   8.853   7.126 -0.0252  0.2769 -0.0921
  706loPI   C4B 9948   0.683   8.819   7.574  0.0552  0.1765 -0.2491
  707loPI    C1 9949   2.554   7.665   5.379  0.0884 -0.0861  0.1181
  707loPI    C2 9950   2.460   7.672   5.768  0.0788  0.1351  0.1130
  707loPI    C3 9951   2.841   7.631   5.656  0.1016  0.2455  0.1490
  707loPI   PO4 9952   2.407   7.856   5.309  0.2054  0.1991 -0.2295
  707loPI   GL1 9953   2.173   8.111   5.636 -0.0727 -0.1012  0.0431
  707loPI   GL2 9954   2.365   8.198   5.751 -0.3538  0.2933  0.2733
  707loPI   C1A 9955   1.951   8.278   6.022 -0.1015 -0.2133  0.0317
  707loPI   C2A 9956   1.801   8.658   6.218 -0.0575 -0.0001 -0.2343
  707loPI   C3A 9957   1.568   9.031   6.272  0.3233 -0.1135 -0.0950
  707loPI   C4A 9958   1.480   9.183   6.716  0.0158 -0.2158  0.2256
  707loPI   C5A 9959   1.621   9.244   7.122  0.0795 -0.1279 -0.1413
  707loPI   C6A 9960   1.966   9.284   7.305 -0.1109  0.0824 -0.1676
  707loPI   C1B 9961   2.401   8.024   6.112 -0.1285  0.1492 -0.0072
  707loPI   C2B 9962   2.176   7.821   6.276 -0.0937 -0.2102  0.0754
  707loPI   C3B 9963   2.092   7.516   6.556  0.0723 -0.3503 -0.0509
  707loPI   C4B 9964   2.170   7.073   6.656 -0.0193  0.2502 -0.0465
  708loPI    C1 9965   6.634  14.373   5.163  0.3308  0.1453  0.1007
  708loPI    C2 9966   6.710  13.985   5.105 -0.0298  0.0856  0.0044
  708loPI    C3 9967   6.847  14.257   4.846  0.1523  0.0160  0.0264
  708loPI   PO4 9968   6.567  14.369   5.448  0.1146  0.1057 -0.2398
  708loPI   GL1 9969   6.561  14.301   5.874  0.1832 -0.1737  0.1876
  708loPI   GL2 9970   6.871  14.424   6.063  0.0918 -0.1509  0.0474
  708loPI   C1A 9971   6.452  14.230   6.196  0.4400 -0.0457 -0.0284
  708loPI   C2A 9972   6.265  14.198   6.598  0.4009 -0.0574  0.3994
  708loPI   C3A 9973   6.119  14.123   6.953 -0.2597  0.0282 -0.2319
  708loPI   C4A 9974   6.062  14.156   7.414 -0.1377  0.4444  0.0484
  708loPI   C5A 9975   6.133  14.079   7.794  0.3781 -0.2472 -0.1137
  708loPI   C6A 9976   6.126  14.353   8.195 -0.1923  0.2847 -0.1519
  708loPI   C1B 9977   7.111  14.595   6.400  0.2294 -0.2053 -0.0697
  708loPI   C2B 9978   7.134  14.498   6.839 -0.1265  0.0846  0.1679
  708loPI   C3B 9979   6.925  14.682   7.168  0.0969 -0.0027 -0.1016
  708loPI   C4B 9980   7.108  14.854   7.645  0.0196 -0.1030 -0.4380
  709loPI    C1 9981  15.615   6.610   5.025 -0.2300 -0.0611  0.0371
  709loPI    C2 9982  15.236   6.616   4.896 -0.1833  0.2363 -0.0939
  709loPI    C3 9983  15.497   6.890   4.765  0.1557 -0.1441 -0.2348
  709loPI   PO4 9984  15.648   6.582   5.355 -0.0743 -0.0477 -0.0249
  709loPI   GL1 9985  15.641   6.299   5.618  0.1093 -0.0267  0.2286
  709loPI   GL2 9986  15.880   6.315   5.712  0.0253 -0.0725  0.3751
  709loPI   C1A 9987  15.352   6.229   6.003 -0.1131  0.1916 -0.1692
  709loPI   C2A 9988  15.440   6.193   6.438 -0.1817 -0.2097 -0.1563
  709loPI   C3A 9989  15.278   6.281   6.862 -0.2983  0.0328  0.0784
  709loPI   C4A 9990  15.449   6.188   7.307 -0.0245  0.2347 -0.0904
  709loPI   C5A 9991  15.310   6.018   7.728  0.1453 -0.2632 -0.1127
  709loPI   C6A 9992  15.300   5.582   7.690  0.0599 -0.1857  0.1823
  709loPI   C1B 9993  16.023   6.220   6.178  0.1342 -0.3430  0.3161
  709loPI   C2B 9994  15.947   6.286   6.632 -0.0009 -0.1543  0.3643
  709loPI   C3B 9995  15.856   6.198   6.971 -0.0333 -0.1890  0.1967
  709loPI   C4B 9996  15.872   6.428   7.339 -0.1220 -0.0572 -0.3657
  710loPI    C1 9997  14.742  13.992   5.733 -0.3145 -0.1874  0.1632
  710loPI    C2 9998  14.396  14.010   5.532 -0.1961 -0.0116 -0.0290
  710loPI    C3 9999  14.721  13.852   5.359 -0.1410 -0.0361  0.0952
  710loPI   PO410000  14.752  13.865   5.916 -0.0685 -0.0941  0.1148
  710loPI   GL110001  15.019  13.911   6.318 -0.0278 -0.0823  0.1461
  710loPI   GL210002  15.021  14.214   6.366  0.3091  0.0814 -0.1719
  710loPI   C1A10003  15.108  13.642   6.648  0.2974  0.3351 -0.0441
  710loPI   C2A10004  14.975  13.369   6.877  0.3185 -0.0473  0.1513
  710loPI   C3A10005  14.809  13.083   7.242 -0.1141 -0.2570  0.0666
  710loPI   C4A10006  14.906  12.833   7.607  0.1900  0.4411  0.0589
  710loPI   C5A10007  14.523  12.778   8.006 -0.3569  0.1571  0.1777
  710loPI   C6A10008  14.404  12.528   8.358  0.1159 -0.2400  0.1435
  710loPI   C1B10009  15.277  14.103   6.739  0.0933 -0.2393 -0.3274
  710loPI   C2B10010  15.597  14.272   7.051 -0.0182 -0.4308  0.1642
  710loPI   C3B10011  15.650  14.564   7.327  0.1495  0.0780  0.0380
  710loPI   C4B10012  15.787  14.692   7.674 -0.1382 -0.2551 -0.2105
  711loPI    C110013   8.005   1.317   5.019  0.1670  0.0797  0.0652
  711loPI    C210014   7.875   1.562   4.730  0.0548 -0.0738 -0.0162
  711loPI    C310015   8.194   1.329   4.667  0.2947  0.2058  0.1371
  711loPI   PO410016   7.996   1.441   5.201 -0.1614  0.1837 -0.0223
  711loPI   GL110017   7.982   1.482   5.660 -0.0111 -0.1924 -0.2092
  711loPI   GL210018   7.851   1.219   5.696  0.1505  0.0060 -0.0781
  711loPI   C1A10019   7.995   1.679   5.982 -0.4201  0.1411 -0.0623
  711loPI   C2A10020   8.108   1.843   6.391  0.0419  0.2106  0.0241
  711loPI   C3A10021   8.163   1.869   6.734  0.1266  0.0782  0.1081
  711loPI   C4A10022   8.291   1.755   7.110 -0.1542 -0.1169  0.0344
  711loPI   C5A10023   8.582   1.741   7.498  0.1918  0.3164  0.1136
  711loPI   C6A10024   8.515   1.916   7.864 -0.0488 -0.2523  0.0182
  711loPI   C1B10025   7.943   1.117   6.100  0.1279 -0.0397  0.2663
  711loPI   C2B10026   7.938   1.052   6.531 -0.3166 -0.1446  0.2994
  711loPI   C3B10027   8.008   1.017   6.892  0.0615 -0.1715  0.1126
  711loPI   C4B10028   8.155   0.968   7.368 -0.0939 -0.0463  0.1421
  712loPI    C110029  10.263   1.106   5.192 -0.0767  0.0384  0.1254
  712loPI    C210030  10.455   0.927   4.890 -0.1779  0.0277  0.0670
  712loPI    C310031  10.277   1.280   4.832 -0.0716  0.0960  0.1533
  712loPI   PO410032  10.391   1.060   5.396  0.0870 -0.1109  0.0931
  712loPI   GL110033  10.422   1.194   5.792 -0.0206  0.0273 -0.5333
  712loPI   GL210034  10.660   0.952   5.826 -0.0634 -0.2286  0.1668
  712loPI   C1A10035  10.619   1.443   6.108  0.0642  0.2625  0.1425
  712loPI   C2A10036  10.621   1.325   6.529  0.0187 -0.0056  0.1517
  712loPI   C3A10037  10.686   1.487   6.940  0.1493 -0.1512  0.1274
  712loPI   C4A10038  11.016   1.432   7.194 -0.0118 -0.0204 -0.1252
  712loPI   C5A10039  11.174   1.603   7.536  0.1342  0.0914 -0.5186
  712loPI   C6A10040  11.306   1.717   7.947 -0.4764 -0.3980 -0.3639
  712loPI   C1B10041  10.801   0.646   6.165  0.0313  0.1307  0.1136
  712loPI   C2B10042  10.594   0.574   6.542 -0.0444 -0.4274 -0.1161
  712loPI   C3B10043  10.513   0.550   6.952  0.1066  0.1650  0.3305
  712loPI   C4B10044  10.541   0.548   7.478 -0.1351  0.2976 -0.0861
  713loPI    C110045   7.492   7.518   4.956  0.2444 -0.1441 -0.0618
  713loPI    C210046   7.520   7.166   4.768  0.1921 -0.1022 -0.1485
  713loPI    C310047   7.375   7.486   4.575 -0.0792 -0.1127  0.0322
  713loPI   PO410048   7.390   7.415   5.161  0.1282 -0.2462  0.1043
  713loPI   GL110049   7.301   7.331   5.666 -0.0977  0.0872  0.2212
  713loPI   GL210050   7.298   7.559   5.839 -0.3501  0.0238  0.2573
  713loPI   C1A10051   6.974   7.077   5.815 -0.2857  0.0741  0.1254
  713loPI   C2A10052   6.967   7.100   6.200 -0.2484 -0.0918 -0.0916
  713loPI   C3A10053   7.165   6.871   6.505 -0.2192  0.0786 -0.0403
  713loPI   C4A10054   7.222   6.895   6.931 -0.1076  0.4278 -0.1637
  713loPI   C5A10055   7.320   6.814   7.350 -0.1852  0.3658 -0.2988
  713loPI   C6A10056   6.876   6.942   7.562  0.0082 -0.0452 -0.1901
  713loPI   C1B10057   7.461   7.290   6.170 -0.0237 -0.0577  0.1809
  713loPI   C2B10058   7.430   7.263   6.621  0.0689 -0.0079 -0.1143
  713loPI   C3B10059   7.414   7.382   7.048  0.2305 -0.3018 -0.0452
  713loPI   C4B10060   7.297   7.274   7.485 -0.0189  0.1505 -0.1034
  714loPI    C110061  13.052   3.725   5.638 -0.1741 -0.0597 -0.2626
  714loPI    C210062  12.972   3.380   5.451  0.1468 -0.2005 -0.1482
  714loPI    C310063  13.329   3.555   5.403  0.1060 -0.0566  0.0577
  714loPI   PO410064  12.769   3.873   5.635  0.2778  0.2761  0.2311
  714loPI   GL110065  12.692   4.220   5.949 -0.1153  0.1287  0.1579
  714loPI   GL210066  12.429   4.258   5.803  0.2215  0.2727 -0.0151
  714loPI   C1A10067  12.665   4.489   6.370  0.0998  0.0426  0.0414
  714loPI   C2A10068  12.708   4.697   6.802 -0.1380  0.1858  0.1209
  714loPI   C3A10069  12.590   4.770   7.274 -0.2031 -0.1512  0.1328
  714loPI   C4A10070  12.741   4.693   7.703 -0.0051 -0.0204 -0.1093
  714loPI   C5A10071  12.837   4.475   7.989 -0.2428 -0.0870  0.1201
  714loPI   C6A10072  12.507   4.237   8.131 -0.0077  0.2067  0.2636
  714loPI   C1B10073  12.207   4.418   6.193 -0.0775  0.2081 -0.2387
  714loPI   C2B10074  12.198   4.553   6.539 -0.2090  0.2439  0.1125
  714loPI   C3B10075  12.213   4.601   6.988 -0.1175 -0.1447  0.1045
  714loPI   C4B10076  12.231   4.484   7.350  0.0199  0.1071  0.0196
  715loPI    C110077   4.705  10.391   5.738  0.0478  0.0482 -0.0455
  715loPI    C210078   4.411  10.128   5.675  0.0507  0.0263  0.0315
  715loPI    C310079   4.600  10.295   5.364 -0.1023  0.1073 -0.0194
  715loPI   PO410080   4.836  10.336   5.931  0.0625  0.2213 -0.1181
  715loPI   GL110081   4.879  10.503   6.280 -0.1390 -0.0044  0.2043
  715loPI   GL210082   4.985  10.652   6.406 -0.0869 -0.2411  0.0681
  715loPI   C1A10083   4.738  10.255   6.654  0.1774 -0.2062  0.0877
  715loPI   C2A10084   4.866  10.286   7.167  0.0837 -0.0724 -0.1129
  715loPI   C3A10085   4.625  10.296   7.483 -0.0947  0.0264  0.1029
  715loPI   C4A10086   4.690  10.158   7.944  0.3103  0.1396 -0.3125
  715loPI   C5A10087   4.930  10.282   8.214  0.2511 -0.1844 -0.0124
  715loPI   C6A10088   5.321  10.248   8.191  0.2293  0.1681  0.3357
  715loPI   C1B10089   5.042  10.654   6.855  0.2094  0.0541  0.2757
  715loPI   C2B10090   5.265  10.970   7.058 -0.0463 -0.2169 -0.0854
  715loPI   C3B10091   5.663  11.093   7.133  0.0251 -0.2851 -0.1671
  715loPI   C4B10092   5.856  11.456   7.026 -0.0554 -0.1740  0.0267
  716loPI    C110093  14.712  16.045   5.731  0.1007  0.3196 -0.0293
  716loPI    C210094  14.602  16.416   5.631 -0.2230  0.1668 -0.2615
  716loPI    C310095  14.466  16.105   5.421  0.0867 -0.0826 -0.1012
  716loPI   PO410096  14.618  16.106   6.019 -0.3318 -0.1456  0.4577
  716loPI   GL110097  14.803  16.061   6.449 -0.2714  0.1558 -0.1123
  716loPI   GL210098  14.708  16.447   6.510  0.0410  0.1143 -0.2568
  716loPI   C1A10099  14.932  16.157   6.836  0.1568  0.0045  0.2813
  716loPI   C2A10100  14.863  16.232   7.242 -0.2232  0.1134 -0.0161
  716loPI   C3A10101  14.674  16.202   7.538 -0.1692  0.3122 -0.4068
  716loPI   C4A10102  14.672  16.232   7.984 -0.1275  0.0440 -0.3307
  716loPI   C5A10103  14.660  16.351   8.405  0.0774 -0.0711 -0.0669
  716loPI   C6A10104  14.606  16.402   8.799 -0.0047  0.1298  0.0337
  716loPI   C1B10105  14.468  16.426   6.919 -0.0052  0.1228 -0.0150
  716loPI   C2B10106  14.317  16.422   7.300 -0.0265 -0.0222  0.0963
  716loPI   C3B10107  14.207  16.390   7.747 -0.0768 -0.0537 -0.0776
  716loPI   C4B10108  14.035  16.552   8.012  0.1304  0.0011  0.0220
  717loPI    C110109   4.083   0.652   5.380 -0.0445  0.0701  0.2087
  717loPI    C210110   3.817   0.861   5.166 -0.2317 -0.3283  0.0406
  717loPI    C310111   4.068   0.609   4.982 -0.0305 -0.2794  0.2425
  717loPI   PO410112   4.115   0.800   5.561  0.1151 -0.1289  0.3774
  717loPI   GL110113   4.021   1.036   5.904 -0.3160  0.2301  0.0436
  717loPI   GL210114   3.712   0.920   6.054 -0.3096 -0.1282  0.2022
  717loPI   C1A10115   4.325   1.051   6.225 -0.0803  0.1763 -0.0208
  717loPI   C2A10116   4.297   1.161   6.630  0.1572  0.0096 -0.0052
  717loPI   C3A10117   4.319   1.225   6.981  0.1872  0.0492  0.2161
  717loPI   C4A10118   4.487   1.221   7.420 -0.0163  0.1315 -0.4274
  717loPI   C5A10119   4.616   1.406   7.871  0.1019  0.3829 -0.1291
  717loPI   C6A10120   4.272   1.536   8.167  0.0081  0.1287 -0.0723
  717loPI   C1B10121   3.812   1.071   6.490 -0.1169 -0.0745  0.0023
  717loPI   C2B10122   3.819   1.221   6.930 -0.2536 -0.0262  0.1729
  717loPI   C3B10123   3.974   1.165   7.366 -0.2903  0.1604  0.0431
  717loPI   C4B10124   4.084   1.065   7.800  0.0607 -0.0716  0.0072
  718loPI    C110125   2.061  14.707   5.855 -0.0141  0.1642  0.2193
  718loPI    C210126   2.249  14.884   5.549  0.0648  0.0134  0.1796
  718loPI    C310127   2.061  14.535   5.494 -0.1707  0.1293  0.2352
  718loPI   PO410128   2.204  14.796   6.081 -0.0602  0.2346 -0.0545
  718loPI   GL110129   2.082  14.951   6.446 -0.0967  0.3088 -0.3836
  718loPI   GL210130   2.317  15.185   6.431  0.0976 -0.1669 -0.0415
  718loPI   C1A10131   2.086  14.859   6.900  0.1801 -0.1074 -0.0307
  718loPI   C2A10132   1.852  14.878   7.358  0.3009  0.1643 -0.0938
  718loPI   C3A10133   1.707  14.768   7.700 -0.0975 -0.3135  0.2376
  718loPI   C4A10134   1.894  14.838   8.088  0.3114 -0.4301 -0.6035
  718loPI   C5A10135   2.308  14.909   8.241 -0.2441 -0.0003 -0.0839
  718loPI   C6A10136   2.573  14.907   8.058 -0.2152  0.0161  0.2494
  718loPI   C1B10137   2.348  15.239   6.832 -0.1323 -0.2393 -0.1247
  718loPI   C2B10138   2.289  15.517   7.246  0.0906  0.1766  0.1820
  718loPI   C3B10139   2.533  15.492   7.667  0.0041 -0.0408 -0.0821
  718loPI   C4B10140   2.805  15.164   7.655  0.0250  0.0613 -0.1238
  719loPI    C110141  15.018   7.576   5.001  0.0869 -0.1127  0.0393
  719loPI    C210142  14.996   7.844   4.705 -0.1754 -0.0659  0.0986
  719loPI    C310143  15.059   7.458   4.621 -0.2519 -0.0535 -0.0185
  719loPI   PO410144  15.072   7.787   5.195  0.1220 -0.0455 -0.1408
  719loPI   GL110145  15.090   7.874   5.639  0.1933 -0.1049 -0.2928
  719loPI   GL210146  14.884   7.679   5.944 -0.1413  0.5065  0.0811
  719loPI   C1A10147  15.200   8.219   5.962  0.1026  0.1658 -0.2833
  719loPI   C2A10148  15.435   8.439   6.203 -0.1127 -0.2329 -0.1405
  719loPI   C3A10149  15.287   8.248   6.531  0.2327 -0.1254 -0.1444
  719loPI   C4A10150  15.235   8.166   6.963 -0.0157 -0.1740 -0.1939
  719loPI   C5A10151  15.126   8.358   7.438  0.1058 -0.0912 -0.2557
  719loPI   C6A10152  14.941   8.377   7.849 -0.0838  0.0755 -0.2540
  719loPI   C1B10153  14.944   7.608   6.411  0.1688  0.0456  0.0865
  719loPI   C2B10154  14.946   7.478   6.839  0.0619 -0.3710  0.1960
  719loPI   C3B10155  14.904   7.376   7.176 -0.3482  0.0256  0.1841
  719loPI   C4B10156  14.968   7.479   7.518 -0.1903 -0.0664 -0.0064
  720loPI    C110157   9.469   2.084   5.215  0.0562 -0.2600  0.2568
  720loPI    C210158   9.550   2.214   4.845  0.1637  0.0785  0.3957
  720loPI    C310159   9.673   1.852   4.961  0.1101 -0.0389  0.0946
  720loPI   PO410160   9.097   2.096   5.171 -0.1009 -0.0558 -0.0407
  720loPI   GL110161   8.797   2.128   5.613  0.0358  0.2254 -0.0308
  720loPI   GL210162   9.058   2.346   5.661 -0.1051 -0.1481  0.0093
  720loPI   C1A10163   8.772   2.037   6.017  0.1682 -0.1499 -0.3490
  720loPI   C2A10164   8.614   2.010   6.418 -0.0467  0.1232 -0.2045
  720loPI   C3A10165   8.579   2.127   6.863 -0.3327 -0.0997 -0.1261
  720loPI   C4A10166   8.631   2.138   7.238  0.3315  0.2832 -0.0168
  720loPI   C5A10167   8.449   2.340   7.492 -0.1059  0.0375  0.0698
  720loPI   C6A10168   8.303   2.527   7.893 -0.0099 -0.3634  0.0590
  720loPI   C1B10169   9.174   2.356   6.103 -0.0431 -0.1221 -0.0561
  720loPI   C2B10170   9.013   2.427   6.535  0.0817 -0.0336  0.0193
  720loPI   C3B10171   8.918   2.467   6.962 -0.0545 -0.0884  0.0646
  720loPI   C4B10172   8.836   2.650   7.374 -0.3130 -0.2105 -0.2090
  721loPI    C110173  16.767   9.965   5.559 -0.0454  0.0538  0.0093
  721loPI    C210174  16.803  10.202   5.239  0.1310 -0.0935 -0.0818
  721loPI    C310175  16.721   9.814   5.192  0.2218 -0.1294  0.0482
  721loPI   PO410176  16.646   9.990   5.665 -0.1169 -0.1494  0.4028
  721loPI   GL110177  16.498  10.189   6.027  0.2942  0.4311  0.0116
  721loPI   GL210178  16.596   9.855   6.186 -0.3301 -0.1692  0.1784
  721loPI   C1A10179  16.174  10.011   6.374  0.1434  0.2451 -0.1987
  721loPI   C2A10180  15.895   9.920   6.622  0.3302  0.2977 -0.0582
  721loPI   C3A10181  15.840   9.716   7.047  0.0143  0.0875  0.0981
  721loPI   C4A10182  15.777   9.526   7.453  0.2279  0.2838 -0.1455
  721loPI   C5A10183  15.757   9.463   7.946  0.3119 -0.1032 -0.1579
  721loPI   C6A10184  15.709   9.437   8.351  0.0302 -0.0223 -0.3849
  721loPI   C1B10185  16.529   9.704   6.614  0.2952 -0.0691  0.3986
  721loPI   C2B10186  16.460   9.650   6.982 -0.0077  0.0541  0.1998
  721loPI   C3B10187  16.495   9.584   7.386 -0.0180 -0.0487  0.1311
  721loPI   C4B10188  16.641   9.449   7.773  0.0350  0.1143 -0.0763
  722loPI    C110189  13.040  10.541   5.554  0.1643 -0.0625  0.0722
  722loPI    C210190  13.070  10.238   5.294  0.1888  0.0564 -0.0649
  722loPI    C310191  13.014  10.611   5.161 -0.0016  0.0918  0.1092
  722loPI   PO410192  13.204  10.558   5.692  0.0537 -0.0840 -0.2669
  722loPI   GL110193  13.359  10.315   6.038 -0.2094 -0.1864  0.1970
  722loPI   GL210194  13.476  10.363   6.363 -0.0937 -0.0270  0.0997
  722loPI   C1A10195  13.059  10.157   6.331  0.0399  0.0970  0.2282
  722loPI   C2A10196  13.035  10.218   6.756  0.0577  0.0901 -0.0027
  722loPI   C3A10197  12.921  10.091   7.157  0.0605  0.2577 -0.0749
  722loPI   C4A10198  12.826  10.021   7.539  0.1377  0.3287  0.0133
  722loPI   C5A10199  12.825   9.995   7.989 -0.5272  0.2673  0.1452
  722loPI   C6A10200  13.141  10.132   8.311  0.0998 -0.4154  0.2399
  722loPI   C1B10201  13.526  10.337   6.790 -0.2161  0.1703 -0.2083
  722loPI   C2B10202  13.333  10.361   7.127 -0.4309  0.0396 -0.3416
  722loPI   C3B10203  13.407  10.342   7.515 -0.2793 -0.2890 -0.2020
  722loPI   C4B10204  13.126  10.373   7.777 -0.0284  0.1827 -0.1212
  723loPI    C110205  10.339  16.495   5.658 -0.0451 -0.0667  0.1486
  723loPI    C210206  10.693  16.548   5.480  0.0222 -0.2225  0.2340
  723loPI    C310207  10.357  16.565   5.265  0.0870 -0.1620  0.1367
  723loPI   PO410208  10.337  16.638   5.860  0.0191 -0.0531  0.2675
  723loPI   GL110209  10.371  16.583   6.158  0.1504 -0.2912 -0.0526
  723loPI   GL210210  10.253  16.321   6.311 -0.3414 -0.1134  0.1740
  723loPI   C1A10211  10.308  16.802   6.459 -0.1598  0.1040 -0.4229
  723loPI   C2A10212  10.351  16.818   7.007 -0.1702 -0.3937  0.0223
  723loPI   C3A10213  10.435  16.966   7.416  0.0144  0.4569 -0.0285
  723loPI   C4A10214  10.448  16.986   7.926 -0.2976  0.2323  0.0442
  723loPI   C5A10215  10.625  16.809   8.297  0.1354 -0.0499 -0.2830
  723loPI   C6A10216  10.804  16.662   8.587  0.1190  0.2158  0.0849
  723loPI   C1B10217  10.256  16.302   6.686 -0.0527  0.0999  0.1542
  723loPI   C2B10218  10.303  16.319   7.021 -0.3202  0.0124  0.1053
  723loPI   C3B10219  10.380  16.444   7.466  0.1994  0.0947  0.0358
  723loPI   C4B10220  10.305  16.316   7.851  0.1362  0.2468  0.1742
  724loPI    C110221   6.508  17.506   5.647  0.0714  0.0636  0.0832
  724loPI    C210222   6.625  17.151   5.504 -0.1117  0.0681 -0.0811
  724loPI    C310223   6.897  17.432   5.588  0.0356 -0.1146  0.0633
  724loPI   PO410224   6.281  17.332   5.810 -0.0739 -0.0321  0.0221
  724loPI   GL110225   6.291  17.233   6.150  0.1012  0.0111 -0.3321
  724loPI   GL210226   6.077  17.039   6.197 -0.2475  0.2107 -0.1868
  724loPI   C1A10227   6.292  17.400   6.556  0.0283  0.2740  0.1910
  724loPI   C2A10228   6.351  17.427   6.944 -0.0595 -0.2561  0.1276
  724loPI   C3A10229   6.338  17.395   7.298  0.1370 -0.0376  0.1586
  724loPI   C4A10230   6.466  17.517   7.733  0.0610 -0.1285  0.0224
  724loPI   C5A10231   6.211  17.472   8.115  0.0390  0.2322 -0.0447
  724loPI   C6A10232   6.171  17.537   8.518 -0.1432 -0.2163 -0.3722
  724loPI   C1B10233   5.856  17.043   6.530  0.1675 -0.0404 -0.1221
  724loPI   C2B10234   5.717  16.732   6.880 -0.0514  0.2258 -0.3011
  724loPI   C3B10235   5.625  16.585   7.269  0.2285 -0.0206  0.0348
  724loPI   C4B10236   5.393  16.227   7.474  0.1922  0.2657  0.3251
  725loPI    C110237  14.009   8.022   5.547 -0.1252 -0.0582  0.1329
  725loPI    C210238  13.706   8.165   5.328 -0.0394 -0.1873 -0.0735
  725loPI    C310239  14.063   8.105   5.159  0.0485 -0.2193  0.1215
  725loPI   PO410240  13.890   8.014   5.780  0.1223  0.1404 -0.0764
  725loPI   GL110241  13.951   7.628   6.083 -0.0017  0.2356  0.0139
  725loPI   GL210242  13.745   7.354   6.060  0.2548 -0.0194 -0.0502
  725loPI   C1A10243  13.981   7.560   6.567 -0.3126 -0.3191 -0.0091
  725loPI   C2A10244  14.020   7.534   7.015 -0.0168 -0.1128  0.2604
  725loPI   C3A10245  13.936   7.596   7.490 -0.0687  0.5167 -0.2008
  725loPI   C4A10246  13.659   7.362   7.738 -0.3797 -0.2245 -0.1400
  725loPI   C5A10247  13.347   7.313   7.964  0.1605 -0.0112 -0.1501
  725loPI   C6A10248  12.966   7.508   7.842  0.0231 -0.2036 -0.3577
  725loPI   C1B10249  13.478   7.424   6.395  0.1083  0.0053  0.1606
  725loPI   C2B10250  13.487   7.422   6.822 -0.2276  0.2152  0.1160
  725loPI   C3B10251  13.477   7.406   7.229 -0.0127 -0.1531 -0.2607
  725loPI   C4B10252  13.234   7.262   7.473 -0.3674  0.1732 -0.2371
  726loPI    C110253  14.008   1.315   5.163 -0.2180  0.1230  0.1006
  726loPI    C210254  13.811   1.031   4.962  0.0336 -0.0334  0.0705
  726loPI    C310255  14.127   1.210   4.795 -0.0422  0.1702  0.1432
  726loPI   PO410256  13.757   1.360   5.350 -0.1580  0.4557  0.1603
  726loPI   GL110257  13.653   1.342   5.814 -0.1818  0.2318  0.2589
  726loPI   GL210258  13.848   1.248   6.038 -0.0451 -0.1468 -0.1703
  726loPI   C1A10259  13.540   1.585   6.238  0.2596 -0.0305  0.1905
  726loPI   C2A10260  13.477   1.637   6.671  0.2833 -0.2543  0.1498
  726loPI   C3A10261  13.483   1.472   7.078  0.1251 -0.4660 -0.2473
  726loPI   C4A10262  13.683   1.300   7.436  0.0447 -0.2774  0.0014
  726loPI   C5A10263  13.776   1.157   7.800 -0.0492  0.2739 -0.2473
  726loPI   C6A10264  14.133   1.222   8.071  0.2962 -0.0598 -0.0497
  726loPI   C1B10265  13.768   1.168   6.377  0.0109  0.0702  0.0982
  726loPI   C2B10266  13.804   1.253   6.759 -0.2096  0.1386  0.2260
  726loPI   C3B10267  14.122   1.350   7.096 -0.0365  0.3644 -0.1559
  726loPI   C4B10268  14.231   1.376   7.533 -0.0685  0.1019 -0.2748
  727loPI    C110269   4.598   7.646   5.425  0.0658  0.3574  0.1041
  727loPI    C210270   4.954   7.637   5.243  0.0300  0.2677  0.0374
  727loPI    C310271   4.621   7.690   5.028 -0.0017  0.2974  0.0933
  727loPI   PO410272   4.618   7.708   5.651 -0.1020  0.0998 -0.2066
  727loPI   GL110273   4.712   7.910   5.996  0.1539  0.0367 -0.1491
  727loPI   GL210274   5.034   7.800   6.186  0.1052 -0.1922 -0.0708
  727loPI   C1A10275   4.488   7.814   6.380  0.1188  0.1262  0.2101
  727loPI   C2A10276   4.571   7.571   6.738  0.2894 -0.1569  0.0152
  727loPI   C3A10277   4.602   7.573   7.195  0.3162 -0.2107  0.1900
  727loPI   C4A10278   4.319   7.810   7.489  0.1753 -0.2340 -0.1367
  727loPI   C5A10279   4.163   7.624   7.847  0.3286 -0.1421 -0.1830
  727loPI   C6A10280   3.980   7.445   8.270  0.2634 -0.0038  0.0858
  727loPI   C1B10281   4.933   7.941   6.624  0.0331 -0.0557  0.0263
  727loPI   C2B10282   4.896   8.011   7.055 -0.3173 -0.0712  0.4150
  727loPI   C3B10283   4.889   7.979   7.486  0.1268  0.0047  0.2036
  727loPI   C4B10284   4.974   8.175   7.884 -0.2968 -0.1385 -0.3001
  728loPI    C110285  17.758  11.974   5.826  0.3194  0.0663 -0.1221
  728loPI    C210286  17.574  11.778   5.530  0.0710  0.2277 -0.0774
  728loPI    C310287  17.775  12.116   5.453  0.0459  0.2444 -0.0693
  728loPI   PO410288  17.644  11.926   6.036 -0.1637 -0.1125  0.0684
  728loPI   GL110289  17.757  11.947   6.444 -0.0327 -0.0927  0.2032
  728loPI   GL210290  17.613  11.738   6.665  0.1156 -0.0765  0.1300
  728loPI   C1A10291  18.043  12.003   6.723 -0.2700 -0.1737  0.2086
  728loPI   C2A10292  18.033  11.821   7.106 -0.0534  0.0386  0.1292
  728loPI   C3A10293  18.039  11.608   7.481  0.0332  0.3611  0.1572
  728loPI   C4A10294  17.828  11.624   7.847  0.1972 -0.0582  0.1824
  728loPI   C5A10295  17.687  11.326   8.169 -0.0371  0.0722  0.1939
  728loPI   C6A10296  17.487  11.154   8.578 -0.1740 -0.2408 -0.1418
  728loPI   C1B10297  17.564  11.588   6.958  0.3395  0.1742 -0.0740
  728loPI   C2B10298  17.568  11.417   7.357 -0.1138 -0.4671  0.0037
  728loPI   C3B10299  17.372  11.399   7.760  0.0469  0.2281  0.2931
  728loPI   C4B10300  17.244  11.128   8.171 -0.0262 -0.1111  0.1360
  729loPI    C110301  13.425   4.645   5.294 -0.3835 -0.0171  0.0473
  729loPI    C210302  13.237   4.360   5.085 -0.2147  0.0746 -0.2346
  729loPI    C310303  13.136   4.744   5.035 -0.2404  0.0893 -0.0732
  729loPI   PO410304  13.380   4.535   5.611 -0.0430 -0.1060  0.1724
  729loPI   GL110305  13.441   4.234   5.895 -0.1313 -0.0542  0.2896
  729loPI   GL210306  13.751   4.268   6.100 -0.0252 -0.0627 -0.1396
  729loPI   C1A10307  13.124   4.162   6.215 -0.2362  0.1725  0.0527
  729loPI   C2A10308  12.932   3.999   6.508  0.1970 -0.0499  0.2660
  729loPI   C3A10309  12.884   3.890   6.957  0.0927  0.2111  0.1428
  729loPI   C4A10310  12.938   3.855   7.367 -0.0873 -0.0670  0.1116
  729loPI   C5A10311  12.862   3.927   7.816 -0.0409  0.1181 -0.2940
  729loPI   C6A10312  13.184   3.991   8.098 -0.0644 -0.0084  0.2108
  729loPI   C1B10313  13.531   4.255   6.549  0.3786  0.0626 -0.4182
  729loPI   C2B10314  13.296   4.158   7.056 -0.1601  0.0500  0.2010
  729loPI   C3B10315  13.448   3.972   7.317  0.2780 -0.0261  0.3104
  729loPI   C4B10316  13.527   4.024   7.730  0.2064  0.1663 -0.0067
  730loPI    C110317   7.032   0.049   5.093  0.3104  0.0185 -0.1423
  730loPI    C210318   7.032   0.398   4.898 -0.3816  0.0583 -0.0982
  730loPI    C310319   7.048   0.054   4.694  0.0957  0.1051 -0.1514
  730loPI   PO410320   7.175   0.085   5.263 -0.2227  0.0324  0.5024
  730loPI   GL110321   7.167   0.165   5.679  0.2042  0.0086  0.1083
  730loPI   GL210322   6.871   0.208   5.743  0.1456  0.0600 -0.5070
  730loPI   C1A10323   7.368  -0.188   6.065  0.3074 -0.1864 -0.2507
  730loPI   C2A10324   7.279  -0.138   6.485 -0.2360 -0.0472 -0.0003
  730loPI   C3A10325   7.074  -0.084   6.893  0.3479  0.0518  0.0149
  730loPI   C4A10326   7.007  -0.119   7.342  0.0932 -0.1523 -0.0716
  730loPI   C5A10327   6.760  -0.089   7.716 -0.0303 -0.0561  0.0394
  730loPI   C6A10328   6.687  -0.373   8.132 -0.1656  0.5349 -0.1513
  730loPI   C1B10329   7.010   0.106   6.155  0.2197  0.1149 -0.2587
  730loPI   C2B10330   6.767  -0.044   6.479  0.1561 -0.0248  0.0233
  730loPI   C3B10331   6.592  -0.048   6.926 -0.0442  0.1401  0.0153
  730loPI   C4B10332   6.475  -0.245   7.232 -0.0133 -0.0420 -0.0837
  731loPI    C110333  13.854  13.534   5.831  0.1712  0.1529  0.0941
  731loPI    C210334  13.994  13.772   5.541  0.0628  0.2001  0.0799
  731loPI    C310335  14.173  13.422   5.618  0.1160  0.2058 -0.0174
  731loPI   PO410336  13.845  13.561   6.019  0.1191 -0.0235 -0.1411
  731loPI   GL110337  14.008  13.442   6.356 -0.1881  0.0372 -0.1836
  731loPI   GL210338  13.910  13.092   6.362  0.1617  0.0968 -0.1883
  731loPI   C1A10339  14.010  13.463   6.788 -0.0870  0.0563 -0.0174
  731loPI   C2A10340  13.916  13.429   7.223 -0.0304  0.1049 -0.0749
  731loPI   C3A10341  14.109  13.353   7.555  0.2734  0.0695  0.2370
  731loPI   C4A10342  14.027  13.001   7.849  0.0463  0.0341 -0.0109
  731loPI   C5A10343  14.011  12.775   8.195  0.1461  0.1928 -0.1431
  731loPI   C6A10344  13.907  12.460   8.511  0.4242  0.1863 -0.0568
  731loPI   C1B10345  13.997  12.876   6.691  0.0910  0.0512 -0.1283
  731loPI   C2B10346  13.957  12.584   7.082  0.4309  0.2238  0.2552
  731loPI   C3B10347  14.044  12.371   7.425 -0.0650  0.1076  0.0531
  731loPI   C4B10348  14.256  12.479   7.766  0.3468 -0.1010  0.1004
  732loPI    C110349  16.186  17.981   5.849  0.0111  0.1123  0.1198
  732loPI    C210350  16.370  17.698   5.633 -0.1038  0.0402  0.1156
  732loPI    C310351  16.224  18.024   5.453 -0.1577  0.0026  0.0908
  732loPI   PO410352  16.398  18.023   6.076 -0.2394 -0.1544  0.1691
  732loPI   GL110353  16.739  18.069   6.325 -0.5924 -0.0820  0.0421
  732loPI   GL210354  16.544  18.152   6.578 -0.1587 -0.1195 -0.1106
  732loPI   C1A10355  16.985  17.747   6.599  0.1437 -0.1242  0.1777
  732loPI   C2A10356  17.173  17.427   6.926  0.0073  0.0145 -0.0972
  732loPI   C3A10357  17.228  17.396   7.366  0.0160  0.0183 -0.0203
  732loPI   C4A10358  17.165  17.261   7.858 -0.0836  0.1344 -0.1238
  732loPI   C5A10359  17.312  17.420   8.235  0.0093 -0.4670 -0.3414
  732loPI   C6A10360  17.302  17.855   8.484 -0.1575  0.0336 -0.0713
  732loPI   C1B10361  16.617  18.146   7.043 -0.0467 -0.3458 -0.0645
  732loPI   C2B10362  16.727  18.305   7.405  0.1690 -0.4372  0.0181
  732loPI   C3B10363  16.797  18.522   7.762 -0.1030  0.0434  0.2347
  732loPI   C4B10364  17.038  18.832   8.027  0.0536  0.0557 -0.2173
  733loPI    C110365   2.507   3.886   5.394 -0.0511 -0.1468  0.0477
  733loPI    C210366   2.246   4.183   5.337  0.1115  0.0005  0.0620
  733loPI    C310367   2.348   3.946   5.032  0.3172  0.2395 -0.0591
  733loPI   PO410368   2.441   3.811   5.596  0.2197 -0.0789 -0.1573
  733loPI   GL110369   2.584   3.844   6.013 -0.0991  0.0503 -0.0448
  733loPI   GL210370   2.377   3.685   6.058  0.2349 -0.2768 -0.1491
  733loPI   C1A10371   2.838   3.962   6.400 -0.0522  0.2076  0.2617
  733loPI   C2A10372   3.035   3.831   6.751 -0.2113 -0.1282  0.2567
  733loPI   C3A10373   3.214   3.741   7.128  0.3964  0.0880 -0.0596
  733loPI   C4A10374   3.232   3.411   7.317 -0.2917 -0.3435  0.0789
  733loPI   C5A10375   3.002   2.967   7.378 -0.0225  0.1718  0.0718
  733loPI   C6A10376   3.021   2.545   7.643 -0.0225  0.1117  0.1468
  733loPI   C1B10377   1.972   3.654   6.415  0.2895  0.2208  0.0937
  733loPI   C2B10378   1.960   3.723   6.752 -0.0527 -0.2877  0.0025
  733loPI   C3B10379   2.003   3.839   7.184  0.2239  0.1172 -0.0788
  733loPI   C4B10380   2.328   3.959   7.479  0.0678 -0.1882 -0.0964
  734loPI    C110381  14.003   6.573   5.417 -0.0138 -0.1080  0.1184
  734loPI    C210382  13.922   6.371   5.081 -0.1184 -0.0425  0.1039
  734loPI    C310383  14.244   6.606   5.100 -0.1575  0.0180  0.0210
  734loPI   PO410384  13.975   6.404   5.599 -0.2052  0.0192 -0.3525
  734loPI   GL110385  13.930   6.385   6.026  0.3171  0.1832  0.4764
  734loPI   GL210386  14.257   6.312   6.135 -0.0087  0.2062 -0.0541
  734loPI   C1A10387  13.994   6.600   6.403 -0.0870  0.1833  0.1699
  734loPI   C2A10388  14.020   6.543   6.855 -0.0413  0.1067  0.0263
  734loPI   C3A10389  14.014   6.552   7.262 -0.1250  0.1420  0.3627
  734loPI   C4A10390  13.981   6.458   7.685 -0.1024 -0.1844 -0.0588
  734loPI   C5A10391  13.878   6.304   8.120  0.2254 -0.1703  0.0940
  734loPI   C6A10392  13.934   6.270   8.568 -0.0504 -0.0659 -0.1880
  734loPI   C1B10393  14.318   6.181   6.501 -0.0927 -0.2522  0.3117
  734loPI   C2B10394  14.340   6.092   6.824  0.0745 -0.2262 -0.1141
  734loPI   C3B10395  14.344   6.052   7.275 -0.2248 -0.3274  0.0544
  734loPI   C4B10396  14.432   6.179   7.745  0.4807 -0.1566  0.1963
  735loPI    C110397  15.202   2.185   5.205 -0.2621 -0.0619 -0.2969
  735loPI    C210398  14.875   2.415   5.203 -0.1927  0.0388 -0.2030
  735loPI    C310399  15.191   2.516   4.980 -0.0514  0.1980  0.0637
  735loPI   PO410400  15.222   2.125   5.499  0.2762 -0.3223 -0.0390
  735loPI   GL110401  15.167   2.325   5.948 -0.2876 -0.3284  0.0094
  735loPI   GL210402  14.997   2.567   5.999  0.1542  0.3766  0.0143
  735loPI   C1A10403  14.902   2.133   6.231 -0.1499 -0.0856  0.0016
  735loPI   C2A10404  14.626   2.188   6.661  0.1026  0.2786 -0.0714
  735loPI   C3A10405  14.266   2.044   6.817  0.0129  0.4062 -0.1954
  735loPI   C4A10406  14.344   1.807   7.186  0.0104  0.2393 -0.0273
  735loPI   C5A10407  14.484   1.846   7.598 -0.0732  0.0654 -0.0643
  735loPI   C6A10408  14.533   2.186   7.920  0.2743  0.1681  0.1800
  735loPI   C1B10409  15.079   2.925   6.292  0.1074 -0.1953  0.3853
  735loPI   C2B10410  15.177   2.977   6.731  0.0901  0.0026  0.0072
  735loPI   C3B10411  15.196   2.919   7.128  0.1438  0.2116  0.1540
  735loPI   C4B10412  15.370   3.184   7.597 -0.3186  0.0993 -0.0821
  736loPI    C110413  15.425  17.862   5.966  0.2397 -0.0114 -0.0561
  736loPI    C210414  15.496  18.034   5.612 -0.0004  0.0937 -0.0550
  736loPI    C310415  15.297  17.688   5.630 -0.0966  0.1505 -0.0161
  736loPI   PO410416  15.723  17.881   6.057  0.1040 -0.4205 -0.2119
  736loPI   GL110417  15.907  17.804   6.446  0.0876  0.3223  0.2594
  736loPI   GL210418  16.036  18.012   6.449 -0.0280 -0.2449  0.1636
  736loPI   C1A10419  15.707  17.790   6.850  0.0319  0.0624 -0.2045
  736loPI   C2A10420  15.665  17.918   7.279  0.0488  0.0655  0.2583
  736loPI   C3A10421  15.523  17.899   7.646 -0.0817 -0.2099  0.1667
  736loPI   C4A10422  15.332  18.025   7.982  0.2225 -0.1925 -0.1582
  736loPI   C5A10423  14.979  18.068   8.264  0.0513  0.3839 -0.0010
  736loPI   C6A10424  14.558  18.236   8.359  0.4020 -0.0948  0.0338
  736loPI   C1B10425  16.183  17.984   6.862  0.1211  0.0595  0.2900
  736loPI   C2B10426  16.176  17.992   7.317  0.2307 -0.0612  0.0503
  736loPI   C3B10427  15.963  18.029   7.685 -0.2258 -0.0932 -0.1570
  736loPI   C4B10428  15.897  18.174   8.137  0.0703  0.0445  0.0469
  737loPI    C110429   7.156   0.873   4.827  0.0482 -0.0050 -0.3011
  737loPI    C210430   6.963   1.134   4.594 -0.0879 -0.0697 -0.2624
  737loPI    C310431   7.308   0.973   4.471 -0.0551  0.0502 -0.3302
  737loPI   PO410432   7.128   0.849   5.095  0.0596 -0.0177 -0.1614
  737loPI   GL110433   7.335   0.931   5.523  0.2367 -0.1656  0.2172
  737loPI   GL210434   7.088   0.663   5.662  0.1260 -0.1899  0.2865
  737loPI   C1A10435   7.502   0.956   5.903  0.4013 -0.0874 -0.2006
  737loPI   C2A10436   7.492   0.862   6.268 -0.0264 -0.2214 -0.3011
  737loPI   C3A10437   7.557   0.785   6.716 -0.0435 -0.3569  0.1069
  737loPI   C4A10438   7.622   0.681   7.110  0.0927  0.0741 -0.0113
  737loPI   C5A10439   7.758   0.419   7.487 -0.2475 -0.0673  0.0685
  737loPI   C6A10440   7.808   0.106   7.855  0.0959 -0.0643  0.0065
  737loPI   C1B10441   7.003   0.677   6.068 -0.0996  0.0700 -0.1524
  737loPI   C2B10442   7.038   0.861   6.505 -0.2207  0.0365  0.2062
  737loPI   C3B10443   7.081   0.818   6.936 -0.1324 -0.2509  0.0553
  737loPI   C4B10444   7.159   0.785   7.264 -0.0080 -0.2798 -0.0695
  738loPI    C110445  16.640   5.788   4.866 -0.0727 -0.0267 -0.0609
  738loPI    C210446  16.337   5.570   5.009  0.1448 -0.2438  0.0786
  738loPI    C310447  16.440   5.541   4.624 -0.0884 -0.0745  0.0006
  738loPI   PO410448  16.780   5.783   5.163  0.2472  0.0188 -0.2962
  738loPI   GL110449  16.479   5.847   5.509  0.3709 -0.1055  0.2523
  738loPI   GL210450  16.795   5.852   5.670  0.0695 -0.1978 -0.0504
  738loPI   C1A10451  16.216   5.852   5.921 -0.2250 -0.0934 -0.2558
  738loPI   C2A10452  16.336   5.782   6.323  0.2948  0.0774  0.0837
  738loPI   C3A10453  16.173   5.865   6.718 -0.0032 -0.1885 -0.2388
  738loPI   C4A10454  16.150   5.794   7.151  0.0492  0.2109  0.0059
  738loPI   C5A10455  16.308   5.807   7.563  0.0893  0.3047 -0.3186
  738loPI   C6A10456  16.513   6.119   7.865  0.0824  0.0094  0.2307
  738loPI   C1B10457  16.885   5.848   6.156 -0.1436 -0.2539 -0.2796
  738loPI   C2B10458  16.781   5.785   6.562  0.0034 -0.1873  0.0050
  738loPI   C3B10459  16.836   5.897   6.932  0.1991  0.3249  0.2366
  738loPI   C4B10460  16.729   5.772   7.262  0.0739 -0.1980 -0.1452
  739loPI    C110461   2.658  18.060   5.437  0.0932 -0.0492  0.1417
  739loPI    C210462   2.645  18.204   5.064 -0.0821 -0.0744  0.1373
  739loPI    C310463   2.797  17.840   5.133 -0.3314 -0.1983  0.0484
  739loPI   PO410464   2.722  18.318   5.583 -0.0057  0.0082 -0.0215
  739loPI   GL110465   2.753  18.671   5.901 -0.1455 -0.2067  0.1855
  739loPI   GL210466   2.655  18.949   5.921  0.1047 -0.0177 -0.0441
  739loPI   C1A10467   2.868  18.832   6.338  0.1878  0.0308  0.2307
  739loPI   C2A10468   2.949  18.805   6.749 -0.2302 -0.0559 -0.0626
  739loPI   C3A10469   3.202  18.847   7.109  0.0423 -0.0948 -0.0480
  739loPI   C4A10470   3.243  18.998   7.529 -0.1565  0.1244 -0.1720
  739loPI   C5A10471   3.584  19.198   7.754  0.0823  0.0930  0.0390
  739loPI   C6A10472   3.738  19.578   7.831  0.0226  0.1900  0.1414
  739loPI   C1B10473   2.889  19.303   6.199  0.2644 -0.3936 -0.0989
  739loPI   C2B10474   2.894  19.394   6.563 -0.2327  0.3774 -0.0021
  739loPI   C3B10475   2.874  19.647   6.876  0.1245 -0.1757  0.1613
  739loPI   C4B10476   3.107  19.847   7.204 -0.3106  0.2079 -0.0115
  740loPI    C110477  11.967  14.940   6.085 -0.0331  0.1246 -0.0675
  740loPI    C210478  11.881  15.080   5.720  0.0609  0.1679 -0.0732
  740loPI    C310479  11.907  14.686   5.782  0.2155  0.1648 -0.1529
  740loPI   PO410480  11.755  15.014   6.252 -0.2099  0.2592 -0.1514
  740loPI   GL110481  11.666  14.997   6.655 -0.0344 -0.2260 -0.0294
  740loPI   GL210482  11.688  14.677   6.651  0.0801 -0.0281 -0.1786
  740loPI   C1A10483  11.984  15.068   6.946 -0.0481 -0.3567  0.0437
  740loPI   C2A10484  12.262  15.109   7.243 -0.2236 -0.3248  0.2586
  740loPI   C3A10485  12.219  15.141   7.760  0.2895 -0.0145 -0.0111
  740loPI   C4A10486  12.416  15.052   8.173  0.1488  0.1239 -0.1863
  740loPI   C5A10487  12.609  14.714   8.433 -0.1349 -0.0239 -0.1086
  740loPI   C6A10488  12.818  14.367   8.735 -0.0848  0.2397 -0.2513
  740loPI   C1B10489  11.650  14.749   7.164  0.0739  0.2521  0.2847
  740loPI   C2B10490  11.963  14.800   7.537 -0.0449  0.1077 -0.3709
  740loPI   C3B10491  11.799  14.793   7.911  0.2464  0.2069  0.1266
  740loPI   C4B10492  11.560  14.795   8.286  0.0750  0.1541  0.1609
  741loPI    C110493  11.692   5.046   5.134 -0.1411 -0.0580 -0.3733
  741loPI    C210494  11.924   4.734   5.229  0.0780  0.1540 -0.1985
  741loPI    C310495  11.789   4.776   4.854  0.1910 -0.0556 -0.2646
  741loPI   PO410496  11.585   5.096   5.340 -0.0100  0.1773 -0.0029
  741loPI   GL110497  11.682   5.092   5.767  0.0344 -0.0982 -0.0984
  741loPI   GL210498  12.020   5.184   5.833 -0.1093  0.0033  0.0815
  741loPI   C1A10499  11.670   5.040   6.205  0.0103  0.1467  0.1140
  741loPI   C2A10500  11.767   5.013   6.601 -0.2415  0.0802 -0.0119
  741loPI   C3A10501  11.843   5.016   7.001  0.0254 -0.0380 -0.2835
  741loPI   C4A10502  12.153   5.012   7.462  0.0346 -0.1925  0.0709
  741loPI   C5A10503  11.890   5.191   7.830 -0.4221 -0.3788  0.0805
  741loPI   C6A10504  12.102   5.067   8.175  0.0023 -0.4835  0.2673
  741loPI   C1B10505  12.240   5.010   6.265 -0.0168 -0.0116  0.1455
  741loPI   C2B10506  12.235   5.014   6.670 -0.0682  0.1778  0.1492
  741loPI   C3B10507  12.342   5.211   6.970 -0.1220 -0.0653 -0.3718
  741loPI   C4B10508  12.232   5.559   7.199 -0.1302 -0.0119  0.1478
  742loPI    C110509  13.824  15.246   6.122  0.3323 -0.0441 -0.0092
  742loPI    C210510  13.683  15.134   5.765  0.1097 -0.0076  0.0657
  742loPI    C310511  13.983  15.397   5.787  0.0798  0.0409 -0.0930
  742loPI   PO410512  13.989  14.996   6.258 -0.1572 -0.1535 -0.0015
  742loPI   GL110513  13.982  14.991   6.691 -0.2504  0.1795 -0.0989
  742loPI   GL210514  14.245  14.702   6.596 -0.1303  0.1186 -0.1149
  742loPI   C1A10515  14.137  14.900   7.081  0.1972 -0.2687 -0.0166
  742loPI   C2A10516  14.263  14.716   7.413  0.1467 -0.2150  0.2723
  742loPI   C3A10517  14.315  14.792   7.835  0.1072  0.0924 -0.3320
  742loPI   C4A10518  14.634  14.966   8.078 -0.0776  0.0926 -0.5572
  742loPI   C5A10519  14.598  15.324   8.291  0.0381 -0.1455 -0.0057
  742loPI   C6A10520  14.350  15.805   8.430  0.4412  0.0483 -0.0570
  742loPI   C1B10521  14.338  14.481   6.936 -0.1037  0.0060  0.1977
  742loPI   C2B10522  14.586  14.306   7.315  0.2567 -0.0063 -0.1898
  742loPI   C3B10523  14.706  13.968   7.619  0.0028 -0.0461 -0.1302
  742loPI   C4B10524  14.625  13.886   8.003 -0.1605 -0.0817 -0.1484
  743loPI    C110525   6.670   5.344   4.815  0.0604  0.2347 -0.1566
  743loPI    C210526   6.607   5.191   4.451  0.0370  0.1473 -0.1162
  743loPI    C310527   6.726   5.571   4.491  0.1703  0.1173 -0.2206
  743loPI   PO410528   6.524   5.188   4.968 -0.1222  0.0485 -0.0077
  743loPI   GL110529   6.343   5.248   5.381  0.3173 -0.1448 -0.2598
  743loPI   GL210530   6.308   5.587   5.262 -0.1048 -0.1952  0.1057
  743loPI   C1A10531   6.454   5.188   5.859 -0.1260 -0.1757 -0.1381
  743loPI   C2A10532   6.510   5.239   6.252 -0.2925 -0.0712  0.2677
  743loPI   C3A10533   6.512   5.145   6.752 -0.0806  0.4523  0.0808
  743loPI   C4A10534   6.707   4.837   7.004  0.0306  0.2527 -0.0453
  743loPI   C5A10535   6.844   4.822   7.406 -0.0586 -0.1767 -0.0395
  743loPI   C6A10536   7.200   4.702   7.589 -0.0482  0.1937  0.0942
  743loPI   C1B10537   6.403   5.688   5.683 -0.1555 -0.2443  0.0534
  743loPI   C2B10538   6.451   5.758   6.187  0.2515 -0.1836  0.0662
  743loPI   C3B10539   6.380   5.614   6.570  0.0849  0.0841  0.0814
  743loPI   C4B10540   6.267   5.529   7.043 -0.0135  0.2065  0.2602
  744loPI    C110541  11.610  13.486   5.743  0.1731 -0.0314  0.2791
  744loPI    C210542  11.235  13.348   5.750  0.1813 -0.0640  0.1105
  744loPI    C310543  11.505  13.183   5.505  0.1977  0.2329 -0.0759
  744loPI   PO410544  11.667  13.496   5.967 -0.1011  0.0855 -0.2004
  744loPI   GL110545  11.354  13.525   6.303  0.0423  0.1989  0.1525
  744loPI   GL210546  11.064  13.499   6.229  0.0913 -0.0246  0.0620
  744loPI   C1A10547  11.327  13.653   6.672  0.0493  0.0207 -0.2850
  744loPI   C2A10548  11.400  13.788   7.110  0.0174  0.0635 -0.1522
  744loPI   C3A10549  11.320  14.026   7.570  0.0951  0.1548 -0.1436
  744loPI   C4A10550  11.151  14.072   7.960 -0.1063 -0.1192  0.1142
  744loPI   C5A10551  11.255  14.295   8.298  0.0909 -0.1519  0.2055
  744loPI   C6A10552  10.907  14.420   8.544 -0.1255  0.0724  0.0873
  744loPI   C1B10553  10.861  13.336   6.588 -0.1493 -0.4833 -0.1468
  744loPI   C2B10554  10.589  13.180   6.765 -0.0203 -0.0421 -0.3398
  744loPI   C3B10555  10.402  12.980   7.161  0.0114 -0.0481  0.1365
  744loPI   C4B10556  10.249  12.833   7.589 -0.0282  0.0073 -0.0591
  745loPI    C110557   2.132  12.712   5.739  0.3255 -0.1271  0.4355
  745loPI    C210558   2.461  12.593   5.544 -0.0142 -0.1660 -0.1378
  745loPI    C310559   2.138  12.358   5.553 -0.1609  0.0390  0.0826
  745loPI   PO410560   2.239  12.737   5.957  0.1919 -0.0227 -0.3604
  745loPI   GL110561   2.494  12.442   6.181  0.1689 -0.1724  0.1337
  745loPI   GL210562   2.839  12.554   6.080 -0.0566  0.1787 -0.1539
  745loPI   C1A10563   2.265  12.569   6.578  0.0653  0.0424  0.2167
  745loPI   C2A10564   2.413  12.566   7.020  0.1034 -0.1106  0.3748
  745loPI   C3A10565   2.649  12.422   7.213 -0.3668  0.0999  0.1851
  745loPI   C4A10566   2.890  12.157   7.504 -0.0833 -0.0328 -0.0458
  745loPI   C5A10567   3.027  12.127   8.011  0.0582 -0.0665  0.1920
  745loPI   C6A10568   3.232  12.200   8.337  0.0204 -0.0593  0.2457
  745loPI   C1B10569   2.726  12.751   6.460 -0.1849 -0.3236  0.1888
  745loPI   C2B10570   2.759  12.906   6.796  0.2361 -0.0643 -0.1723
  745loPI   C3B10571   2.737  12.915   7.279  0.1149 -0.0574  0.0407
  745loPI   C4B10572   2.689  12.761   7.701 -0.5147 -0.1126 -0.1795
  746loPI    C110573   3.601   1.629   5.169  0.1652  0.1387 -0.1142
  746loPI    C210574   3.311   1.354   5.160  0.1033  0.1827  0.3081
  746loPI    C310575   3.645   1.300   4.946 -0.1706  0.0865 -0.1085
  746loPI   PO410576   3.674   1.711   5.406  0.0243 -0.2255  0.0621
  746loPI   GL110577   3.680   1.734   5.897 -0.1025  0.1725  0.2803
  746loPI   GL210578   3.953   1.539   5.998  0.1920  0.1450  0.1762
  746loPI   C1A10579   3.697   1.953   6.280  0.1820 -0.2214 -0.1182
  746loPI   C2A10580   3.758   2.185   6.626 -0.2699 -0.0763 -0.1180
  746loPI   C3A10581   3.886   2.068   7.017 -0.2624  0.2454  0.1243
  746loPI   C4A10582   4.009   2.030   7.446  0.3238 -0.4651  0.0850
  746loPI   C5A10583   4.127   2.327   7.841 -0.3544 -0.1284  0.0180
  746loPI   C6A10584   4.073   2.672   8.166 -0.0041 -0.0962 -0.0049
  746loPI   C1B10585   3.980   1.536   6.348 -0.0587  0.2304  0.0404
  746loPI   C2B10586   4.040   1.622   6.735  0.0807 -0.0856 -0.0423
  746loPI   C3B10587   4.096   1.631   7.170  0.1434 -0.1414  0.2459
  746loPI   C4B10588   4.130   1.550   7.644 -0.1630  0.0570  0.1998
  747loPI    C110589   0.633  15.535   5.759  0.0942  0.1024  0.1584
  747loPI    C210590   0.803  15.733   5.456 -0.1814 -0.1688 -0.1825
  747loPI    C310591   0.997  15.430   5.630 -0.0250 -0.0165 -0.0882
  747loPI   PO410592   0.569  15.744   5.954  0.0348 -0.0122 -0.1406
  747loPI   GL110593   0.343  15.964   6.253  0.0716 -0.2252  0.1632
  747loPI   GL210594   0.667  16.056   6.363  0.0182  0.1403  0.1240
  747loPI   C1A10595   0.196  16.029   6.695  0.2131 -0.2723 -0.1142
  747loPI   C2A10596   0.141  16.190   7.109 -0.0381  0.1369  0.0654
  747loPI   C3A10597   0.183  16.125   7.523 -0.3272 -0.0349  0.3573
  747loPI   C4A10598   0.247  15.987   7.888 -0.1671 -0.3105 -0.0457
  747loPI   C5A10599   0.036  16.259   8.221  0.0757 -0.1315  0.0275
  747loPI   C6A10600  -0.045  16.636   8.575 -0.0484 -0.1672 -0.1779
  747loPI   C1B10601   0.673  16.191   6.809 -0.0429 -0.0040  0.4092
  747loPI   C2B10602   0.597  16.275   7.287 -0.2012  0.1190  0.2033
  747loPI   C3B10603   0.625  16.372   7.752  0.3459  0.0334 -0.2856
  747loPI   C4B10604   0.884  16.499   7.978 -0.1602 -0.2215  0.1271
  748loPI    C110605   2.067   1.400   5.358  0.1496 -0.1055 -0.1104
  748loPI    C210606   2.078   1.081   5.116  0.0860 -0.2724  0.1038
  748loPI    C310607   2.418   1.257   5.231  0.1150 -0.1669 -0.1376
  748loPI   PO410608   1.923   1.352   5.542 -0.4153  0.1498  0.0944
  748loPI   GL110609   1.675   1.445   5.844 -0.1790  0.3801  0.1121
  748loPI   GL210610   1.431   1.724   5.846  0.2647 -0.0215  0.2681
  748loPI   C1A10611   1.770   1.629   6.257  0.1439 -0.1358  0.4080
  748loPI   C2A10612   1.937   1.559   6.651  0.0882 -0.2522 -0.2504
  748loPI   C3A10613   2.332   1.451   6.874  0.0037  0.0476  0.1004
  748loPI   C4A10614   2.486   1.355   7.247  0.0481  0.1213 -0.0193
  748loPI   C5A10615   2.781   1.541   7.528  0.1578 -0.0592 -0.0470
  748loPI   C6A10616   2.762   1.524   7.916  0.2728  0.2685  0.0300
  748loPI   C1B10617   1.253   1.749   6.238  0.2305  0.1579  0.1603
  748loPI   C2B10618   1.370   1.689   6.634  0.1444  0.5630  0.2661
  748loPI   C3B10619   1.539   1.848   7.036  0.0836  0.2090  0.1872
  748loPI   C4B10620   1.843   2.004   7.436 -0.2762  0.3032  0.0979
  749loPI    C110621  11.256   4.368   5.473  0.2415 -0.1926 -0.0562
  749loPI    C210622  11.561   4.599   5.591 -0.1067  0.2932 -0.0764
  749loPI    C310623  11.395   4.656   5.232 -0.1408 -0.0553 -0.1193
  749loPI   PO410624  11.142   4.363   5.721 -0.2188  0.1750  0.0598
  749loPI   GL110625  11.174   4.210   6.110 -0.1056  0.1757  0.0565
  749loPI   GL210626  11.374   4.069   6.284 -0.1180 -0.0602 -0.1519
  749loPI   C1A10627  11.019   4.363   6.453  0.1557  0.0683  0.0516
  749loPI   C2A10628  11.154   4.440   6.912 -0.1166 -0.1796  0.3918
  749loPI   C3A10629  11.305   4.574   7.254 -0.5352 -0.0268 -0.0563
  749loPI   C4A10630  11.298   4.577   7.698  0.0727  0.1169 -0.1595
  749loPI   C5A10631  11.013   4.432   8.007  0.2567 -0.2728  0.0248
  749loPI   C6A10632  10.685   4.127   8.002  0.1598  0.0649 -0.1151
  749loPI   C1B10633  11.527   4.089   6.717 -0.0746 -0.0319 -0.2445
  749loPI   C2B10634  11.515   4.173   7.103 -0.0504  0.2460 -0.1414
  749loPI   C3B10635  11.602   4.199   7.566  0.1786 -0.0339 -0.2174
  749loPI   C4B10636  11.823   4.409   7.900  0.1724 -0.1166 -0.5116
  750loPI    C110637  16.845  17.235   5.715  0.0130 -0.2003  0.0160
  750loPI    C210638  16.687  17.368   5.372  0.0478  0.1554  0.1339
  750loPI    C310639  17.044  17.502   5.493  0.0772 -0.0379  0.2648
  750loPI   PO410640  16.554  17.243   5.932 -0.1684 -0.0614  0.3392
  750loPI   GL110641  16.390  17.384   6.418 -0.0073 -0.0922  0.1288
  750loPI   GL210642  16.479  17.648   6.473  0.1715  0.0249 -0.2529
  750loPI   C1A10643  16.130  17.448   6.764  0.3333 -0.2545  0.0019
  750loPI   C2A10644  16.032  17.538   7.158  0.1296 -0.0591  0.3113
  750loPI   C3A10645  16.275  17.575   7.562  0.0530 -0.0491 -0.0843
  750loPI   C4A10646  16.201  17.732   8.046 -0.2220 -0.0680 -0.1279
  750loPI   C5A10647  15.940  17.654   8.439 -0.0850 -0.0684  0.0197
  750loPI   C6A10648  15.862  17.936   8.793  0.1047 -0.1377  0.0737
  750loPI   C1B10649  16.616  17.673   6.896  0.0711  0.0199 -0.0148
  750loPI   C2B10650  16.727  17.807   7.408  0.2094 -0.0490 -0.0383
  750loPI   C3B10651  17.035  17.720   7.735  0.0011 -0.4923 -0.4398
  750loPI   C4B10652  17.277  18.004   7.991  0.3086 -0.0337  0.0189
  751loPI    C110653   7.516   5.688   4.804  0.1168  0.0907  0.0132
  751loPI    C210654   7.787   5.729   5.096  0.1201 -0.0730  0.0338
  751loPI    C310655   7.870   5.859   4.727  0.3249 -0.3419 -0.0177
  751loPI   PO410656   7.240   5.745   4.985  0.2993  0.2670  0.0208
  751loPI   GL110657   7.254   5.685   5.447  0.5020 -0.0243 -0.2555
  751loPI   GL210658   6.858   5.797   5.499 -0.2151  0.0189 -0.4671
  751loPI   C1A10659   7.348   5.714   5.819 -0.0045 -0.2841 -0.1182
  751loPI   C2A10660   7.369   5.655   6.282  0.0403 -0.2511 -0.1865
  751loPI   C3A10661   7.348   5.471   6.603  0.4278  0.0619 -0.1264
  751loPI   C4A10662   7.532   5.216   6.900 -0.1938  0.0991 -0.0081
  751loPI   C5A10663   7.560   5.048   7.350  0.1110 -0.4039  0.2777
  751loPI   C6A10664   7.611   4.967   7.812  0.0875 -0.1510  0.0374
  751loPI   C1B10665   7.044   6.062   5.708  0.1290 -0.1780  0.0632
  751loPI   C2B10666   7.067   6.073   6.148 -0.1512 -0.1332  0.1028
  751loPI   C3B10667   7.145   5.962   6.638 -0.1079  0.1550 -0.0755
  751loPI   C4B10668   7.013   5.993   7.067  0.0553  0.0035  0.1365
  752loPI    C110669  14.183   7.449   5.454 -0.2452 -0.0823 -0.0435
  752loPI    C210670  13.929   7.620   5.196 -0.0834  0.2880  0.0364
  752loPI    C310671  14.324   7.658   5.142 -0.0466  0.0777  0.1501
  752loPI   PO410672  14.090   7.481   5.627  0.0503  0.0174 -0.2432
  752loPI   GL110673  14.298   7.190   5.990  0.4738 -0.0890  0.0771
  752loPI   GL210674  14.553   7.253   5.882  0.0324 -0.2365 -0.1462
  752loPI   C1A10675  14.096   7.088   6.407 -0.0452 -0.0273 -0.0756
  752loPI   C2A10676  13.941   7.111   6.791 -0.1289  0.1212  0.0333
  752loPI   C3A10677  14.015   7.101   7.234  0.1524  0.0953  0.2212
  752loPI   C4A10678  14.105   6.929   7.671  0.0179  0.0428  0.0290
  752loPI   C5A10679  14.109   7.390   7.979 -0.1217 -0.1716 -0.1568
  752loPI   C6A10680  14.238   7.760   8.112  0.2532 -0.1355 -0.1299
  752loPI   C1B10681  14.731   7.154   6.282  0.0169  0.0168 -0.1722
  752loPI   C2B10682  14.665   7.188   6.614 -0.0526 -0.3258  0.2067
  752loPI   C3B10683  14.482   7.106   6.982 -0.0498  0.1206 -0.2032
  752loPI   C4B10684  14.501   7.176   7.393  0.0311  0.1287  0.1758
  753loPI    C110685   7.456   6.803   5.339 -0.0753 -0.2346  0.1026
  753loPI    C210686   7.106   6.992   5.387  0.0002 -0.0902  0.0882
  753loPI    C310687   7.137   6.691   5.125 -0.0832 -0.0249  0.0030
  753loPI   PO410688   7.647   6.990   5.400  0.1565 -0.6275  0.1799
  753loPI   GL110689   7.719   6.979   5.839  0.3496  0.2419 -0.0519
  753loPI   GL210690   7.453   6.900   5.909 -0.0501 -0.0644  0.1227
  753loPI   C1A10691   7.932   7.197   6.159 -0.0310  0.0001 -0.0277
  753loPI   C2A10692   7.933   7.357   6.598  0.2835 -0.1168  0.1171
  753loPI   C3A10693   7.927   7.345   6.980  0.0612  0.0827  0.0113
  753loPI   C4A10694   7.815   7.375   7.485  0.1019  0.1535 -0.1775
  753loPI   C5A10695   7.554   7.619   7.811  0.1410 -0.1282 -0.1877
  753loPI   C6A10696   7.162   7.249   7.957  0.1883 -0.1349 -0.1729
  753loPI   C1B10697   7.669   6.850   6.384 -0.0448 -0.0182 -0.0470
  753loPI   C2B10698   7.774   6.850   6.805 -0.2386 -0.1695 -0.0592
  753loPI   C3B10699   7.779   6.911   7.330  0.4415 -0.0531  0.2027
  753loPI   C4B10700   8.006   6.989   7.691  0.3577 -0.1415 -0.0253
  754loPI    C110701  15.684  13.670   5.745  0.0228  0.2249  0.0262
  754loPI    C210702  16.064  13.591   5.648  0.0767  0.5948 -0.0804
  754loPI    C310703  15.818  13.752   5.377 -0.2898 -0.0607 -0.1567
  754loPI   PO410704  15.720  13.780   5.991  0.0430  0.3312 -0.0976
  754loPI   GL110705  15.683  13.918   6.385  0.0211 -0.1082 -0.0028
  754loPI   GL210706  16.042  13.950   6.465 -0.2425 -0.2160  0.1804
  754loPI   C1A10707  15.659  13.654   6.663  0.0605  0.0297 -0.3010
  754loPI   C2A10708  15.452  13.604   6.986 -0.1430  0.1628  0.1875
  754loPI   C3A10709  15.548  13.555   7.364 -0.1307  0.3730 -0.1983
  754loPI   C4A10710  15.613  13.357   7.762 -0.0001  0.0414 -0.1056
  754loPI   C5A10711  15.652  13.193   8.235  0.0213  0.0429 -0.1341
  754loPI   C6A10712  16.124  13.016   8.242  0.0823 -0.0229 -0.0269
  754loPI   C1B10713  16.061  14.245   6.753 -0.2011  0.1225  0.0005
  754loPI   C2B10714  16.096  14.313   7.232 -0.2106  0.0354  0.0327
  754loPI   C3B10715  16.146  14.335   7.730  0.3328  0.4463  0.0353
  754loPI   C4B10716  16.064  14.095   8.098  0.4093  0.2954 -0.1964
  755loPI    C110717   0.497  11.213   5.614 -0.0178  0.0851  0.2437
  755loPI    C210718   0.143  11.296   5.782 -0.1259  0.0708  0.0274
  755loPI    C310719   0.170  11.251   5.386  0.0771 -0.1543  0.0644
  755loPI   PO410720   0.664  11.296   5.827 -0.1383 -0.1382 -0.4409
  755loPI   GL110721   0.787  11.238   6.317 -0.0920  0.2609 -0.4116
  755loPI   GL210722   0.772  10.979   6.302  0.2756  0.4367  0.1076
  755loPI   C1A10723   0.889  11.427   6.656  0.2485 -0.2465 -0.1027
  755loPI   C2A10724   0.743  11.668   7.060 -0.3997  0.0300  0.1041
  755loPI   C3A10725   0.718  11.635   7.551 -0.0208 -0.3181  0.2736
  755loPI   C4A10726   1.030  11.617   7.770  0.2506 -0.0889 -0.0508
  755loPI   C5A10727   1.338  11.374   7.921 -0.0503  0.0001  0.0213
  755loPI   C6A10728   1.602  11.513   8.228  0.0897  0.1097  0.0473
  755loPI   C1B10729   0.945  10.945   6.723 -0.1648 -0.3136  0.0694
  755loPI   C2B10730   1.054  11.223   7.074 -0.1400  0.0127 -0.0853
  755loPI   C3B10731   0.864  11.120   7.567 -0.0857 -0.0442  0.0159
  755loPI   C4B10732   0.837  11.072   8.018 -0.0868 -0.2188 -0.1098
  756loPI    C110733  15.621   5.347   5.160 -0.2539  0.1317  0.0724
  756loPI    C210734  15.458   5.072   5.400 -0.0092  0.1067  0.2137
  756loPI    C310735  15.240   5.238   5.109 -0.1356 -0.3017  0.0684
  756loPI   PO410736  15.921   5.276   5.133 -0.2929  0.0928  0.0803
  756loPI   GL110737  16.320   5.303   5.388  0.1784  0.0760 -0.2889
  756loPI   GL210738  16.623   5.393   5.434 -0.2246  0.0672 -0.1062
  756loPI   C1A10739  16.076   5.387   5.772 -0.1749  0.0401 -0.0422
  756loPI   C2A10740  16.001   5.423   6.222  0.1105  0.0641 -0.1273
  756loPI   C3A10741  15.928   5.380   6.659  0.1954  0.0453  0.0251
  756loPI   C4A10742  15.986   5.310   7.144 -0.2075  0.0375 -0.1317
  756loPI   C5A10743  15.739   5.341   7.507 -0.1019 -0.1672 -0.0779
  756loPI   C6A10744  15.728   5.459   7.978 -0.0557 -0.2566 -0.1571
  756loPI   C1B10745  16.586   5.465   5.912 -0.1769  0.3617  0.0804
  756loPI   C2B10746  16.557   5.332   6.364 -0.1302  0.0909 -0.2573
  756loPI   C3B10747  16.465   5.470   6.832  0.3595 -0.0450  0.1768
  756loPI   C4B10748  16.500   5.309   7.308 -0.1169 -0.1420  0.2622
  757loPI    C110749   0.536   8.333   5.290 -0.1447 -0.0968  0.1000
  757loPI    C210750   0.745   8.111   5.548  0.0603 -0.0609 -0.0333
  757loPI    C310751   0.362   8.024   5.474 -0.0163 -0.0396  0.3216
  757loPI   PO410752   0.619   8.596   5.370  0.0827  0.4529 -0.1750
  757loPI   GL110753   0.721   8.737   5.728  0.2408  0.2180  0.1565
  757loPI   GL210754   0.442   8.797   5.810  0.0434  0.0321 -0.1374
  757loPI   C1A10755   0.853   8.418   6.034  0.0556  0.1812  0.0694
  757loPI   C2A10756   0.817   8.405   6.401 -0.0863  0.3166  0.3330
  757loPI   C3A10757   0.850   8.456   6.821 -0.1244  0.0204  0.1859
  757loPI   C4A10758   0.909   8.390   7.236 -0.1431  0.1476  0.1335
  757loPI   C5A10759   1.136   8.583   7.555  0.0853 -0.2529 -0.3999
  757loPI   C6A10760   1.434   8.676   7.874 -0.2412 -0.2039 -0.3258
  757loPI   C1B10761   0.387   8.645   6.217 -0.0228  0.3004 -0.2136
  757loPI   C2B10762   0.404   8.828   6.666  0.1009  0.3199 -0.0166
  757loPI   C3B10763   0.374   8.506   7.034 -0.0810  0.1571 -0.0919
  757loPI   C4B10764   0.446   8.404   7.444 -0.1734  0.0725 -0.0133
  758loPI    C110765   5.269   9.245   6.052  0.0342 -0.1713  0.0723
  758loPI    C210766   5.033   8.926   6.003 -0.1153 -0.0249 -0.1858
  758loPI    C310767   5.139   9.146   5.687  0.2133  0.0230 -0.0464
  758loPI   PO410768   5.070   9.368   6.160  0.2505  0.0201 -0.0678
  758loPI   GL110769   4.751   9.515   6.401  0.1640  0.1971 -0.1420
  758loPI   GL210770   4.617   9.721   6.501 -0.0278  0.1351  0.2561
  758loPI   C1A10771   4.980   9.339   6.840 -0.0752  0.2236  0.1774
  758loPI   C2A10772   4.995   9.147   7.225 -0.1100 -0.1858  0.0556
  758loPI   C3A10773   4.750   8.982   7.617 -0.0915 -0.0811 -0.0991
  758loPI   C4A10774   4.512   8.651   7.774 -0.0774 -0.4317 -0.0362
  758loPI   C5A10775   4.436   8.168   7.880  0.1152 -0.0017 -0.0466
  758loPI   C6A10776   4.652   7.802   7.941  0.0735  0.0569 -0.0550
  758loPI   C1B10777   4.278  10.020   6.594 -0.1543 -0.2419  0.0482
  758loPI   C2B10778   4.312  10.412   6.952 -0.1919  0.3123  0.1247
  758loPI   C3B10779   4.529  10.675   7.117  0.1944  0.2164 -0.3155
  758loPI   C4B10780   4.832  10.763   7.334  0.1004 -0.2115  0.0300
  759loPI    C110781   7.004   9.422   5.843 -0.2110 -0.0407  0.0835
  759loPI    C210782   7.258   9.300   5.559  0.0295  0.1240  0.2240
  759loPI    C310783   6.966   9.559   5.469 -0.0654 -0.0335  0.0709
  759loPI   PO410784   7.019   9.255   6.034  0.0113 -0.0262  0.1125
  759loPI   GL110785   7.180   9.336   6.410  0.0004  0.0271 -0.0744
  759loPI   GL210786   6.936   9.542   6.422  0.0604 -0.4202 -0.0317
  759loPI   C1A10787   7.336   9.187   6.769  0.2554 -0.1568  0.0886
  759loPI   C2A10788   7.296   9.223   7.183 -0.0492 -0.2455  0.0530
  759loPI   C3A10789   7.230   9.225   7.640  0.0397 -0.4854  0.0137
  759loPI   C4A10790   7.045   9.044   7.977 -0.0624 -0.0883 -0.0687
  759loPI   C5A10791   6.789   9.107   8.309  0.1609  0.1827 -0.2355
  759loPI   C6A10792   6.592   9.221   8.659  0.1123 -0.1163 -0.1176
  759loPI   C1B10793   6.888   9.386   6.887 -0.0025 -0.0606 -0.0391
  759loPI   C2B10794   6.791   9.296   7.241  0.0926  0.2105  0.0205
  759loPI   C3B10795   6.642   9.332   7.633 -0.1428  0.2783 -0.1227
  759loPI   C4B10796   6.687   9.456   7.933  0.1312  0.1469 -0.0028
  760loPI    C110797   4.721   5.949   5.153 -0.0791  0.0578 -0.1534
  760loPI    C210798   4.506   5.624   5.062 -0.1085  0.0884 -0.1929
  760loPI    C310799   4.668   5.845   4.771  0.1545 -0.0543 -0.1574
  760loPI   PO410800   4.883   5.830   5.349 -0.2019 -0.3135 -0.1423
  760loPI   GL110801   5.229   5.746   5.667  0.0267  0.1701 -0.0813
  760loPI   GL210802   5.524   5.711   5.667 -0.1492 -0.2337 -0.0150
  760loPI   C1A10803   5.066   5.415   5.868  0.0778  0.1143  0.1266
  760loPI   C2A10804   5.121   5.266   6.223 -0.1447  0.0171 -0.1565
  760loPI   C3A10805   5.253   5.254   6.590  0.1368  0.2692  0.1320
  760loPI   C4A10806   5.325   5.152   7.021 -0.0587  0.3101 -0.2471
  760loPI   C5A10807   5.286   5.193   7.399  0.0082  0.0559  0.0947
  760loPI   C6A10808   5.273   5.470   7.745 -0.1803  0.0033 -0.0894
  760loPI   C1B10809   5.522   5.523   6.073 -0.3158 -0.0369  0.1254
  760loPI   C2B10810   5.663   5.554   6.476  0.0307  0.0106  0.0489
  760loPI   C3B10811   5.886   5.725   6.866  0.2557  0.1107 -0.0957
  760loPI   C4B10812   5.857   5.768   7.374  0.2710 -0.0712 -0.0372
  761loPI    C110813  14.951  14.415   5.743  0.1247  0.2602 -0.0398
  761loPI    C210814  14.976  14.694   5.457 -0.1113  0.1244 -0.1957
  761loPI    C310815  14.716  14.392   5.420 -0.0672  0.0459  0.1125
  761loPI   PO410816  14.920  14.568   5.983  0.1282  0.2809 -0.0031
  761loPI   GL110817  14.948  14.720   6.407 -0.1590  0.4489  0.0864
  761loPI   GL210818  14.710  14.658   6.635  0.1790  0.1722  0.1235
  761loPI   C1A10819  15.291  14.622   6.589 -0.1888 -0.0154 -0.0310
  761loPI   C2A10820  15.514  14.815   6.849  0.0526  0.1732 -0.1704
  761loPI   C3A10821  15.666  15.042   7.240  0.5463  0.2529 -0.1039
  761loPI   C4A10822  15.516  15.119   7.658  0.0306  0.1255 -0.2815
  761loPI   C5A10823  15.558  15.089   8.086  0.0430  0.0955 -0.0082
  761loPI   C6A10824  15.868  15.149   8.376  0.1969  0.0155  0.1090
  761loPI   C1B10825  15.010  14.509   6.986  0.2035 -0.1460  0.1792
  761loPI   C2B10826  15.110  14.204   7.195  0.0656  0.4479  0.2449
  761loPI   C3B10827  15.296  14.291   7.583  0.1434  0.0604  0.0174
  761loPI   C4B10828  15.517  14.338   7.935 -0.0546 -0.0784 -0.0417
  762loPI    C110829   8.945  17.432   5.102  0.1352  0.1303 -0.1501
  762loPI    C210830   8.881  17.682   4.798  0.3117  0.2027 -0.1291
  762loPI    C310831   9.084  17.343   4.738  0.0457  0.0460 -0.1645
  762loPI   PO410832   8.916  17.540   5.422  0.0950 -0.2182  0.2609
  762loPI   GL110833   8.996  17.273   5.819 -0.1564 -0.0882  0.0057
  762loPI   GL210834   9.169  16.952   5.727 -0.5567 -0.0616 -0.2671
  762loPI   C1A10835   9.085  17.617   6.191  0.0920 -0.0830  0.6067
  762loPI   C2A10836   9.088  17.773   6.676 -0.1554  0.0738  0.2482
  762loPI   C3A10837   9.278  17.698   7.079  0.0831 -0.0542  0.0276
  762loPI   C4A10838   9.194  17.810   7.499  0.0994 -0.1637 -0.0502
  762loPI   C5A10839   9.107  18.061   7.875  0.0904  0.0127 -0.0238
  762loPI   C6A10840   9.118  18.127   8.285 -0.1765 -0.0539 -0.0346
  762loPI   C1B10841   8.937  16.903   6.109 -0.0137  0.1409 -0.0672
  762loPI   C2B10842   8.957  16.775   6.482 -0.3792 -0.0188 -0.1586
  762loPI   C3B10843   8.906  16.828   6.926 -0.0190 -0.1470  0.0682
  762loPI   C4B10844   8.898  16.873   7.311  0.1680  0.1692  0.0825
  763loPI    C110845   4.843   0.394   4.875 -0.0132 -0.1352  0.0958
  763loPI    C210846   4.754   0.555   4.519 -0.1144 -0.1958  0.0931
  763loPI    C310847   4.465   0.395   4.744 -0.0409 -0.2156  0.1743
  763loPI   PO410848   4.957   0.693   5.083  0.1451  0.0150 -0.1600
  763loPI   GL110849   5.080   0.758   5.562 -0.3292  0.1294  0.0458
  763loPI   GL210850   5.348   0.894   5.586  0.0225  0.2144 -0.0214
  763loPI   C1A10851   5.058   0.571   5.976  0.1704  0.0044 -0.2246
  763loPI   C2A10852   5.186   0.757   6.363 -0.0485  0.2844  0.1726
  763loPI   C3A10853   5.462   0.862   6.719 -0.1743 -0.0463 -0.3049
  763loPI   C4A10854   5.709   0.552   6.912 -0.2863 -0.0552  0.1298
  763loPI   C5A10855   6.019   0.444   7.324 -0.1181  0.2036  0.4447
  763loPI   C6A10856   6.512   0.236   7.351 -0.2325  0.0851  0.0926
  763loPI   C1B10857   5.241   1.045   5.953 -0.2015  0.0298 -0.2599
  763loPI   C2B10858   5.436   1.327   6.307  0.0190 -0.0684  0.0139
  763loPI   C3B10859   5.416   1.384   6.792  0.0243  0.0312 -0.1894
  763loPI   C4B10860   5.466   1.441   7.217  0.2934  0.1173 -0.3632
  764loPI    C110861  12.579  14.607   6.122 -0.0176 -0.1603  0.0878
  764loPI    C210862  12.513  14.598   5.727 -0.1132  0.0143  0.0988
  764loPI    C310863  12.418  14.924   5.939 -0.1772 -0.1243  0.2868
  764loPI   PO410864  12.390  14.390   6.243 -0.1273 -0.1516 -0.0682
  764loPI   GL110865  12.364  14.395   6.687 -0.1842 -0.1318  0.0005
  764loPI   GL210866  12.081  14.238   6.610  0.1642 -0.1512  0.2567
  764loPI   C1A10867  12.308  14.657   7.049 -0.0626 -0.2481 -0.1094
  764loPI   C2A10868  12.513  14.608   7.426 -0.1940  0.1479  0.0675
  764loPI   C3A10869  12.653  14.806   7.790  0.0937 -0.0147 -0.2009
  764loPI   C4A10870  13.061  14.736   8.048 -0.0146 -0.3454 -0.0457
  764loPI   C5A10871  13.494  14.544   8.111  0.2229  0.0308 -0.1643
  764loPI   C6A10872  13.900  14.294   8.217  0.0808  0.0393 -0.0695
  764loPI   C1B10873  11.921  14.318   7.021  0.1925  0.2088 -0.1121
  764loPI   C2B10874  12.092  14.329   7.517 -0.0217  0.2469  0.0264
  764loPI   C3B10875  12.193  14.496   7.955 -0.1026  0.0925  0.1272
  764loPI   C4B10876  12.488  14.290   8.110  0.1410 -0.1367  0.0348
  765loPI    C110877   4.858   1.189   4.880 -0.3938  0.0197 -0.1833
  765loPI    C210878   5.229   1.267   4.754 -0.2418  0.0883  0.2866
  765loPI    C310879   4.951   1.147   4.493  0.1604 -0.1639 -0.0397
  765loPI   PO410880   4.969   1.222   5.217  0.1002 -0.0716  0.1177
  765loPI   GL110881   4.698   1.390   5.560 -0.1316  0.3752  0.0128
  765loPI   GL210882   4.390   1.253   5.772  0.0762 -0.0810 -0.1475
  765loPI   C1A10883   4.954   1.451   5.989  0.1097 -0.0208  0.0594
  765loPI   C2A10884   5.016   1.631   6.485 -0.1596  0.0513 -0.0527
  765loPI   C3A10885   5.234   1.834   6.860  0.2395 -0.0200 -0.1667
  765loPI   C4A10886   5.478   1.981   7.076 -0.1424  0.1296 -0.0620
  765loPI   C5A10887   5.706   1.877   7.394  0.1115  0.2135  0.2032
  765loPI   C6A10888   5.635   1.578   7.629 -0.1388 -0.2431  0.0875
  765loPI   C1B10889   4.466   1.433   6.042 -0.0429  0.1218 -0.0014
  765loPI   C2B10890   4.522   1.562   6.464 -0.3111 -0.1507 -0.1964
  765loPI   C3B10891   4.622   1.592   6.890  0.0736 -0.1343 -0.1588
  765loPI   C4B10892   5.006   1.423   7.071  0.1423  0.1057 -0.0051
  766loPI    C110893   5.615  14.127   5.451  0.2249 -0.0175  0.0226
  766loPI    C210894   5.288  13.907   5.381  0.1563  0.1214 -0.0989
  766loPI    C310895   5.503  14.048   5.075  0.2403  0.1635 -0.0209
  766loPI   PO410896   5.725  14.002   5.620 -0.2206  0.1047  0.0359
  766loPI   GL110897   5.608  14.051   5.934 -0.2777  0.1821 -0.0604
  766loPI   GL210898   5.206  13.960   5.936 -0.0732 -0.0899  0.0794
  766loPI   C1A10899   5.545  13.810   6.383 -0.2072  0.3972 -0.0908
  766loPI   C2A10900   5.588  13.681   6.849  0.0275  0.4140  0.1962
  766loPI   C3A10901   5.564  13.784   7.266  0.1195 -0.0773 -0.0999
  766loPI   C4A10902   5.664  13.424   7.470  0.0032  0.3292 -0.4157
  766loPI   C5A10903   5.687  13.098   7.746 -0.0373 -0.0779  0.2255
  766loPI   C6A10904   5.942  12.868   8.099 -0.3180 -0.1204  0.1121
  766loPI   C1B10905   5.327  14.271   6.307  0.0078 -0.0720  0.0927
  766loPI   C2B10906   5.430  14.521   6.570  0.2217 -0.0352 -0.1060
  766loPI   C3B10907   5.699  14.908   6.458  0.1291  0.0914 -0.1771
  766loPI   C4B10908   5.784  15.206   6.653  0.1375 -0.0428  0.0049
  767loPI    C110909   5.586   6.279   5.144  0.1397  0.2979 -0.0142
  767loPI    C210910   5.250   6.145   4.973  0.2004  0.1256 -0.0007
  767loPI    C310911   5.594   6.137   4.770  0.2572 -0.0027  0.0986
  767loPI   PO410912   5.571   6.160   5.397 -0.0210 -0.0410 -0.0641
  767loPI   GL110913   5.467   6.250   5.748 -0.1999  0.0261 -0.5566
  767loPI   GL210914   5.704   6.457   5.871  0.1090 -0.0547 -0.0890
  767loPI   C1A10915   5.561   6.030   6.132 -0.2603 -0.1211 -0.2596
  767loPI   C2A10916   5.528   6.035   6.549  0.0657  0.0660 -0.0121
  767loPI   C3A10917   5.496   6.035   7.002  0.1494 -0.1786  0.1149
  767loPI   C4A10918   5.535   6.177   7.420  0.0570 -0.1485 -0.1769
  767loPI   C5A10919   5.349   6.384   7.772 -0.1464 -0.0348 -0.0567
  767loPI   C6A10920   5.450   6.264   8.182 -0.0708  0.0136  0.4054
  767loPI   C1B10921   5.982   6.331   6.183  0.0401  0.0652 -0.1548
  767loPI   C2B10922   6.118   6.606   6.437  0.0289 -0.2988  0.0866
  767loPI   C3B10923   6.457   6.518   6.826  0.0157  0.1472 -0.2068
  767loPI   C4B10924   6.578   6.462   7.294  0.2648 -0.0444 -0.2246
  768loPI    C110925   4.058   6.593   5.846 -0.2493  0.2930 -0.1139
  768loPI    C210926   4.061   6.465   5.467 -0.3231 -0.0248 -0.0097
  768loPI    C310927   4.154   6.845   5.550  0.0456 -0.0429 -0.3122
  768loPI   PO410928   4.234   6.445   5.927 -0.0281  0.2668 -0.0190
  768loPI   GL110929   4.169   6.320   6.286  0.4128  0.0473  0.2187
  768loPI   GL210930   3.867   6.260   6.162 -0.0307 -0.0633  0.1161
  768loPI   C1A10931   4.404   6.030   6.607  0.0115  0.0674 -0.2541
  768loPI   C2A10932   4.771   5.989   6.985  0.0091 -0.1653  0.3030
  768loPI   C3A10933   4.997   6.096   7.264 -0.1253  0.2221 -0.1995
  768loPI   C4A10934   5.120   5.959   7.654  0.0921  0.2241 -0.0696
  768loPI   C5A10935   5.104   5.834   8.063 -0.0016 -0.2407  0.1681
  768loPI   C6A10936   5.055   5.989   8.485 -0.2879  0.0122  0.2441
  768loPI   C1B10937   3.891   6.146   6.619  0.1086 -0.1379  0.0011
  768loPI   C2B10938   4.050   6.085   7.007  0.0082  0.1261  0.2257
  768loPI   C3B10939   4.408   6.166   7.197 -0.2118 -0.0849  0.2494
  768loPI   C4B10940   4.615   6.016   7.651  0.4863  0.2082  0.0471
  769loPI    C110941   3.136   0.480   5.476  0.1240 -0.0464  0.0355
  769loPI    C210942   2.838   0.490   5.210 -0.0119 -0.0227  0.1871
  769loPI    C310943   3.124   0.212   5.179  0.1524  0.1789 -0.1726
  769loPI   PO410944   3.109   0.766   5.573 -0.0637  0.1505  0.2244
  769loPI   GL110945   3.202   0.799   5.970 -0.2406  0.1342 -0.1231
  769loPI   GL210946   3.299   0.544   5.977  0.1644 -0.1381  0.3970
  769loPI   C1A10947   3.318   1.021   6.387 -0.0872  0.0771 -0.0179
  769loPI   C2A10948   3.393   1.063   6.802  0.0013 -0.1180 -0.0277
  769loPI   C3A10949   3.294   1.237   7.179  0.1482  0.1109  0.2217
  769loPI   C4A10950   3.273   1.405   7.574  0.0806  0.1277  0.2466
  769loPI   C5A10951   3.253   1.771   7.739  0.1986  0.2251  0.0346
  769loPI   C6A10952   3.267   2.256   7.972  0.1634 -0.1760  0.2078
  769loPI   C1B10953   3.375   0.543   6.400 -0.1384  0.1255 -0.0461
  769loPI   C2B10954   3.572   0.647   6.755 -0.1069  0.0689  0.1444
  769loPI   C3B10955   3.670   0.704   7.135  0.0861  0.0535  0.2686
  769loPI   C4B10956   3.903   0.630   7.546 -0.2447 -0.1285  0.0079
  770loPI    C110957  15.279   6.938   5.277  0.0232 -0.1033  0.1607
  770loPI    C210958  15.380   7.254   5.053  0.0092  0.0171  0.3226
  770loPI    C310959  15.024   7.080   5.004  0.0823 -0.0778  0.1183
  770loPI   PO410960  15.380   7.032   5.543 -0.1698 -0.0413 -0.0518
  770loPI   GL110961  15.628   7.038   5.859  0.1779 -0.3581  0.0944
  770loPI   GL210962  15.853   6.781   5.791 -0.2637  0.1813 -0.1697
  770loPI   C1A10963  15.808   7.105   6.279  0.3934  0.3711  0.1676
  770loPI   C2A10964  15.877   7.101   6.725  0.0135 -0.2546 -0.2605
  770loPI   C3A10965  15.891   7.052   7.167  0.1410  0.1134 -0.0044
  770loPI   C4A10966  15.827   6.854   7.635 -0.1481 -0.2109 -0.1736
  770loPI   C5A10967  15.814   7.185   7.847  0.1472  0.1401  0.0703
  770loPI   C6A10968  15.474   7.331   8.186  0.2931 -0.1112 -0.1767
  770loPI   C1B10969  15.704   6.580   6.107  0.1099  0.1919 -0.1574
  770loPI   C2B10970  15.567   6.651   6.557 -0.3029 -0.0110 -0.0599
  770loPI   C3B10971  15.644   6.690   7.025  0.0033 -0.2825 -0.0011
  770loPI   C4B10972  15.481   6.746   7.302 -0.0801  0.1665 -0.1229
  771loPI    C110973  15.585  17.192   5.606  0.1024  0.2743 -0.0418
  771loPI    C210974  15.658  16.813   5.710 -0.0871  0.2785  0.1124
  771loPI    C310975  15.832  16.968   5.385 -0.0392  0.0482  0.0260
  771loPI   PO410976  15.603  17.362   5.941 -0.1342 -0.0615 -0.0536
  771loPI   GL110977  15.466  17.487   6.366  0.2059  0.0438  0.3817
  771loPI   GL210978  15.766  17.328   6.388  0.0403  0.1313  0.0535
  771loPI   C1A10979  15.210  17.592   6.617  0.0595  0.1395 -0.1053
  771loPI   C2A10980  15.228  17.492   7.035 -0.1098  0.1181 -0.0946
  771loPI   C3A10981  15.238  17.531   7.475  0.3668 -0.0251  0.0135
  771loPI   C4A10982  15.112  17.501   7.787 -0.1256  0.2721  0.2484
  771loPI   C5A10983  15.091  17.615   8.217 -0.4162 -0.0858  0.3717
  771loPI   C6A10984  14.885  17.657   8.640 -0.2106 -0.2901  0.0477
  771loPI   C1B10985  15.659  17.276   6.804 -0.0399 -0.0576  0.2171
  771loPI   C2B10986  15.605  17.320   7.246 -0.1045 -0.1296 -0.1861
  771loPI   C3B10987  15.761  17.441   7.616 -0.2152  0.0718  0.0071
  771loPI   C4B10988  15.569  17.584   8.003 -0.1370 -0.1438  0.0037
  772loPI    C110989  14.681   0.738   5.277 -0.0410  0.0627 -0.1465
  772loPI    C210990  14.341   0.856   5.104 -0.1587 -0.3160 -0.1836
  772loPI    C310991  14.657   0.761   4.879 -0.0177  0.0543 -0.1484
  772loPI   PO410992  14.601   0.831   5.525  0.0690 -0.2260 -0.3754
  772loPI   GL110993  14.709   1.012   5.882  0.0638  0.4576  0.0614
  772loPI   GL210994  14.329   1.132   5.909 -0.0283 -0.0070  0.0742
  772loPI   C1A10995  14.746   1.251   6.237 -0.3466  0.0421  0.1378
  772loPI   C2A10996  14.967   1.390   6.595 -0.1690  0.0268 -0.0353
  772loPI   C3A10997  14.808   1.352   7.011 -0.3905 -0.0627 -0.2728
  772loPI   C4A10998  14.756   1.312   7.434 -0.2825 -0.2184  0.0197
  772loPI   C5A10999  14.682   1.296   7.838 -0.1350 -0.0062 -0.0850
  772loPI   C6A11000  14.548   1.018   8.215  0.1862 -0.1613 -0.2506
  772loPI   C1B11001  14.277   1.296   6.325  0.1390  0.2089 -0.0617
  772loPI   C2B11002  14.440   1.174   6.732  0.3264  0.0318  0.0903
  772loPI   C3B11003  14.500   0.941   7.190  0.0472  0.1224 -0.0650
  772loPI   C4B11004  14.780   0.793   7.586  0.1769  0.1030  0.0887
  773loPI    C111005   8.539  15.616   5.190  0.0053  0.1130  0.0097
  773loPI    C211006   8.712  15.320   4.984 -0.0115 -0.1208  0.3244
  773loPI    C311007   8.313  15.342   5.005 -0.0217  0.1803 -0.0581
  773loPI   PO411008   8.713  15.656   5.440 -0.0888 -0.0628  0.0410
  773loPI   GL111009   8.905  15.295   5.766 -0.2397  0.2074 -0.3293
  773loPI   GL211010   8.583  15.479   5.859 -0.1873 -0.1494 -0.2659
  773loPI   C1A11011   8.943  15.308   6.167  0.0051  0.1692  0.2892
  773loPI   C2A11012   8.894  15.329   6.532  0.1684  0.0030 -0.2029
  773loPI   C3A11013   8.927  15.259   6.865  0.2117 -0.1662 -0.1450
  773loPI   C4A11014   9.161  15.197   7.242  0.1483 -0.0630 -0.1554
  773loPI   C5A11015   9.266  15.516   7.606 -0.1555 -0.2106 -0.1139
  773loPI   C6A11016   8.981  15.866   7.663 -0.0400  0.0563 -0.1357
  773loPI   C1B11017   8.417  15.420   6.352  0.2051 -0.0582 -0.0785
  773loPI   C2B11018   8.457  15.419   6.748 -0.2524 -0.0302 -0.5046
  773loPI   C3B11019   8.500  15.563   7.145  0.0489 -0.1238 -0.0732
  773loPI   C4B11020   8.788  15.473   7.440 -0.1063  0.2642  0.0159
  774loPI    C111021   0.663   1.135   5.329  0.1039 -0.0090  0.2605
  774loPI    C211022   0.563   0.783   5.488 -0.0089 -0.1226 -0.0535
  774loPI    C311023   0.295   0.990   5.276  0.2060 -0.0888 -0.2975
  774loPI   PO411024   0.759   1.274   5.447 -0.0939 -0.1927 -0.2782
  774loPI   GL111025   0.758   1.107   5.843 -0.3550 -0.1035 -0.1998
  774loPI   GL211026   0.916   1.315   6.013  0.1140 -0.0970  0.0268
  774loPI   C1A11027   0.470   1.108   6.221  0.0463 -0.2847  0.0827
  774loPI   C2A11028   0.556   1.240   6.550  0.1716 -0.2125 -0.1415
  774loPI   C3A11029   0.416   1.431   6.953  0.1997  0.2059  0.1020
  774loPI   C4A11030   0.639   1.484   7.402  0.3703  0.0065  0.0492
  774loPI   C5A11031   0.903   1.806   7.744  0.0973 -0.1233  0.1141
  774loPI   C6A11032   1.188   1.969   7.947  0.1018 -0.3539  0.2663
  774loPI   C1B11033   0.993   1.406   6.500  0.2064 -0.1705 -0.0072
  774loPI   C2B11034   0.914   1.530   6.952  0.2119  0.2475  0.2170
  774loPI   C3B11035   1.074   1.743   7.228 -0.0007  0.2615 -0.1175
  774loPI   C4B11036   1.415   1.817   7.526  0.0255  0.0406 -0.1220
  775loPI    C111037  11.705   3.566   5.271  0.0384  0.2740  0.1566
  775loPI    C211038  12.032   3.713   5.092 -0.0009  0.0066 -0.1441
  775loPI    C311039  11.669   3.846   4.987  0.0002  0.2060  0.0942
  775loPI   PO411040  11.760   3.656   5.520 -0.1563 -0.3112 -0.4367
  775loPI   GL111041  11.934   3.511   5.940  0.0019  0.0573  0.4818
  775loPI   GL211042  11.612   3.624   6.093  0.0225 -0.1006 -0.0915
  775loPI   C1A11043  12.045   3.596   6.334 -0.1316  0.1432 -0.1596
  775loPI   C2A11044  12.027   3.680   6.789  0.1505  0.1667  0.1948
  775loPI   C3A11045  12.004   3.582   7.135  0.1612 -0.2483 -0.0525
  775loPI   C4A11046  12.027   3.447   7.479  0.2144 -0.1076 -0.3710
  775loPI   C5A11047  11.944   3.227   7.905 -0.3900  0.2925 -0.1408
  775loPI   C6A11048  11.822   3.367   8.287  0.0722 -0.0550  0.1674
  775loPI   C1B11049  11.515   3.650   6.508  0.0750  0.0581  0.0967
  775loPI   C2B11050  11.502   3.628   6.897  0.1403 -0.2834 -0.2018
  775loPI   C3B11051  11.547   3.711   7.342 -0.2310 -0.2232 -0.1524
  775loPI   C4B11052  11.692   3.705   7.714  0.0094 -0.0371 -0.0647
  776loPI    C111053  12.688   8.776   5.309 -0.0002 -0.0947  0.0117
  776loPI    C211054  12.439   8.607   5.045 -0.1559 -0.0434  0.1245
  776loPI    C311055  12.834   8.596   4.983 -0.1818 -0.1861 -0.0202
  776loPI   PO411056  12.524   8.679   5.591 -0.2160 -0.1396  0.2450
  776loPI   GL111057  12.498   8.714   5.980 -0.0495 -0.0893 -0.1014
  776loPI   GL211058  12.741   8.992   6.100 -0.0804 -0.0810  0.0065
  776loPI   C1A11059  12.442   8.411   6.290  0.1206 -0.1668 -0.1989
  776loPI   C2A11060  12.375   8.375   6.675 -0.1212  0.1681 -0.0170
  776loPI   C3A11061  12.268   8.356   7.035  0.1283  0.2424  0.0258
  776loPI   C4A11062  12.365   8.213   7.470  0.2031  0.0742  0.2259
  776loPI   C5A11063  12.286   8.070   7.881 -0.1464  0.1194  0.1515
  776loPI   C6A11064  12.023   7.802   8.113 -0.2579  0.1867  0.1098
  776loPI   C1B11065  12.887   8.677   6.320 -0.1243  0.0289 -0.2780
  776loPI   C2B11066  12.806   8.571   6.813 -0.3778  0.1675  0.2950
  776loPI   C3B11067  12.779   8.523   7.250  0.0768  0.1553  0.0514
  776loPI   C4B11068  12.613   8.549   7.718 -0.2547 -0.1538  0.0484
  777loPI    C111069   0.822  15.070   5.976  0.0989 -0.2622  0.1405
  777loPI    C211070   1.211  15.125   6.049  0.0818  0.1023 -0.0170
  777loPI    C311071   1.096  14.902   5.738  0.1588 -0.2594  0.2074
  777loPI   PO411072   0.739  15.282   6.184 -0.1040 -0.0189 -0.1124
  777loPI   GL111073   0.691  15.565   6.433  0.2776 -0.3024  0.0284
  777loPI   GL211074   0.382  15.477   6.487  0.0134  0.2006 -0.2746
  777loPI   C1A11075   0.914  15.740   6.795  0.0507  0.0398 -0.0593
  777loPI   C2A11076   0.939  15.906   7.239  0.1297 -0.1275 -0.0738
  777loPI   C3A11077   1.057  15.976   7.618 -0.1662  0.1233  0.0047
  777loPI   C4A11078   1.169  16.083   8.065  0.0324  0.0697  0.0142
  777loPI   C5A11079   1.568  16.069   8.241  0.2503  0.0463 -0.0222
  777loPI   C6A11080   1.878  15.943   8.129  0.0647 -0.0049  0.0204
  777loPI   C1B11081   0.440  15.631   6.859  0.0899  0.0096  0.2759
  777loPI   C2B11082   0.503  15.772   7.198  0.3167 -0.2149  0.0429
  777loPI   C3B11083   0.619  15.675   7.618  0.0511 -0.1464  0.0276
  777loPI   C4B11084   0.783  15.766   8.044 -0.0722  0.1433 -0.1711
  778loPI    C111085   7.615   1.008   4.944  0.1605  0.0863 -0.0006
  778loPI    C211086   7.695   0.703   4.697 -0.2720 -0.0740  0.0485
  778loPI    C311087   7.791   1.077   4.591  0.2482 -0.2185 -0.0197
  778loPI   PO411088   7.719   0.902   5.244 -0.0108 -0.1759  0.1115
  778loPI   GL111089   7.950   0.647   5.545  0.1020 -0.3717 -0.1833
  778loPI   GL211090   8.071   0.602   5.831 -0.2487  0.1918 -0.0897
  778loPI   C1A11091   7.597   0.436   5.736 -0.1569 -0.0540 -0.0071
  778loPI   C2A11092   7.437   0.338   6.069  0.1275 -0.2943  0.2908
  778loPI   C3A11093   7.342   0.406   6.494  0.1557  0.0532  0.0471
  778loPI   C4A11094   7.293   0.381   6.885  0.0976  0.1990  0.2773
  778loPI   C5A11095   7.253   0.350   7.354 -0.1624 -0.0705  0.0265
  778loPI   C6A11096   7.249   0.136   7.698 -0.0434  0.0663 -0.0575
  778loPI   C1B11097   7.879   0.590   6.200  0.0265 -0.1061 -0.1822
  778loPI   C2B11098   7.992   0.492   6.645  0.0686 -0.0376  0.1388
  778loPI   C3B11099   8.126   0.496   7.069  0.1178  0.2785 -0.0014
  778loPI   C4B11100   8.236   0.562   7.583  0.1584 -0.0314  0.2135
  779loPI    C111101  16.298   8.196   4.982 -0.0357 -0.4455 -0.0249
  779loPI    C211102  15.925   8.073   4.904 -0.1956  0.0445 -0.0679
  779loPI    C311103  16.156   8.212   4.608 -0.0124 -0.1614 -0.0240
  779loPI   PO411104  16.283   8.138   5.313 -0.2192 -0.2134  0.0484
  779loPI   GL111105  16.284   8.231   5.783  0.1265 -0.1115  0.1070
  779loPI   GL211106  15.974   8.322   5.817  0.0639  0.1025 -0.4123
  779loPI   C1A11107  16.232   8.483   6.197  0.1240 -0.1949  0.1997
  779loPI   C2A11108  16.197   8.319   6.626  0.3282 -0.2296 -0.1177
  779loPI   C3A11109  16.107   8.401   7.036  0.2396  0.3109  0.2661
  779loPI   C4A11110  16.017   8.537   7.559 -0.2902  0.2428 -0.0114
  779loPI   C5A11111  16.216   8.575   7.959  0.3427  0.4538  0.1478
  779loPI   C6A11112  16.244   8.700   8.370  0.2947 -0.1118 -0.0537
  779loPI   C1B11113  15.847   8.166   6.238 -0.1649  0.0925  0.1688
  779loPI   C2B11114  15.820   8.036   6.707  0.1591 -0.0169 -0.1734
  779loPI   C3B11115  15.717   8.041   7.046 -0.0648  0.1511  0.1271
  779loPI   C4B11116  15.744   8.110   7.488 -0.0632  0.0013 -0.0817
  780loPI    C111117   7.987   5.277   4.916 -0.0354  0.1145 -0.0634
  780loPI    C211118   8.211   4.962   4.814 -0.1318  0.1143 -0.2794
  780loPI    C311119   8.356   5.333   4.772 -0.0653  0.1041 -0.1447
  780loPI   PO411120   7.956   5.253   5.199  0.0780  0.0146 -0.1747
  780loPI   GL111121   7.721   5.364   5.532 -0.0783 -0.0590  0.1635
  780loPI   GL211122   7.533   5.159   5.706 -0.2474 -0.1894 -0.0335
  780loPI   C1A11123   7.869   5.491   5.922 -0.2961 -0.1449  0.0648
  780loPI   C2A11124   7.854   5.444   6.457 -0.2533 -0.2470 -0.0326
  780loPI   C3A11125   8.076   5.569   6.925 -0.0148 -0.0032  0.1508
  780loPI   C4A11126   8.244   5.665   7.340  0.0132  0.0319 -0.0409
  780loPI   C5A11127   8.260   5.691   7.668 -0.0205  0.2220 -0.0697
  780loPI   C6A11128   8.173   6.042   7.948  0.0088  0.1066  0.0796
  780loPI   C1B11129   7.473   5.196   6.126 -0.0787  0.1175 -0.0585
  780loPI   C2B11130   7.495   4.920   6.494 -0.2447 -0.0058 -0.3600
  780loPI   C3B11131   7.707   4.688   6.920 -0.2925  0.2247  0.0361
  780loPI   C4B11132   7.517   4.455   7.250  0.1582 -0.2392 -0.1312
  781loPI    C111133   2.429  10.292   5.576  0.0254  0.0382  0.1208
  781loPI    C211134   2.373   9.918   5.708  0.0888  0.0157  0.0845
  781loPI    C311135   2.297  10.009   5.325 -0.0133  0.0613  0.1151
  781loPI   PO411136   2.344  10.388   5.868  0.1417 -0.0563  0.1948
  781loPI   GL111137   2.444  10.519   6.282  0.1928  0.1150 -0.1776
  781loPI   GL211138   2.551  10.805   6.436  0.0889  0.0968 -0.4577
  781loPI   C1A11139   2.367  10.482   6.740 -0.0289 -0.1891  0.1163
  781loPI   C2A11140   2.521  10.568   7.150  0.1124  0.0273  0.1673
  781loPI   C3A11141   2.748  10.439   7.407  0.0587 -0.1440 -0.2342
  781loPI   C4A11142   2.806  10.360   7.838 -0.0434  0.0685  0.1514
  781loPI   C5A11143   2.832  10.186   8.221  0.1756 -0.0310 -0.0754
  781loPI   C6A11144   2.847  10.211   8.684 -0.0917  0.3536  0.1270
  781loPI   C1B11145   2.710  10.877   6.794  0.0406 -0.0137 -0.0301
  781loPI   C2B11146   3.068  10.816   7.036  0.0390 -0.2495 -0.0655
  781loPI   C3B11147   3.147  10.686   7.526 -0.3036 -0.1613  0.0943
  781loPI   C4B11148   3.317  10.432   7.869  0.1161 -0.0997  0.0101
  782loPI    C111149   4.155   1.564   5.074 -0.1631  0.1455  0.0238
  782loPI    C211150   4.045   1.338   5.385 -0.0948  0.0640 -0.0108
  782loPI    C311151   4.352   1.226   5.155  0.1085  0.3258  0.1277
  782loPI   PO411152   4.153   1.808   5.160 -0.2355  0.1935 -0.0491
  782loPI   GL111153   4.088   2.011   5.548 -0.1355 -0.0371  0.2526
  782loPI   GL211154   4.236   1.730   5.635 -0.1167 -0.0084 -0.1260
  782loPI   C1A11155   3.925   2.142   5.877  0.1293  0.0545 -0.0401
  782loPI   C2A11156   4.047   2.318   6.200  0.3609 -0.1987 -0.1244
  782loPI   C3A11157   4.125   2.553   6.604  0.0234 -0.0024  0.1198
  782loPI   C4A11158   4.163   2.475   6.968  0.2862 -0.0089  0.2352
  782loPI   C5A11159   4.235   2.519   7.385 -0.1590  0.1102  0.0578
  782loPI   C6A11160   4.418   2.783   7.682  0.2855  0.3384  0.2043
  782loPI   C1B11161   4.302   1.912   6.100  0.1683 -0.0912 -0.0768
  782loPI   C2B11162   4.282   2.042   6.541  0.0065  0.1712 -0.1372
  782loPI   C3B11163   4.391   2.002   7.047 -0.1428 -0.1093  0.0750
  782loPI   C4B11164   4.542   1.695   7.369 -0.0985 -0.0585  0.0624
  783loPI    C111165  13.104  15.141   5.996 -0.1190  0.2000 -0.0069
  783loPI    C211166  12.910  15.454   5.840  0.0867  0.2543 -0.1585
  783loPI    C311167  12.836  15.086   5.704 -0.0698  0.2485 -0.0613
  783loPI   PO411168  13.317  15.157   6.122  0.2218  0.0887 -0.0674
  783loPI   GL111169  13.126  15.043   6.547  0.1555 -0.0232 -0.0572
  783loPI   GL211170  13.454  14.880   6.550  0.0339  0.0737  0.2876
  783loPI   C1A11171  13.148  15.056   6.947  0.1845 -0.0356  0.0530
  783loPI   C2A11172  13.280  15.132   7.330 -0.1178 -0.0246  0.0514
  783loPI   C3A11173  13.375  15.164   7.761 -0.3261  0.2909 -0.1549
  783loPI   C4A11174  13.676  15.173   8.181  0.1711 -0.1668 -0.1080
  783loPI   C5A11175  14.062  14.974   8.309  0.0770  0.2537  0.0838
  783loPI   C6A11176  14.403  14.797   8.489  0.1887  0.1082  0.1204
  783loPI   C1B11177  13.624  14.886   7.025 -0.1216 -0.1530  0.1425
  783loPI   C2B11178  13.753  14.922   7.415 -0.1844 -0.0539  0.0952
  783loPI   C3B11179  13.993  15.179   7.678  0.1914 -0.1319 -0.1097
  783loPI   C4B11180  14.248  15.342   7.951 -0.2156 -0.3177 -0.2976
  784loPI    C111181  11.516  18.133   5.232  0.0178 -0.0860 -0.0386
  784loPI    C211182  11.169  17.966   5.123 -0.0034 -0.0797  0.0187
  784loPI    C311183  11.483  17.956   4.875  0.0588 -0.3895  0.1056
  784loPI   PO411184  11.555  18.024   5.473  0.0364  0.0185  0.1968
  784loPI   GL111185  11.414  17.963   5.875  0.0747  0.2553  0.2028
  784loPI   GL211186  11.748  18.084   5.925  0.1043  0.1688  0.1937
  784loPI   C1A11187  11.211  17.898   6.201 -0.0048 -0.0373  0.1468
  784loPI   C2A11188  11.126  17.921   6.621 -0.0937 -0.3026  0.0752
  784loPI   C3A11189  11.058  17.872   6.989  0.2054  0.0689 -0.0531
  784loPI   C4A11190  11.075  17.877   7.417  0.0495 -0.3866 -0.0824
  784loPI   C5A11191  11.425  17.817   7.745 -0.1294  0.0327 -0.3430
  784loPI   C6A11192  11.653  18.175   8.072  0.1261 -0.1414  0.0884
  784loPI   C1B11193  11.606  18.261   6.315 -0.1163 -0.3147  0.0493
  784loPI   C2B11194  11.438  18.297   6.679  0.0320 -0.0953 -0.0462
  784loPI   C3B11195  11.387  18.247   7.183 -0.0626  0.1467  0.2680
  784loPI   C4B11196  11.541  18.289   7.548 -0.1538  0.0150 -0.0803
  785loPI    C111197  10.223   8.254   5.201  0.1801 -0.3637  0.1896
  785loPI    C211198  10.441   8.108   4.900 -0.0138 -0.0512 -0.1092
  785loPI    C311199  10.088   8.281   4.826 -0.0351  0.0870  0.2920
  785loPI   PO411200  10.373   8.081   5.476 -0.3576  0.0118  0.0467
  785loPI   GL111201  10.147   7.992   5.840  0.1996 -0.1876 -0.0014
  785loPI   GL211202  10.165   8.294   5.888  0.0154  0.1709  0.0546
  785loPI   C1A11203  10.186   7.762   6.152 -0.3972  0.3231 -0.1287
  785loPI   C2A11204   9.886   7.455   6.360 -0.0921 -0.2443 -0.3130
  785loPI   C3A11205   9.689   7.337   6.710  0.3675 -0.1099  0.1498
  785loPI   C4A11206   9.562   7.202   7.200 -0.1377  0.0620 -0.0294
  785loPI   C5A11207   9.545   7.221   7.658  0.2209 -0.1805 -0.3647
  785loPI   C6A11208   9.298   7.261   8.042 -0.1822 -0.2066 -0.1367
  785loPI   C1B11209  10.116   8.353   6.263  0.0919  0.1186  0.1160
  785loPI   C2B11210  10.142   8.379   6.642  0.1895 -0.2717 -0.0496
  785loPI   C3B11211  10.179   8.269   7.040  0.1141 -0.1636  0.0705
  785loPI   C4B11212  10.418   8.299   7.425  0.0371 -0.1442  0.1711
  786loPI    C111213   0.971   7.440   5.271  0.0082 -0.0551  0.0634
  786loPI    C211214   1.181   7.107   5.340  0.0145 -0.0994 -0.1593
  786loPI    C311215   1.336   7.398   5.113 -0.0133  0.0328 -0.0112
  786loPI   PO411216   0.883   7.518   5.497  0.1531 -0.1389 -0.0164
  786loPI   GL111217   0.628   7.556   5.808 -0.0995 -0.0210  0.0447
  786loPI   GL211218   0.321   7.482   5.551  0.0804 -0.0900 -0.1527
  786loPI   C1A11219   0.584   7.372   6.070 -0.1030  0.0195  0.0033
  786loPI   C2A11220   0.823   7.433   6.512 -0.1388 -0.1703 -0.0908
  786loPI   C3A11221   0.771   7.428   6.896  0.4090  0.2030 -0.1066
  786loPI   C4A11222   0.848   7.532   7.350 -0.1368  0.2519  0.1486
  786loPI   C5A11223   0.985   7.847   7.622 -0.3583 -0.1376 -0.0933
  786loPI   C6A11224   0.812   8.202   7.810 -0.0792  0.4675  0.2040
  786loPI   C1B11225   0.117   7.794   5.944 -0.1780  0.0116  0.3499
  786loPI   C2B11226  -0.113   7.795   6.354  0.1206  0.0212 -0.0152
  786loPI   C3B11227  -0.136   7.792   6.733  0.2378  0.0476 -0.0338
  786loPI   C4B11228  -0.328   7.634   7.195  0.0250  0.0899  0.0292
  787loPI    C111229   8.146  16.528   5.311  0.0728  0.0454 -0.1042
  787loPI    C211230   8.519  16.603   5.188  0.0803  0.1849  0.0009
  787loPI    C311231   8.208  16.723   4.967  0.0977 -0.0886 -0.1762
  787loPI   PO411232   8.166  16.244   5.370  0.0047  0.0926  0.1696
  787loPI   GL111233   8.114  16.226   5.856  0.1154  0.1860 -0.0716
  787loPI   GL211234   7.747  16.173   5.835 -0.1581 -0.3430  0.2570
  787loPI   C1A11235   8.091  16.267   6.385 -0.3301  0.0023  0.0426
  787loPI   C2A11236   8.082  16.285   6.857 -0.1234 -0.2801  0.0983
  787loPI   C3A11237   8.089  16.308   7.337 -0.2384  0.0635 -0.2292
  787loPI   C4A11238   8.025  16.129   7.690 -0.1547  0.3358 -0.0174
  787loPI   C5A11239   8.390  15.966   7.935 -0.1927  0.0247 -0.1880
  787loPI   C6A11240   8.812  16.119   8.137  0.0486  0.0613 -0.0762
  787loPI   C1B11241   7.648  16.057   6.220 -0.0839  0.2215 -0.1729
  787loPI   C2B11242   7.462  16.027   6.661  0.1035 -0.1176 -0.0014
  787loPI   C3B11243   7.220  16.080   7.045 -0.0788  0.1236 -0.1521
  787loPI   C4B11244   7.179  16.104   7.486  0.0193 -0.1749 -0.0206
  788loPI    C111245  11.711  12.260   5.502 -0.1873 -0.3552 -0.0274
  788loPI    C211246  11.674  12.400   5.129 -0.2432  0.0990  0.1418
  788loPI    C311247  12.037  12.357   5.292 -0.2222 -0.0323  0.0617
  788loPI   PO411248  11.558  12.452   5.676 -0.0157 -0.3007  0.0312
  788loPI   GL111249  11.253  12.385   6.078 -0.1063  0.2225  0.3645
  788loPI   GL211250  11.450  12.552   6.158  0.2860  0.0655 -0.1567
  788loPI   C1A11251  11.122  12.494   6.541  0.0848 -0.1067 -0.2358
  788loPI   C2A11252  11.207  12.499   6.967  0.1476  0.1573 -0.1894
  788loPI   C3A11253  11.173  12.628   7.427 -0.2646 -0.2058  0.0048
  788loPI   C4A11254  11.277  12.974   7.613 -0.1239 -0.0773 -0.1448
  788loPI   C5A11255  11.657  13.152   7.990 -0.0635  0.0823  0.0440
  788loPI   C6A11256  11.745  13.305   8.295 -0.0413 -0.1287  0.0169
  788loPI   C1B11257  11.615  12.591   6.575 -0.0357 -0.0356  0.2423
  788loPI   C2B11258  11.599  12.774   6.933 -0.2393  0.1986  0.0078
  788loPI   C3B11259  11.703  12.659   7.289  0.0563 -0.1693 -0.2382
  788loPI   C4B11260  11.670  12.701   7.760 -0.2017 -0.0963  0.1099
  789loPI    C111261  15.560   0.381   5.310  0.1044 -0.1518  0.0058
  789loPI    C211262  15.210   0.193   5.361 -0.1377  0.2761 -0.0270
  789loPI    C311263  15.377   0.208   4.998 -0.1021  0.1049 -0.0188
  789loPI   PO411264  15.556   0.506   5.610  0.0387  0.1510  0.1483
  789loPI   GL111265  15.474   0.718   5.984 -0.1457  0.0264 -0.2552
  789loPI   GL211266  15.700   0.627   6.106  0.1236 -0.0282 -0.1971
  789loPI   C1A11267  15.771   1.090   6.154 -0.4324 -0.2776  0.1287
  789loPI   C2A11268  15.895   1.274   6.557 -0.1708 -0.0798  0.0682
  789loPI   C3A11269  15.988   1.227   7.010  0.0723  0.2811  0.0786
  789loPI   C4A11270  15.934   1.285   7.457 -0.1830 -0.1891 -0.1515
  789loPI   C5A11271  15.999   1.571   7.867  0.2754 -0.1550  0.2974
  789loPI   C6A11272  15.787   1.892   8.157  0.0633 -0.1334 -0.2002
  789loPI   C1B11273  15.925   0.781   6.507  0.1611  0.1163  0.0934
  789loPI   C2B11274  16.037   0.733   6.957  0.2475 -0.1698  0.2220
  789loPI   C3B11275  16.089   0.722   7.325  0.2064 -0.0648  0.1615
  789loPI   C4B11276  16.071   0.925   7.805 -0.1569 -0.1831 -0.0982
  790loPI    C111277  10.695   3.214   5.293 -0.2131 -0.0292 -0.0917
  790loPI    C211278  10.647   2.888   5.519  0.1060 -0.0379 -0.0326
  790loPI    C311279  10.834   2.861   5.166 -0.0802  0.0395 -0.1387
  790loPI   PO411280  10.656   3.397   5.555 -0.0689 -0.2886 -0.1537
  790loPI   GL111281  10.614   3.526   5.986 -0.4035  0.1828 -0.1872
  790loPI   GL211282  10.384   3.250   5.893  0.2326 -0.0715 -0.2006
  790loPI   C1A11283  10.731   3.368   6.362 -0.3566  0.0769  0.0756
  790loPI   C2A11284  10.787   3.160   6.714 -0.1830  0.0297 -0.0944
  790loPI   C3A11285  10.881   2.841   7.050  0.1083  0.0276 -0.1578
  790loPI   C4A11286  10.856   2.775   7.452 -0.0501 -0.1261  0.1488
  790loPI   C5A11287  10.929   2.585   7.843  0.0516 -0.1813  0.0598
  790loPI   C6A11288  11.309   2.471   8.095  0.2911  0.1724  0.1975
  790loPI   C1B11289  10.202   3.459   6.254 -0.0862 -0.3279 -0.0008
  790loPI   C2B11290  10.152   3.402   6.609  0.0636  0.0260  0.0851
  790loPI   C3B11291  10.037   3.476   6.970 -0.1163  0.0015 -0.0091
  790loPI   C4B11292  10.216   3.468   7.434  0.0652 -0.1180 -0.4397
  791loPI    C111293  14.464  10.615   5.457  0.0650  0.0634  0.1940
  791loPI    C211294  14.804  10.814   5.527 -0.0332  0.2684  0.0969
  791loPI    C311295  14.734  10.657   5.166  0.0130  0.1163  0.1532
  791loPI   PO411296  14.342  10.565   5.660 -0.0918  0.0796  0.0904
  791loPI   GL111297  14.324  10.351   6.028  0.1236  0.3512 -0.1260
  791loPI   GL211298  14.430  10.103   5.928 -0.1047 -0.1510 -0.0351
  791loPI   C1A11299  14.314  10.291   6.380 -0.2191 -0.0350 -0.1601
  791loPI   C2A11300  14.369  10.375   6.797  0.0095  0.3626 -0.0657
  791loPI   C3A11301  14.314  10.376   7.253 -0.2568 -0.0878  0.0765
  791loPI   C4A11302  14.320  10.502   7.658 -0.0310 -0.1832  0.0320
  791loPI   C5A11303  14.613  10.618   7.984 -0.2180 -0.1579  0.0121
  791loPI   C6A11304  14.693  10.662   8.344 -0.1714 -0.2392  0.0888
  791loPI   C1B11305  14.313   9.839   6.137 -0.2378 -0.2224 -0.1987
  791loPI   C2B11306  14.360   9.816   6.580  0.0833  0.0681  0.1672
  791loPI   C3B11307  14.343   9.828   7.139  0.1653  0.1617 -0.2774
  791loPI   C4B11308  14.212   9.922   7.521  0.1366  0.1282 -0.0948
  792loPI    C111309  16.221   3.759   5.474 -0.1124  0.2513 -0.0319
  792loPI    C211310  16.185   3.582   5.831  0.1495  0.3442  0.0428
  792loPI    C311311  15.897   3.826   5.699 -0.0919  0.0703  0.0536
  792loPI   PO411312  16.614   3.779   5.367  0.0994  0.0570  0.0049
  792loPI   GL111313  16.901   3.697   5.682  0.3228 -0.0365 -0.0864
  792loPI   GL211314  16.726   3.468   5.836  0.0572  0.0330 -0.2647
  792loPI   C1A11315  16.809   3.844   6.094  0.0931 -0.2248  0.0282
  792loPI   C2A11316  16.642   3.951   6.579 -0.0809 -0.2280  0.0221
  792loPI   C3A11317  16.553   3.689   6.933  0.0125 -0.2108 -0.1922
  792loPI   C4A11318  16.612   3.535   7.361 -0.0225  0.1132  0.2461
  792loPI   C5A11319  16.829   3.848   7.691 -0.2127  0.0160  0.1583
  792loPI   C6A11320  17.201   3.798   7.928  0.0983 -0.0321  0.2020
  792loPI   C1B11321  16.548   3.349   6.246  0.0625  0.0133  0.2961
  792loPI   C2B11322  16.795   3.329   6.673 -0.3180  0.2225  0.3753
  792loPI   C3B11323  16.978   3.459   6.978 -0.2756  0.1000  0.1272
  792loPI   C4B11324  17.138   3.330   7.371  0.0074 -0.3934 -0.1455
  793loPI    C111325   6.277  10.373   5.985  0.1749 -0.1108 -0.1179
  793loPI    C211326   6.269  10.131   5.666  0.1936 -0.1123 -0.1172
  793loPI    C311327   6.120  10.501   5.640 -0.2377 -0.2715  0.0041
  793loPI   PO411328   6.513  10.277   6.143  0.1341  0.0215 -0.0739
  793loPI   GL111329   6.918  10.114   6.377  0.1704  0.0231 -0.0449
  793loPI   GL211330   6.687  10.244   6.637 -0.0216  0.3598  0.1637
  793loPI   C1A11331   7.064   9.934   6.773 -0.1377  0.1348 -0.3080
  793loPI   C2A11332   7.055   9.922   7.196  0.3701 -0.4270 -0.1351
  793loPI   C3A11333   6.923   9.808   7.637  0.1531 -0.0065 -0.2816
  793loPI   C4A11334   6.655   9.910   8.039  0.0359 -0.1361  0.1400
  793loPI   C5A11335   6.416  10.127   8.376 -0.1775 -0.1800  0.0279
  793loPI   C6A11336   6.169  10.221   8.721  0.0674  0.1425  0.1083
  793loPI   C1B11337   6.675  10.241   7.122  0.0324 -0.0543  0.0830
  793loPI   C2B11338   6.566  10.194   7.604 -0.4106 -0.2644 -0.3525
  793loPI   C3B11339   6.498  10.419   7.942  0.0008 -0.2302 -0.1304
  793loPI   C4B11340   6.781  10.762   8.066 -0.2683 -0.1603  0.0620
  794loPI    C111341  13.290   6.509   5.641  0.0778  0.0795  0.0554
  794loPI    C211342  13.364   6.899   5.693 -0.0247  0.0859  0.1570
  794loPI    C311343  13.430   6.729   5.338 -0.0138  0.2040  0.1021
  794loPI   PO411344  13.417   6.402   5.827 -0.0211  0.0752 -0.2007
  794loPI   GL111345  13.486   6.151   6.228 -0.0630 -0.0323  0.1870
  794loPI   GL211346  13.185   6.140   6.205 -0.1447 -0.0490 -0.1204
  794loPI   C1A11347  13.772   6.224   6.598  0.1878 -0.3641  0.1389
  794loPI   C2A11348  13.750   6.099   6.981 -0.0700  0.1337  0.0115
  794loPI   C3A11349  13.858   6.036   7.412 -0.2014  0.0869 -0.0599
  794loPI   C4A11350  13.835   5.929   7.828  0.2124 -0.1171 -0.1641
  794loPI   C5A11351  13.974   5.770   8.125  0.1784 -0.0776  0.1683
  794loPI   C6A11352  14.429   5.762   8.015  0.1897  0.1828  0.1395
  794loPI   C1B11353  13.212   6.360   6.585  0.2031  0.2858  0.3685
  794loPI   C2B11354  13.342   6.369   7.013 -0.3984  0.4123  0.2355
  794loPI   C3B11355  13.481   6.350   7.385 -0.2141 -0.1075 -0.1396
  794loPI   C4B11356  13.437   6.332   7.818  0.2668 -0.1344 -0.2243
  795loPI    C111357   9.916  12.910   5.589 -0.0615 -0.1453  0.1423
  795loPI    C211358  10.178  12.827   5.298 -0.1542 -0.2869  0.0982
  795loPI    C311359  10.294  13.038   5.618 -0.0929  0.0126 -0.1177
  795loPI   PO411360   9.835  12.749   5.667 -0.2512  0.1598  0.2337
  795loPI   GL111361   9.735  12.474   6.024 -0.0315 -0.0999  0.1271
  795loPI   GL211362   9.750  12.144   6.015 -0.0288 -0.1128  0.1875
  795loPI   C1A11363   9.823  12.506   6.498 -0.0402 -0.2410 -0.1778
  795loPI   C2A11364   9.793  12.326   6.990  0.0802 -0.1669 -0.3411
  795loPI   C3A11365   9.542  12.209   7.309  0.0973  0.0132 -0.0837
  795loPI   C4A11366   9.381  12.463   7.652  0.2376 -0.0178  0.0626
  795loPI   C5A11367   9.248  12.280   8.032 -0.0924  0.3576 -0.1213
  795loPI   C6A11368   9.076  11.990   8.248  0.0113  0.0658 -0.3636
  795loPI   C1B11369   9.766  12.005   6.403 -0.1676  0.1150 -0.0265
  795loPI   C2B11370   9.865  11.843   6.721  0.1446 -0.0928 -0.3753
  795loPI   C3B11371   9.976  11.849   7.154  0.2667 -0.0345 -0.2723
  795loPI   C4B11372   9.932  11.843   7.616  0.0119 -0.0656 -0.2624
  796loPI    C111373  12.689   5.272   5.463  0.0336 -0.1127  0.0645
  796loPI    C211374  12.650   4.915   5.288 -0.0907  0.0164 -0.1758
  796loPI    C311375  12.741   5.236   5.068  0.0398  0.1303  0.0417
  796loPI   PO411376  12.467   5.375   5.629  0.2550  0.0776 -0.1278
  796loPI   GL111377  12.479   5.353   6.043 -0.0837  0.1619  0.0043
  796loPI   GL211378  12.756   5.036   6.196 -0.1596 -0.0378  0.1644
  796loPI   C1A11379  12.456   5.427   6.456  0.0577 -0.0426  0.0470
  796loPI   C2A11380  12.687   5.552   6.839  0.3263  0.1665 -0.0425
  796loPI   C3A11381  12.779   5.717   7.287 -0.0956  0.0384 -0.0916
  796loPI   C4A11382  12.563   5.686   7.694  0.3841  0.0039 -0.4472
  796loPI   C5A11383  12.183   5.682   7.737 -0.0014  0.2055  0.1290
  796loPI   C6A11384  11.781   5.686   7.798 -0.2223 -0.0241 -0.0423
  796loPI   C1B11385  12.805   5.133   6.646 -0.0971  0.2942 -0.1523
  796loPI   C2B11386  12.787   5.132   7.088 -0.1618 -0.2412 -0.2160
  796loPI   C3B11387  12.593   5.248   7.470 -0.0290  0.0028 -0.0772
  796loPI   C4B11388  12.537   5.190   7.922  0.2136  0.0961  0.1613
  797loPI    C111389  11.202  11.534   5.378  0.0914  0.2114 -0.1038
  797loPI    C211390  10.870  11.720   5.256 -0.0548  0.0756  0.0806
  797loPI    C311391  11.229  11.870   5.163 -0.1677  0.3025  0.0025
  797loPI   PO411392  11.117  11.429   5.718  0.2360 -0.1278 -0.1865
  797loPI   GL111393  11.363  11.562   6.000  0.1267 -0.0308 -0.0872
  797loPI   GL211394  11.645  11.450   5.878  0.1906 -0.0363  0.2242
  797loPI   C1A11395  11.284  11.555   6.387  0.1712  0.0434  0.0757
  797loPI   C2A11396  11.375  11.329   6.737 -0.1449 -0.0339 -0.0812
  797loPI   C3A11397  11.358  11.253   7.168  0.2496  0.0397 -0.0147
  797loPI   C4A11398  11.234  10.947   7.520  0.2731  0.1439 -0.0046
  797loPI   C5A11399  11.574  10.794   7.809  0.0327  0.2207 -0.1044
  797loPI   C6A11400  11.957  10.974   7.787 -0.2094  0.0163  0.1366
  797loPI   C1B11401  11.716  11.172   6.193 -0.0327  0.0751 -0.1539
  797loPI   C2B11402  11.869  10.996   6.544  0.1337 -0.2091  0.0935
  797loPI   C3B11403  11.858  11.128   6.884  0.2321  0.0470 -0.1431
  797loPI   C4B11404  11.904  10.967   7.288  0.1812 -0.1248 -0.0116
  798loPI    C111405   1.873   1.867   5.362  0.0562  0.2027  0.1024
  798loPI    C211406   2.096   1.961   5.043 -0.0539 -0.3072 -0.1352
  798loPI    C311407   1.698   1.991   5.024 -0.0405  0.1141  0.1196
  798loPI   PO411408   1.934   1.968   5.528  0.1514  0.4984 -0.2806
  798loPI   GL111409   2.038   1.849   5.884 -0.2587  0.0895  0.2100
  798loPI   GL211410   2.355   2.044   5.807  0.1970  0.3122 -0.1228
  798loPI   C1A11411   2.203   1.885   6.245 -0.0706 -0.2668  0.2839
  798loPI   C2A11412   2.367   1.901   6.667 -0.0396  0.2689  0.3285
  798loPI   C3A11413   2.144   1.850   7.075 -0.1825 -0.0301 -0.1002
  798loPI   C4A11414   2.245   1.677   7.522  0.0876 -0.0597  0.1144
  798loPI   C5A11415   2.409   1.947   7.729 -0.1056 -0.0537  0.0943
  798loPI   C6A11416   2.504   2.432   7.779 -0.3027  0.2263  0.0912
  798loPI   C1B11417   2.700   2.134   6.053 -0.2561  0.0833 -0.0382
  798loPI   C2B11418   2.805   2.033   6.486  0.2389  0.0941  0.0740
  798loPI   C3B11419   2.899   2.008   6.886 -0.1573  0.0238 -0.2510
  798loPI   C4B11420   2.615   1.837   7.170  0.0625 -0.2529 -0.0174
  799loPI    C111421   9.823  16.901   5.152  0.0675  0.2245  0.2322
  799loPI    C211422  10.193  16.959   5.011 -0.0315  0.0507 -0.1075
  799loPI    C311423   9.895  16.864   4.761 -0.2922  0.1137  0.1729
  799loPI   PO411424   9.930  16.858   5.430 -0.0023  0.0187  0.1885
  799loPI   GL111425   9.786  16.799   5.833 -0.2144 -0.1316  0.0306
  799loPI   GL211426   9.821  16.551   6.029  0.1282 -0.1935  0.2382
  799loPI   C1A11427   9.865  17.075   6.245 -0.1194  0.0341  0.0047
  799loPI   C2A11428   9.855  17.049   6.677 -0.2038  0.0371 -0.1667
  799loPI   C3A11429   9.953  17.069   7.083 -0.2187 -0.2953 -0.2101
  799loPI   C4A11430   9.829  16.991   7.411 -0.2559 -0.0222  0.3308
  799loPI   C5A11431   9.780  17.038   7.908  0.1243 -0.0184 -0.0705
  799loPI   C6A11432  10.069  17.255   8.141  0.0954  0.0173 -0.0860
  799loPI   C1B11433   9.834  16.582   6.426  0.1204 -0.0671 -0.0829
  799loPI   C2B11434   9.883  16.608   6.858 -0.1536  0.1935  0.1948
  799loPI   C3B11435   9.853  16.489   7.213 -0.1264 -0.0632 -0.0276
  799loPI   C4B11436   9.908  16.260   7.518 -0.0845 -0.0843  0.0508
  800loPI    C111437  14.548   9.316   5.351 -0.0868 -0.1448 -0.1822
  800loPI    C211438  14.679   9.693   5.330  0.1026 -0.2134 -0.2509
  800loPI    C311439  14.318   9.600   5.187 -0.1370  0.0275  0.1775
  800loPI   PO411440  14.591   9.245   5.594 -0.1898 -0.1000  0.1277
  800loPI   GL111441  14.336   9.212   5.951 -0.3197  0.0787  0.2549
  800loPI   GL211442  14.080   8.933   5.818  0.1520 -0.2044  0.3410
  800loPI   C1A11443  14.342   9.262   6.337 -0.1879 -0.0873 -0.2645
  800loPI   C2A11444  14.365   9.269   6.788  0.0775  0.1341  0.0346
  800loPI   C3A11445  14.272   9.317   7.299  0.2357 -0.0661 -0.0302
  800loPI   C4A11446  14.184   9.145   7.696 -0.0316  0.0366  0.2841
  800loPI   C5A11447  14.303   8.910   7.985  0.0778 -0.2740  0.3453
  800loPI   C6A11448  14.375   8.641   8.384  0.0196 -0.2586  0.4957
  800loPI   C1B11449  13.971   8.961   6.187 -0.0540 -0.1711  0.0978
  800loPI   C2B11450  13.973   9.018   6.642  0.2828 -0.0035 -0.2972
  800loPI   C3B11451  13.802   9.029   7.062  0.2121 -0.0794 -0.1297
  800loPI   C4B11452  13.683   9.017   7.499  0.0729 -0.1976 -0.0137
  801loPI    C111453   3.938  10.253   5.795 -0.0976  0.1982 -0.0088
  801loPI    C211454   4.020   9.934   6.023  0.1234  0.1940 -0.0915
  801loPI    C311455   3.958   9.889   5.630 -0.1729  0.2121 -0.0492
  801loPI   PO411456   3.732  10.371   5.934 -0.0341  0.2429 -0.3505
  801loPI   GL111457   3.854  10.537   6.280  0.1731  0.0314 -0.3388
  801loPI   GL211458   4.063  10.388   6.335  0.0112 -0.1395  0.3094
  801loPI   C1A11459   3.887  10.627   6.765 -0.2206 -0.2198 -0.3565
  801loPI   C2A11460   3.969  10.733   7.185 -0.0344 -0.1485 -0.0887
  801loPI   C3A11461   4.185  10.480   7.476 -0.1367  0.0478 -0.2146
  801loPI   C4A11462   4.199  10.162   7.760  0.2933  0.1030 -0.0268
  801loPI   C5A11463   4.131   9.839   8.049 -0.2873 -0.0007 -0.0071
  801loPI   C6A11464   3.960   9.527   8.088  0.0517  0.3929  0.3560
  801loPI   C1B11465   4.380  10.611   6.505  0.2087 -0.1942  0.1831
  801loPI   C2B11466   4.293  11.028   6.652 -0.1742  0.3925 -0.2761
  801loPI   C3B11467   4.391  11.247   7.094 -0.1772 -0.1573 -0.0315
  801loPI   C4B11468   4.278  11.482   7.550  0.0717 -0.2274 -0.0242
  802loPI    C111469  17.084   9.515   5.749  0.0143 -0.0791  0.1557
  802loPI    C211470  16.925   9.155   5.675  0.0611 -0.0636 -0.0259
  802loPI    C311471  16.970   9.418   5.377 -0.0625  0.1293  0.1236
  802loPI   PO411472  16.960   9.546   6.019  0.0732 -0.2698  0.2171
  802loPI   GL111473  17.187   9.802   6.331  0.0105  0.1010  0.0954
  802loPI   GL211474  17.299   9.518   6.409  0.3892  0.1542 -0.0875
  802loPI   C1A11475  16.950   9.681   6.740 -0.0857  0.2347 -0.0649
  802loPI   C2A11476  16.930   9.595   7.062 -0.0419  0.0469  0.0205
  802loPI   C3A11477  17.115   9.561   7.383  0.3801 -0.2832 -0.1555
  802loPI   C4A11478  17.103   9.450   7.861 -0.0281  0.1044  0.2092
  802loPI   C5A11479  17.291   9.158   8.198 -0.3348  0.0174  0.0756
  802loPI   C6A11480  17.094   8.837   8.396 -0.0051 -0.0849  0.0777
  802loPI   C1B11481  17.075   9.212   6.683  0.1330  0.0135 -0.2459
  802loPI   C2B11482  17.215   9.076   7.064  0.0436 -0.2361 -0.0510
  802loPI   C3B11483  17.345   9.113   7.476 -0.0973 -0.0406  0.1601
  802loPI   C4B11484  17.464   8.921   7.768  0.0422 -0.3280  0.0327
  803loPI    C111485   2.940   7.209   5.038  0.0373 -0.3194 -0.2533
  803loPI    C211486   3.304   7.374   5.030 -0.2032  0.2635  0.1522
  803loPI    C311487   3.058   7.417   4.718 -0.0686  0.2075  0.0376
  803loPI   PO411488   2.867   7.287   5.279  0.0173 -0.2485 -0.2318
  803loPI   GL111489   2.696   7.099   5.690 -0.0355 -0.1245  0.1877
  803loPI   GL211490   2.417   6.865   5.749  0.0138  0.0419  0.0623
  803loPI   C1A11491   2.796   7.320   5.997  0.1796  0.1776 -0.1789
  803loPI   C2A11492   2.737   7.637   6.302 -0.0673 -0.0313  0.0691
  803loPI   C3A11493   2.549   7.869   6.619  0.0031 -0.5020 -0.1747
  803loPI   C4A11494   2.173   7.720   6.996 -0.3302  0.3441 -0.0337
  803loPI   C5A11495   1.963   7.490   7.437  0.1392 -0.0454 -0.0052
  803loPI   C6A11496   2.114   7.184   7.800 -0.1784 -0.0110 -0.0260
  803loPI   C1B11497   2.342   7.116   6.107 -0.1732 -0.2338  0.0952
  803loPI   C2B11498   2.661   7.199   6.449  0.0963 -0.1771 -0.1372
  803loPI   C3B11499   2.666   7.417   6.759  0.1819 -0.0066  0.1611
  803loPI   C4B11500   2.853   7.308   7.165 -0.1121 -0.2679  0.0354
  804loPI    C111501   7.036   1.379   5.108 -0.0132 -0.0290  0.1174
  804loPI    C211502   6.857   1.150   5.384 -0.0350 -0.3482 -0.1559
  804loPI    C311503   6.693   1.192   5.021  0.0889 -0.0809 -0.1836
  804loPI   PO411504   7.109   1.591   5.263  0.0681 -0.3939 -0.1300
  804loPI   GL111505   7.142   1.467   5.668 -0.4402  0.0056 -0.0517
  804loPI   GL211506   7.067   1.206   5.854 -0.1089 -0.1485  0.0623
  804loPI   C1A11507   7.524   1.462   5.923  0.0323 -0.1268  0.1004
  804loPI   C2A11508   7.640   1.480   6.301 -0.0808  0.0813 -0.0955
  804loPI   C3A11509   7.774   1.525   6.761  0.0686  0.0960  0.1209
  804loPI   C4A11510   7.890   1.511   7.173 -0.3165 -0.1125 -0.0870
  804loPI   C5A11511   8.072   1.427   7.572 -0.3114 -0.0348 -0.1808
  804loPI   C6A11512   8.184   1.392   8.002  0.2811  0.1517  0.2829
  804loPI   C1B11513   7.198   1.268   6.209 -0.0034  0.2354 -0.1892
  804loPI   C2B11514   7.346   1.254   6.598  0.0233  0.2103 -0.2001
  804loPI   C3B11515   7.398   1.180   6.998 -0.1819  0.0321 -0.1488
  804loPI   C4B11516   7.633   1.147   7.431  0.1717 -0.2942 -0.1451
  805loPI    C111517   7.173   4.997   4.779  0.1244 -0.0899  0.0347
  805loPI    C211518   7.526   5.124   4.641 -0.0902  0.2617 -0.2103
  805loPI    C311519   7.206   5.361   4.616 -0.3787 -0.1099 -0.1268
  805loPI   PO411520   7.136   4.944   5.028  0.0293 -0.0135 -0.1881
  805loPI   GL111521   7.068   5.003   5.481 -0.2152 -0.1798 -0.1581
  805loPI   GL211522   7.025   4.724   5.607 -0.2316 -0.1835 -0.0218
  805loPI   C1A11523   7.046   5.346   5.774  0.0004  0.1382  0.0076
  805loPI   C2A11524   6.887   5.636   5.977  0.2455  0.5325 -0.1209
  805loPI   C3A11525   6.845   5.559   6.420  0.1814  0.0092  0.2271
  805loPI   C4A11526   6.789   5.573   6.850  0.3157 -0.0318 -0.0270
  805loPI   C5A11527   6.817   5.265   7.199 -0.1640 -0.1124  0.1408
  805loPI   C6A11528   6.709   5.212   7.695 -0.1427 -0.3985  0.1990
  805loPI   C1B11529   6.900   4.905   5.965  0.2912  0.0947 -0.3111
  805loPI   C2B11530   6.954   5.011   6.374  0.1176 -0.2843 -0.0343
  805loPI   C3B11531   7.066   5.085   6.749 -0.0703 -0.0582 -0.1244
  805loPI   C4B11532   7.205   4.856   7.035  0.2370 -0.0524 -0.4088
  806loPI    C111533   9.802   3.397   5.280  0.0367 -0.0895  0.3485
  806loPI    C211534   9.905   3.068   5.077  0.0029 -0.0037  0.1901
  806loPI    C311535   9.612   3.302   4.941  0.1269  0.1722  0.2221
  806loPI   PO411536   9.747   3.323   5.528 -0.0793  0.3160  0.1969
  806loPI   GL111537   9.817   3.109   5.915 -0.2155  0.0710  0.1493
  806loPI   GL211538   9.751   2.881   5.771 -0.1447  0.1940 -0.1208
  806loPI   C1A11539   9.831   3.044   6.300 -0.2242 -0.0252 -0.0061
  806loPI   C2A11540   9.780   3.058   6.761  0.2966  0.1603 -0.1459
  806loPI   C3A11541   9.685   3.199   7.141 -0.0500 -0.2418 -0.1024
  806loPI   C4A11542   9.399   3.115   7.449  0.0798  0.1443  0.0326
  806loPI   C5A11543   9.164   2.804   7.682  0.0205 -0.1213  0.2460
  806loPI   C6A11544   8.784   2.570   7.905  0.1031  0.0732  0.1703
  806loPI   C1B11545   9.465   2.744   6.045  0.2793  0.3387  0.2020
  806loPI   C2B11546   9.378   2.739   6.410 -0.2275 -0.0381 -0.1149
  806loPI   C3B11547   9.428   2.642   6.789  0.1429 -0.0659 -0.0005
  806loPI   C4B11548   9.207   2.879   7.105 -0.0495  0.1854 -0.0856
  807loPI    C111549   5.524   1.850   5.125  0.1935 -0.2748 -0.2459
  807loPI    C211550   5.161   1.702   5.047 -0.0782  0.0983  0.2552
  807loPI    C311551   5.391   1.834   4.748 -0.2864 -0.2795 -0.0824
  807loPI   PO411552   5.589   2.029   5.276 -0.1958 -0.2410  0.0313
  807loPI   GL111553   5.384   2.094   5.613 -0.0346 -0.0743  0.0780
  807loPI   GL211554   5.517   2.353   5.829 -0.1870 -0.1633 -0.0214
  807loPI   C1A11555   5.269   1.965   6.056  0.2240  0.2604  0.3554
  807loPI   C2A11556   5.317   2.149   6.445  0.0088  0.1070  0.1155
  807loPI   C3A11557   5.196   2.352   6.842 -0.0177 -0.1856  0.0813
  807loPI   C4A11558   5.051   2.373   7.289 -0.1989  0.0017 -0.3541
  807loPI   C5A11559   4.980   2.572   7.678 -0.1630 -0.0068  0.2804
  807loPI   C6A11560   5.111   2.566   8.169 -0.2354  0.0254  0.0140
  807loPI   C1B11561   5.732   2.345   6.231 -0.4233  0.3498 -0.2779
  807loPI   C2B11562   5.844   2.171   6.633 -0.0984  0.2484 -0.2071
  807loPI   C3B11563   5.949   2.138   7.058  0.1506  0.1697  0.1994
  807loPI   C4B11564   5.953   2.290   7.448 -0.1254 -0.2769  0.0387
  808loPI    C111565   1.668  14.862   5.530  0.1173  0.0286  0.1428
  808loPI    C211566   1.443  15.193   5.543 -0.1401 -0.1414  0.0947
  808loPI    C311567   1.840  15.222   5.504 -0.1961  0.1546 -0.3186
  808loPI   PO411568   1.576  14.676   5.680  0.1418 -0.0040  0.0001
  808loPI   GL111569   1.616  14.591   6.036  0.0626  0.1518 -0.0933
  808loPI   GL211570   1.361  14.671   6.199 -0.0445  0.0637 -0.1227
  808loPI   C1A11571   1.740  14.583   6.499 -0.1077  0.4255 -0.3354
  808loPI   C2A11572   1.574  14.500   6.899 -0.0841  0.1543 -0.0108
  808loPI   C3A11573   1.446  14.442   7.322  0.0713  0.0727  0.0565
  808loPI   C4A11574   1.644  14.237   7.642  0.0425  0.0631  0.2137
  808loPI   C5A11575   1.818  14.109   8.028  0.2402 -0.3467  0.0185
  808loPI   C6A11576   1.854  13.977   8.499 -0.1169 -0.1029 -0.0662
  808loPI   C1B11577   1.237  14.825   6.602 -0.0731 -0.3490  0.0496
  808loPI   C2B11578   1.158  14.700   6.937  0.0206 -0.3130  0.3510
  808loPI   C3B11579   1.021  14.695   7.354  0.1162 -0.2876  0.0684
  808loPI   C4B11580   1.195  14.500   7.739 -0.1866 -0.0544 -0.1649
  809loPI    C111581   7.504  14.930   5.609  0.2172  0.0910 -0.2607
  809loPI    C211582   7.679  15.041   5.951 -0.0733 -0.3658  0.0483
  809loPI    C311583   7.895  14.865   5.665  0.1713  0.0179 -0.0108
  809loPI   PO411584   7.296  14.850   5.667  0.0263  0.0167  0.1705
  809loPI   GL111585   7.146  14.824   5.993 -0.2562 -0.1544  0.0477
  809loPI   GL211586   6.863  15.091   5.986 -0.1299 -0.2698 -0.2916
  809loPI   C1A11587   7.261  15.141   6.418  0.0667  0.0236  0.1648
  809loPI   C2A11588   7.537  15.372   6.743  0.0279  0.0888 -0.3271
  809loPI   C3A11589   7.503  15.622   7.060 -0.0400  0.3666  0.1566
  809loPI   C4A11590   7.654  15.873   7.408  0.1485  0.1422  0.0462
  809loPI   C5A11591   7.506  15.821   7.797  0.1868 -0.0968  0.2069
  809loPI   C6A11592   7.064  15.698   7.881  0.1544 -0.1839  0.2134
  809loPI   C1B11593   6.739  15.135   6.447 -0.0533 -0.3203  0.0404
  809loPI   C2B11594   6.851  15.020   6.815  0.2952 -0.2802 -0.2955
  809loPI   C3B11595   7.113  15.297   7.146  0.1227 -0.1544  0.4977
  809loPI   C4B11596   7.277  15.558   7.477 -0.0717  0.1891 -0.0212
  810loPI    C111597  13.794   8.523   5.631  0.0259 -0.1935 -0.0545
  810loPI    C211598  13.850   8.774   5.325 -0.2048 -0.1942 -0.0987
  810loPI    C311599  14.124   8.494   5.406  0.0395  0.0492 -0.0685
  810loPI   PO411600  13.494   8.463   5.664  0.1449 -0.0964  0.1846
  810loPI   GL111601  13.331   8.407   6.023 -0.0206  0.0231  0.1385
  810loPI   GL211602  13.743   8.343   6.126 -0.1454  0.2529  0.1105
  810loPI   C1A11603  13.336   8.369   6.522 -0.1120 -0.0319  0.0640
  810loPI   C2A11604  13.290   8.355   6.946  0.3686 -0.0116 -0.1057
  810loPI   C3A11605  13.299   8.235   7.442 -0.1289 -0.1341  0.0050
  810loPI   C4A11606  13.041   8.176   7.685 -0.0056  0.0363  0.0467
  810loPI   C5A11607  12.826   7.961   8.039 -0.2003 -0.1208  0.0648
  810loPI   C6A11608  12.481   7.603   8.022 -0.0084 -0.0979 -0.2188
  810loPI   C1B11609  13.781   8.590   6.484 -0.2007  0.2223 -0.2430
  810loPI   C2B11610  13.904   8.535   6.891  0.1128 -0.1255  0.0586
  810loPI   C3B11611  13.730   8.533   7.350 -0.2817  0.0680  0.2960
  810loPI   C4B11612  14.091   8.617   7.604  0.0813  0.3404 -0.4244
  811loPI    C111613   0.027   5.935   5.669 -0.1231 -0.0211  0.1405
  811loPI    C211614  -0.097   6.299   5.778  0.0060  0.0543  0.0393
  811loPI    C311615   0.075   6.245   5.421  0.0608 -0.0909  0.0868
  811loPI   PO411616  -0.172   5.762   5.755  0.0874 -0.0700  0.0438
  811loPI   GL111617  -0.399   5.537   5.950 -0.0090 -0.1225 -0.2685
  811loPI   GL211618  -0.517   5.225   5.745  0.0448 -0.0941  0.2732
  811loPI   C1A11619  -0.381   5.570   6.412  0.1707 -0.2666  0.0324
  811loPI   C2A11620  -0.558   5.418   6.874  0.1572 -0.4203  0.2952
  811loPI   C3A11621  -0.554   5.380   7.376  0.0913  0.0718  0.1114
  811loPI   C4A11622  -0.932   5.232   7.636 -0.1088 -0.2241  0.2852
  811loPI   C5A11623  -0.925   4.800   7.753 -0.2496 -0.1110  0.3479
  811loPI   C6A11624  -1.329   4.616   8.015  0.2294  0.2139  0.0618
  811loPI   C1B11625  -0.453   5.063   6.214 -0.1598  0.2755 -0.2285
  811loPI   C2B11626  -0.369   5.031   6.643 -0.2751  0.1395  0.3957
  811loPI   C3B11627  -0.217   5.088   7.115  0.2810 -0.1064  0.0240
  811loPI   C4B11628  -0.139   5.171   7.492 -0.2158  0.0247 -0.2611
  812loPI    C111629   6.703   1.957   4.992 -0.1832  0.0615  0.1166
  812loPI    C211630   7.049   1.868   4.812 -0.2053  0.0483  0.0805
  812loPI    C311631   6.797   2.130   4.645 -0.1984  0.0821  0.1227
  812loPI   PO411632   6.653   1.682   5.137  0.0991  0.0201  0.0052
  812loPI   GL111633   6.688   1.654   5.572 -0.0407 -0.1287  0.0149
  812loPI   GL211634   6.696   1.978   5.612  0.1637 -0.4238  0.2695
  812loPI   C1A11635   6.774   1.638   6.036  0.2544  0.1258 -0.0169
  812loPI   C2A11636   7.117   1.743   6.422  0.0233  0.0708 -0.3405
  812loPI   C3A11637   7.319   1.731   6.796 -0.2207  0.1127 -0.3002
  812loPI   C4A11638   7.452   1.675   7.222  0.0930 -0.0628  0.1980
  812loPI   C5A11639   7.605   1.634   7.702  0.2952 -0.0069 -0.4156
  812loPI   C6A11640   7.861   1.762   7.983 -0.0132  0.0409 -0.2100
  812loPI   C1B11641   6.671   2.143   6.009  0.0846 -0.2203 -0.2993
  812loPI   C2B11642   6.639   1.973   6.408 -0.1134 -0.3005 -0.0230
  812loPI   C3B11643   6.797   1.840   6.770  0.1067 -0.0340 -0.1970
  812loPI   C4B11644   6.979   1.863   7.163 -0.0634 -0.1440 -0.0802
  813loPI    C111645   1.528   6.646   5.596  0.1846  0.0203 -0.1087
  813loPI    C211646   1.300   6.367   5.420 -0.2759  0.2040  0.1778
  813loPI    C311647   1.488   6.642   5.198 -0.3576  0.0687 -0.0620
  813loPI   PO411648   1.381   6.816   5.823 -0.1323 -0.0788  0.2592
  813loPI   GL111649   1.327   6.958   6.229  0.0131  0.0901 -0.4622
  813loPI   GL211650   0.911   6.989   6.278 -0.1960 -0.3689 -0.2801
  813loPI   C1A11651   1.235   7.023   6.653 -0.0467 -0.1076 -0.0783
  813loPI   C2A11652   1.152   7.008   7.016  0.2326  0.0034 -0.0144
  813loPI   C3A11653   0.956   7.054   7.458 -0.0557 -0.1857  0.0762
  813loPI   C4A11654   0.713   7.206   7.829 -0.1780  0.1754 -0.4166
  813loPI   C5A11655   0.626   7.708   8.007  0.3991  0.0953  0.2911
  813loPI   C6A11656   0.739   8.012   8.232  0.0110  0.0935 -0.0641
  813loPI   C1B11657   0.715   6.939   6.702 -0.0678 -0.0525  0.0303
  813loPI   C2B11658   0.411   7.075   6.984 -0.0386 -0.5211 -0.1947
  813loPI   C3B11659   0.431   7.116   7.305 -0.0068 -0.1881  0.1258
  813loPI   C4B11660   0.127   7.199   7.762 -0.1105 -0.0675 -0.0829
  814loPI    C111661   0.892   5.918   5.482  0.3715 -0.0515 -0.0069
  814loPI    C211662   0.810   6.242   5.263  0.2434 -0.0007  0.1145
  814loPI    C311663   0.512   6.018   5.408  0.3297 -0.1041  0.1328
  814loPI   PO411664   1.039   5.993   5.726  0.5056 -0.0691 -0.2362
  814loPI   GL111665   0.943   5.759   6.101  0.1798 -0.1877 -0.0611
  814loPI   GL211666   0.758   5.874   6.277 -0.0894  0.0392 -0.4682
  814loPI   C1A11667   0.938   5.395   6.429  0.0627 -0.0254 -0.0396
  814loPI   C2A11668   1.047   5.442   6.837 -0.3901 -0.0101 -0.1194
  814loPI   C3A11669   1.091   5.519   7.199 -0.2266 -0.2219  0.1791
  814loPI   C4A11670   1.052   5.810   7.595 -0.1607 -0.2471 -0.0381
  814loPI   C5A11671   1.206   5.525   7.873  0.0480  0.3515  0.1317
  814loPI   C6A11672   1.449   5.373   8.158 -0.3709  0.3431  0.1362
  814loPI   C1B11673   0.874   5.839   6.702 -0.2436  0.0229  0.1621
  814loPI   C2B11674   0.868   5.919   7.126  0.0572 -0.0317 -0.0507
  814loPI   C3B11675   0.751   6.187   7.465  0.0218 -0.0094  0.0703
  814loPI   C4B11676   0.730   6.315   7.871  0.4458 -0.2342  0.1724
  815loPI    C111677   5.566  13.112   5.436 -0.0350  0.0376  0.1269
  815loPI    C211678   5.328  13.406   5.306  0.0060  0.0171  0.0034
  815loPI    C311679   5.542  13.193   5.045 -0.0554 -0.1509  0.0886
  815loPI   PO411680   5.465  12.914   5.607 -0.0114  0.0208  0.1488
  815loPI   GL111681   5.508  12.971   5.996 -0.2188 -0.1881  0.2674
  815loPI   GL211682   5.550  13.261   6.066  0.0370  0.1610 -0.2112
  815loPI   C1A11683   5.866  12.986   6.350 -0.0861  0.0321 -0.0809
  815loPI   C2A11684   5.891  13.200   6.688  0.2972  0.0843 -0.0171
  815loPI   C3A11685   5.990  13.120   7.185  0.3670  0.0080  0.0830
  815loPI   C4A11686   6.145  12.988   7.641 -0.1454  0.0798 -0.1340
  815loPI   C5A11687   6.374  12.621   7.813 -0.1610 -0.1989 -0.1094
  815loPI   C6A11688   6.797  12.511   7.912 -0.0301  0.0273  0.1077
  815loPI   C1B11689   5.412  13.301   6.586 -0.4640  0.0665  0.1389
  815loPI   C2B11690   5.448  13.227   6.965  0.0092  0.0476  0.1790
  815loPI   C3B11691   5.419  13.045   7.295 -0.0704  0.0321 -0.0395
  815loPI   C4B11692   5.307  12.789   7.729 -0.0676 -0.2175 -0.2206
  816loPI    C111693  10.390  18.101   5.546  0.2432  0.0236 -0.0915
  816loPI    C211694  10.232  17.866   5.264 -0.0407  0.1084 -0.0063
  816loPI    C311695  10.426  18.200   5.160  0.0161  0.0442 -0.1084
  816loPI   PO411696  10.297  17.948   5.761 -0.0174 -0.2651 -0.0345
  816loPI   GL111697  10.431  17.745   6.161 -0.0340 -0.3720  0.0734
  816loPI   GL211698  10.700  17.758   6.299  0.0663 -0.1447 -0.3923
  816loPI   C1A11699  10.294  17.841   6.613 -0.0485 -0.1657 -0.1021
  816loPI   C2A11700  10.173  17.845   6.914 -0.0037  0.0359 -0.2038
  816loPI   C3A11701   9.998  17.849   7.333  0.0255  0.1696 -0.1356
  816loPI   C4A11702  10.000  17.839   7.772  0.2044  0.2399  0.2002
  816loPI   C5A11703  10.243  17.898   8.107  0.3833  0.1112  0.2097
  816loPI   C6A11704  10.611  18.007   7.976 -0.0459 -0.0125 -0.0647
  816loPI   C1B11705  10.744  17.605   6.651  0.0013 -0.1383  0.0876
  816loPI   C2B11706  10.719  17.550   7.151 -0.2179 -0.0747  0.3242
  816loPI   C3B11707  10.732  17.341   7.503 -0.4540  0.1060  0.3750
  816loPI   C4B11708  10.518  17.523   7.952  0.1576 -0.1447  0.3692
  817loPI    C111709   6.615   9.040   5.793 -0.2754  0.0864  0.1631
  817loPI    C211710   6.618   8.739   5.529  0.2074 -0.0179  0.2782
  817loPI    C311711   6.738   9.104   5.418 -0.3040  0.1215  0.1597
  817loPI   PO411712   6.478   8.906   5.973 -0.1621 -0.0509  0.1997
  817loPI   GL111713   6.436   8.693   6.278 -0.0633 -0.1503  0.0204
  817loPI   GL211714   6.615   8.483   6.316  0.1388  0.2355  0.0331
  817loPI   C1A11715   6.271   8.741   6.680  0.1292  0.1239  0.2295
  817loPI   C2A11716   6.350   8.573   7.070 -0.1543  0.1533 -0.1048
  817loPI   C3A11717   6.427   8.362   7.486 -0.2260  0.2748 -0.2645
  817loPI   C4A11718   6.590   8.332   7.908  0.0590  0.2061  0.0725
  817loPI   C5A11719   6.823   8.548   8.233  0.1294 -0.0400 -0.0006
  817loPI   C6A11720   6.752   8.684   8.569 -0.1104 -0.1212  0.1314
  817loPI   C1B11721   6.673   8.386   6.762 -0.3068 -0.1215 -0.2778
  817loPI   C2B11722   6.770   8.108   7.065 -0.2515  0.0167 -0.0857
  817loPI   C3B11723   6.938   8.245   7.446  0.0355  0.1640  0.1525
  817loPI   C4B11724   7.148   8.469   7.757  0.1183 -0.0224  0.0945
  818loPI    C111725   2.607  13.998   5.708 -0.0630  0.0253  0.1492
  818loPI    C211726   2.365  14.093   5.404 -0.0673  0.3562  0.2531
  818loPI    C311727   2.675  13.848   5.343 -0.3626  0.0123  0.0959
  818loPI   PO411728   2.463  13.934   5.885 -0.0304  0.1920  0.1596
  818loPI   GL111729   2.149  13.584   6.090  0.1983  0.1319  0.2778
  818loPI   GL211730   1.840  13.571   6.073 -0.0462  0.0422  0.3691
  818loPI   C1A11731   2.187  13.783   6.524 -0.1931 -0.1183 -0.3987
  818loPI   C2A11732   2.345  13.928   6.966  0.0023  0.1481 -0.1882
  818loPI   C3A11733   2.383  13.974   7.419 -0.1532  0.0724  0.1664
  818loPI   C4A11734   2.441  13.811   7.861 -0.2362 -0.2422 -0.0071
  818loPI   C5A11735   2.477  13.859   8.351  0.0335  0.0039  0.1202
  818loPI   C6A11736   2.283  13.693   8.771  0.1229  0.2118  0.2937
  818loPI   C1B11737   1.751  13.452   6.513 -0.0701 -0.0080  0.1560
  818loPI   C2B11738   1.682  13.330   6.903  0.1839  0.2345 -0.1622
  818loPI   C3B11739   1.698  13.125   7.237 -0.1091  0.0718 -0.1306
  818loPI   C4B11740   1.716  12.887   7.646 -0.2477  0.1508 -0.1157
  819loPI    C111741   8.845   3.070   5.190 -0.1557 -0.0341 -0.0944
  819loPI    C211742   9.150   3.059   4.931 -0.1210  0.0603 -0.0578
  819loPI    C311743   8.821   2.844   4.861 -0.0581 -0.0186 -0.1127
  819loPI   PO411744   8.893   2.967   5.401  0.0738 -0.1539 -0.0385
  819loPI   GL111745   8.696   2.678   5.675 -0.0064  0.1498 -0.0964
  819loPI   GL211746   8.436   2.486   5.752 -0.2693  0.3034 -0.1245
  819loPI   C1A11747   8.916   2.792   6.061 -0.0101 -0.3303  0.3804
  819loPI   C2A11748   8.898   2.923   6.422  0.0222  0.0012 -0.0705
  819loPI   C3A11749   8.758   2.941   6.831 -0.0000 -0.0647 -0.1806
  819loPI   C4A11750   8.778   3.138   7.295  0.0768  0.1871  0.3592
  819loPI   C5A11751   8.988   3.311   7.669 -0.2072  0.0159  0.2754
  819loPI   C6A11752   8.767   3.070   8.000  0.0853 -0.0015  0.1845
  819loPI   C1B11753   8.504   2.489   6.207 -0.0374  0.0889 -0.0674
  819loPI   C2B11754   8.500   2.546   6.639 -0.0451  0.1670  0.2572
  819loPI   C3B11755   8.429   2.716   7.163 -0.2140  0.1065 -0.2978
  819loPI   C4B11756   8.422   2.894   7.539  0.0278 -0.0975 -0.0126
  820loPI    C111757   8.345  17.241   4.959 -0.0126 -0.3053  0.0607
  820loPI    C211758   8.527  17.362   4.623  0.0097  0.0115  0.1837
  820loPI    C311759   8.295  17.036   4.619  0.0855 -0.0413 -0.1164
  820loPI   PO411760   8.453  17.388   5.186 -0.0457  0.0882  0.0042
  820loPI   GL111761   8.509  17.315   5.658 -0.0633 -0.1797 -0.0179
  820loPI   GL211762   8.517  17.144   5.801  0.0621  0.1003  0.1575
  820loPI   C1A11763   8.634  17.540   6.102 -0.2587 -0.0348 -0.0217
  820loPI   C2A11764   8.620  17.640   6.553  0.2120 -0.1717  0.1877
  820loPI   C3A11765   8.711  17.856   7.001  0.0459  0.0472 -0.1515
  820loPI   C4A11766   8.675  17.903   7.437 -0.0223  0.0877 -0.1731
  820loPI   C5A11767   8.634  17.813   7.843 -0.1942 -0.1157 -0.1771
  820loPI   C6A11768   8.642  18.005   8.248 -0.0003 -0.0580 -0.0905
  820loPI   C1B11769   8.528  16.986   6.327 -0.0596 -0.1067  0.4944
  820loPI   C2B11770   8.508  17.048   6.789  0.2086 -0.2401 -0.0272
  820loPI   C3B11771   8.421  17.074   7.182 -0.2256 -0.1983 -0.0400
  820loPI   C4B11772   8.627  17.000   7.666  0.1304  0.1693  0.0698
  821loPI    C111773   7.850  15.223   5.331 -0.1143  0.0820 -0.0551
  821loPI    C211774   8.205  15.319   5.487 -0.0827  0.1670 -0.1777
  821loPI    C311775   8.163  14.978   5.282 -0.1021  0.0987 -0.0609
  821loPI   PO411776   7.711  15.401   5.511  0.2316 -0.1533 -0.1337
  821loPI   GL111777   7.843  15.669   5.890  0.0886  0.0610  0.1808
  821loPI   GL211778   8.114  15.712   6.148  0.0130  0.1276  0.3030
  821loPI   C1A11779   7.642  15.516   6.281  0.0221  0.0559 -0.1796
  821loPI   C2A11780   7.965  15.308   6.504  0.1583  0.0983 -0.0299
  821loPI   C3A11781   7.982  15.282   6.986 -0.0190  0.1685 -0.1084
  821loPI   C4A11782   7.922  15.372   7.487  0.2346  0.0472  0.0067
  821loPI   C5A11783   7.861  15.521   7.916  0.2114 -0.0040  0.0145
  821loPI   C6A11784   7.872  15.972   8.143  0.1962  0.1420 -0.1038
  821loPI   C1B11785   7.989  15.773   6.632 -0.1602  0.0710  0.0817
  821loPI   C2B11786   8.085  15.800   7.119 -0.0303 -0.1803 -0.0687
  821loPI   C3B11787   8.226  15.700   7.541  0.0011 -0.3100  0.4142
  821loPI   C4B11788   8.519  15.491   7.892  0.2682  0.0512 -0.2061
  822loPI    C111789   5.457  17.876   5.174 -0.3391  0.0021 -0.2600
  822loPI    C211790   5.351  17.546   5.375 -0.0236  0.0378 -0.0280
  822loPI    C311791   5.703  17.560   5.184 -0.0879  0.1978 -0.1369
  822loPI   PO411792   5.415  18.049   5.376  0.0727  0.1974 -0.1308
  822loPI   GL111793   5.567  18.282   5.747 -0.0319 -0.0216 -0.4922
  822loPI   GL211794   5.166  18.288   5.800 -0.0877  0.1582 -0.1532
  822loPI   C1A11795   5.719  18.124   6.096  0.0588  0.2377 -0.0393
  822loPI   C2A11796   5.803  18.286   6.493  0.0649 -0.0551 -0.1281
  822loPI   C3A11797   5.665  18.203   6.891  0.2292  0.2765  0.3243
  822loPI   C4A11798   5.485  18.392   7.237 -0.2260 -0.1913 -0.1948
  822loPI   C5A11799   5.528  18.734   7.493  0.0541 -0.0044 -0.1475
  822loPI   C6A11800   5.422  19.053   7.675  0.1188 -0.0849  0.1405
  822loPI   C1B11801   5.328  18.366   6.235 -0.2036  0.2708  0.0425
  822loPI   C2B11802   5.365  18.469   6.629 -0.1203  0.3663 -0.0849
  822loPI   C3B11803   5.199  18.694   6.987 -0.1889  0.2082  0.1250
  822loPI   C4B11804   5.285  19.064   7.196  0.2401 -0.1510 -0.0664
  823loPI    C111805   8.754   3.941   5.187 -0.1416 -0.1118 -0.1547
  823loPI    C211806   8.763   3.922   4.788  0.0446  0.1196 -0.1637
  823loPI    C311807   9.033   4.142   4.984 -0.1261  0.1131  0.0838
  823loPI   PO411808   8.814   3.684   5.295 -0.1578 -0.2992  0.1543
  823loPI   GL111809   8.917   3.670   5.646 -0.0220  0.1064  0.0766
  823loPI   GL211810   8.854   3.338   5.730 -0.2744 -0.1400 -0.3829
  823loPI   C1A11811   9.200   3.897   5.929 -0.3082  0.0776 -0.0942
  823loPI   C2A11812   9.155   3.897   6.375 -0.1979  0.0571  0.1955
  823loPI   C3A11813   9.143   3.915   6.846 -0.2590 -0.1475  0.1890
  823loPI   C4A11814   9.164   4.050   7.266 -0.0023  0.2272 -0.2456
  823loPI   C5A11815   9.001   4.293   7.591 -0.0890 -0.0350 -0.2043
  823loPI   C6A11816   8.932   4.316   8.005  0.0209  0.0541 -0.1111
  823loPI   C1B11817   8.777   3.595   6.141 -0.3464 -0.1420 -0.3104
  823loPI   C2B11818   8.743   3.693   6.606 -0.0781  0.2692  0.0057
  823loPI   C3B11819   8.784   3.554   7.018  0.2520 -0.0179  0.0856
  823loPI   C4B11820   8.761   3.668   7.401 -0.5435  0.0170 -0.0945
  824loPI    C111821   4.234  15.704   5.507  0.0515 -0.1126  0.3788
  824loPI    C211822   4.597  15.537   5.531  0.2062  0.1469 -0.0434
  824loPI    C311823   4.358  15.452   5.222 -0.0255  0.1125  0.1422
  824loPI   PO411824   4.116  15.656   5.675  0.1706 -0.1345 -0.2536
  824loPI   GL111825   4.190  15.752   6.144 -0.1561  0.2328  0.0396
  824loPI   GL211826   4.387  16.066   6.343 -0.1253  0.0562 -0.2815
  824loPI   C1A11827   4.094  15.452   6.514 -0.1439 -0.0263 -0.1633
  824loPI   C2A11828   4.082  15.519   7.011  0.1433 -0.0653 -0.1743
  824loPI   C3A11829   4.302  15.502   7.408  0.1102  0.1044 -0.1682
  824loPI   C4A11830   4.465  15.523   7.783  0.1197  0.2349 -0.2569
  824loPI   C5A11831   4.799  15.653   8.010  0.1907  0.1861 -0.2308
  824loPI   C6A11832   4.738  16.021   8.223 -0.1757  0.0251 -0.0096
  824loPI   C1B11833   4.390  15.804   6.697  0.1465  0.1696 -0.0655
  824loPI   C2B11834   4.548  15.839   7.091  0.2208  0.0097 -0.1321
  824loPI   C3B11835   4.473  15.948   7.540  0.0446 -0.3071 -0.1178
  824loPI   C4B11836   4.274  15.924   8.027  0.1223 -0.0828  0.0074
  825loPI    C111837  16.011  12.495   5.984 -0.1369 -0.1544 -0.0039
  825loPI    C211838  16.108  12.209   5.723  0.1033 -0.0716 -0.0072
  825loPI    C311839  15.936  12.546   5.594  0.0192 -0.1233 -0.0306
  825loPI   PO411840  15.934  12.339   6.203 -0.4340 -0.3441 -0.0847
  825loPI   GL111841  16.168  12.361   6.544  0.2707 -0.1333  0.0486
  825loPI   GL211842  16.367  12.559   6.413 -0.1358 -0.1638  0.0330
  825loPI   C1A11843  15.841  12.080   6.849  0.0021 -0.1489 -0.1494
  825loPI   C2A11844  15.545  12.210   7.182 -0.2852 -0.2554  0.5190
  825loPI   C3A11845  15.605  12.552   7.498  0.0824  0.1261 -0.0107
  825loPI   C4A11846  15.454  12.868   7.714 -0.3328 -0.1044  0.2798
  825loPI   C5A11847  15.197  13.147   7.936 -0.1477  0.1323  0.1753
  825loPI   C6A11848  15.269  13.497   8.224 -0.0718  0.0973  0.2797
  825loPI   C1B11849  16.218  12.793   6.761  0.1380 -0.0496  0.2675
  825loPI   C2B11850  16.208  12.483   7.107 -0.0692  0.1387  0.0007
  825loPI   C3B11851  16.086  12.516   7.607  0.0625 -0.2141  0.0547
  825loPI   C4B11852  16.158  12.473   8.017 -0.1132  0.1236  0.0287
  826loPI    C111853  13.356  12.213   5.663 -0.1277 -0.1516  0.0910
  826loPI    C211854  12.971  12.166   5.565 -0.0485 -0.3083 -0.1534
  826loPI    C311855  13.228  12.319   5.299 -0.0072  0.1270  0.1272
  826loPI   PO411856  13.363  12.378   5.882 -0.0901 -0.1617  0.1705
  826loPI   GL111857  13.106  12.342   6.200  0.1377 -0.3365 -0.2163
  826loPI   GL211858  12.974  12.099   6.097  0.3020  0.0164 -0.3363
  826loPI   C1A11859  12.979  12.393   6.582 -0.3308 -0.1684 -0.0764
  826loPI   C2A11860  12.997  12.308   7.040 -0.2031 -0.0283 -0.0130
  826loPI   C3A11861  12.856  12.480   7.462 -0.2006 -0.0803  0.0093
  826loPI   C4A11862  13.195  12.579   7.882  0.2834 -0.0219 -0.1142
  826loPI   C5A11863  13.445  12.601   8.239 -0.0926  0.0414 -0.0802
  826loPI   C6A11864  13.714  12.934   8.546  0.1061 -0.4417 -0.1091
  826loPI   C1B11865  12.820  11.918   6.447 -0.0304  0.1514 -0.1608
  826loPI   C2B11866  12.839  11.858   6.864  0.1398 -0.0195  0.0637
  826loPI   C3B11867  12.678  11.696   7.262  0.3062 -0.0543 -0.0479
  826loPI   C4B11868  12.691  11.706   7.758 -0.1254  0.0616 -0.0685
  827loPI    C111869  12.315  12.755   5.478 -0.1364 -0.0322  0.1024
  827loPI    C211870  12.466  13.047   5.251 -0.0091 -0.2205 -0.0584
  827loPI    C311871  12.260  12.748   5.082 -0.2287 -0.1710  0.1167
  827loPI   PO411872  12.448  12.834   5.754 -0.3434 -0.2744  0.2065
  827loPI   GL111873  12.338  12.825   6.184  0.0476  0.3749  0.1808
  827loPI   GL211874  12.023  12.626   6.251  0.2317  0.1253 -0.0190
  827loPI   C1A11875  12.391  12.699   6.547  0.3970 -0.1001  0.1631
  827loPI   C2A11876  12.049  12.560   6.827 -0.2403 -0.3778  0.1524
  827loPI   C3A11877  11.686  12.237   6.937  0.1876 -0.2116  0.0847
  827loPI   C4A11878  11.479  12.183   7.346 -0.0495  0.0903 -0.1119
  827loPI   C5A11879  11.487  12.031   7.715  0.3895 -0.4150 -0.0757
  827loPI   C6A11880  11.618  12.134   8.135  0.0665  0.2768 -0.3175
  827loPI   C1B11881  11.878  12.260   6.336 -0.0172  0.2595 -0.0002
  827loPI   C2B11882  11.502  12.029   6.501 -0.1520 -0.2627  0.2338
  827loPI   C3B11883  11.326  11.861   6.876  0.2783 -0.0230 -0.1141
  827loPI   C4B11884  11.272  11.718   7.335  0.1586 -0.0321 -0.0952
  828loPI    C111885   0.088  17.880   5.976  0.0511 -0.0355  0.1981
  828loPI    C211886   0.122  18.132   5.667 -0.0347  0.1214  0.3160
  828loPI    C311887   0.127  17.737   5.604  0.3230  0.1487  0.1534
  828loPI   PO411888  -0.077  18.075   6.164  0.1175 -0.2271 -0.0622
  828loPI   GL111889   0.105  18.284   6.488 -0.3757  0.0257  0.1338
  828loPI   GL211890  -0.167  18.335   6.596 -0.0032 -0.0977 -0.1300
  828loPI   C1A11891   0.309  18.111   6.847 -0.0211  0.2282  0.0307
  828loPI   C2A11892   0.358  18.233   7.249  0.0648  0.3323  0.0554
  828loPI   C3A11893   0.359  18.267   7.676 -0.0025 -0.0106  0.1162
  828loPI   C4A11894   0.494  18.352   8.048  0.2420 -0.2948 -0.0901
  828loPI   C5A11895   0.520  18.358   8.510  0.0159  0.2228  0.2189
  828loPI   C6A11896   0.354  18.563   9.038 -0.1455 -0.2034 -0.0349
  828loPI   C1B11897  -0.098  18.366   6.985 -0.1946  0.1092 -0.2017
  828loPI   C2B11898  -0.052  18.471   7.382  0.0706 -0.1108  0.1717
  828loPI   C3B11899  -0.267  18.443   7.785 -0.0716  0.0461 -0.0219
  828loPI   C4B11900  -0.386  18.205   8.198  0.0901  0.0970  0.2931
  829loPI    C111901  16.679  15.584   5.831  0.1593  0.0605  0.1204
  829loPI    C211902  16.997  15.397   5.985  0.0195 -0.1790  0.1230
  829loPI    C311903  16.908  15.354   5.598  0.3712  0.4229 -0.0371
  829loPI   PO411904  16.609  15.790   6.128  0.1968  0.1218 -0.1903
  829loPI   GL111905  16.559  15.841   6.494  0.0350 -0.0243 -0.2991
  829loPI   GL211906  16.176  15.626   6.389  0.1442 -0.1109  0.0868
  829loPI   C1A11907  16.701  15.931   6.911 -0.0804  0.1618 -0.3191
  829loPI   C2A11908  16.759  16.113   7.243 -0.1303  0.2342  0.0229
  829loPI   C3A11909  16.812  16.429   7.561 -0.0657 -0.0454 -0.0808
  829loPI   C4A11910  16.985  16.461   7.995  0.1544  0.1159  0.1495
  829loPI   C5A11911  16.748  16.413   8.403  0.0597 -0.0818 -0.1126
  829loPI   C6A11912  16.591  16.683   8.668 -0.2366 -0.0208 -0.0974
  829loPI   C1B11913  16.326  15.562   6.786 -0.2193 -0.0750 -0.1800
  829loPI   C2B11914  16.435  15.651   7.308  0.1099  0.0437  0.0194
  829loPI   C3B11915  16.649  15.754   7.617  0.1557 -0.0976 -0.0737
  829loPI   C4B11916  16.591  16.112   7.954 -0.1392  0.2034 -0.0067
  830loPI    C111917   5.081   4.087   5.095 -0.1944 -0.0492 -0.0918
  830loPI    C211918   5.315   4.410   5.060  0.0031 -0.1909 -0.1008
  830loPI    C311919   4.926   4.433   4.966  0.0488  0.0032 -0.2516
  830loPI   PO411920   5.148   3.934   5.358 -0.0623 -0.1639 -0.2010
  830loPI   GL111921   4.930   3.741   5.687  0.2246  0.0093 -0.0144
  830loPI   GL211922   4.711   4.025   5.766  0.0276  0.0702  0.2650
  830loPI   C1A11923   5.013   3.803   6.169 -0.2886 -0.0773 -0.2530
  830loPI   C2A11924   4.964   3.690   6.571 -0.1942 -0.0129 -0.1194
  830loPI   C3A11925   5.185   3.806   6.904 -0.1031 -0.0023  0.2056
  830loPI   C4A11926   5.216   3.808   7.395 -0.0688 -0.2182 -0.2266
  830loPI   C5A11927   5.419   3.780   7.796 -0.0341 -0.0722  0.1465
  830loPI   C6A11928   5.638   3.493   8.114 -0.0306  0.3923 -0.0705
  830loPI   C1B11929   4.610   4.063   6.248 -0.0321  0.0728 -0.0187
  830loPI   C2B11930   4.523   4.003   6.716  0.0206 -0.4019  0.0761
  830loPI   C3B11931   4.563   4.002   7.127  0.1374 -0.1795 -0.0252
  830loPI   C4B11932   4.715   3.694   7.214 -0.1037  0.0831 -0.3637
  831loPI    C111933  11.845  16.801   5.813  0.1033 -0.0042 -0.2082
  831loPI    C211934  11.604  16.726   5.503 -0.1425 -0.1266  0.0087
  831loPI    C311935  11.921  16.492   5.571 -0.1717 -0.1881 -0.0659
  831loPI   PO411936  11.798  17.096   5.778  0.2237  0.0355 -0.1103
  831loPI   GL111937  11.853  17.289   6.222  0.3943 -0.0179 -0.2626
  831loPI   GL211938  12.008  17.538   6.230  0.0788  0.0993  0.0327
  831loPI   C1A11939  11.840  17.366   6.643  0.3259 -0.0398  0.0633
  831loPI   C2A11940  11.761  17.335   7.101  0.3255 -0.1696 -0.1661
  831loPI   C3A11941  11.981  17.286   7.500  0.0441  0.0039  0.0781
  831loPI   C4A11942  12.209  17.461   7.865 -0.0412  0.1593 -0.1159
  831loPI   C5A11943  12.573  17.402   8.255  0.1793 -0.3761 -0.0878
  831loPI   C6A11944  12.885  17.145   8.222 -0.0548 -0.0160  0.2550
  831loPI   C1B11945  11.598  17.760   6.430 -0.1308  0.2720 -0.2167
  831loPI   C2B11946  11.553  17.830   6.886  0.0201 -0.0050 -0.0779
  831loPI   C3B11947  11.638  17.803   7.302  0.2680  0.1437 -0.1491
  831loPI   C4B11948  11.913  17.869   7.710  0.0955  0.3834  0.1287
  832loPI    C111949  17.536   2.446   5.413 -0.1952 -0.1425 -0.1736
  832loPI    C211950  17.600   2.825   5.302 -0.1164 -0.1013  0.0076
  832loPI    C311951  17.468   2.558   5.035 -0.1264  0.0420 -0.1328
  832loPI   PO411952  17.707   2.343   5.529  0.1199  0.0826 -0.0619
  832loPI   GL111953  17.822   2.354   5.935  0.3217 -0.0762 -0.0233
  832loPI   GL211954  17.969   2.575   6.103  0.1067 -0.0806  0.3107
  832loPI   C1A11955  17.751   2.143   6.364 -0.0982 -0.1725 -0.1849
  832loPI   C2A11956  17.682   2.286   6.776 -0.0580 -0.0214  0.0925
  832loPI   C3A11957  17.692   2.308   7.175 -0.1588 -0.0210 -0.0194
  832loPI   C4A11958  17.797   2.422   7.558 -0.0785 -0.0687 -0.1611
  832loPI   C5A11959  17.860   2.081   7.924  0.0274 -0.1528 -0.3243
  832loPI   C6A11960  18.042   1.960   8.233  0.0056  0.0846 -0.2546
  832loPI   C1B11961  17.813   2.679   6.465 -0.3876 -0.1194  0.1405
  832loPI   C2B11962  17.823   2.750   6.830 -0.0137 -0.2470 -0.1238
  832loPI   C3B11963  18.002   2.816   7.164 -0.1075 -0.2811  0.0223
  832loPI   C4B11964  18.174   2.743   7.562 -0.3855  0.0775 -0.0048
  833loPI    C111965   6.816   2.606   5.076  0.1001  0.0575  0.0467
  833loPI    C211966   6.610   2.336   5.287  0.2546  0.0686  0.2141
  833loPI    C311967   6.498   2.426   4.914  0.2836 -0.3292  0.1052
  833loPI   PO411968   6.996   2.652   5.212 -0.1601 -0.1728  0.1186
  833loPI   GL111969   7.127   3.023   5.534  0.0093  0.0583  0.1822
  833loPI   GL211970   7.246   2.790   5.636  0.2126  0.1467 -0.2614
  833loPI   C1A11971   6.871   3.146   5.887 -0.2259  0.3621 -0.2390
  833loPI   C2A11972   6.809   3.160   6.345 -0.3918  0.1446 -0.3876
  833loPI   C3A11973   6.911   3.126   6.750 -0.2308  0.1690  0.1570
  833loPI   C4A11974   7.036   3.167   7.201  0.0926 -0.1620  0.0856
  833loPI   C5A11975   7.287   3.034   7.436 -0.0671  0.1851 -0.1256
  833loPI   C6A11976   7.265   3.034   7.844 -0.0324  0.1195 -0.0417
  833loPI   C1B11977   7.413   2.598   6.100  0.1285  0.3387  0.0756
  833loPI   C2B11978   7.345   2.614   6.538  0.3339 -0.2367  0.1403
  833loPI   C3B11979   7.157   2.708   6.906  0.2435  0.1712  0.4874
  833loPI   C4B11980   6.962   2.574   7.299  0.0787  0.0405  0.2194
  834loPI    C111981  17.969  17.416   5.781  0.0180 -0.0645  0.0398
  834loPI    C211982  17.773  17.092   5.651  0.0651 -0.0379 -0.0991
  834loPI    C311983  18.016  17.291   5.404 -0.0357  0.1578 -0.0417
  834loPI   PO411984  18.067  17.304   6.014  0.1706 -0.2396 -0.1703
  834loPI   GL111985  18.173  17.520   6.493 -0.0122  0.1962  0.3390
  834loPI   GL211986  17.965  17.791   6.618  0.2088  0.0235  0.0680
  834loPI   C1A11987  18.431  17.620   6.830  0.1458 -0.6520 -0.2200
  834loPI   C2A11988  18.603  17.714   7.271  0.0414  0.1068 -0.3321
  834loPI   C3A11989  18.539  17.751   7.691 -0.3627  0.4376  0.1837
  834loPI   C4A11990  18.602  17.762   8.125 -0.1711  0.0068 -0.1574
  834loPI   C5A11991  18.646  17.844   8.587  0.0855 -0.0725  0.1064
  834loPI   C6A11992  18.487  17.945   8.914 -0.3113 -0.1040  0.2623
  834loPI   C1B11993  18.080  17.899   7.055 -0.3180  0.1153  0.2600
  834loPI   C2B11994  18.145  17.991   7.473 -0.1003  0.1005 -0.1973
  834loPI   C3B11995  18.164  18.008   7.950 -0.0810 -0.4724  0.1230
  834loPI   C4B11996  18.232  18.078   8.297  0.1967  0.2858 -0.1207
  835loPI    C111997   9.078  13.649   5.394 -0.0366  0.0993 -0.1399
  835loPI    C211998   8.713  13.789   5.480 -0.0569 -0.0516  0.0258
  835loPI    C311999   8.767  13.553   5.162 -0.0545  0.1840 -0.1516
  835loPI   PO412000   9.161  13.615   5.664  0.2198  0.2462 -0.2377
  835loPI   GL112001   9.098  13.728   6.052 -0.0134 -0.3630  0.2218
  835loPI   GL212002   9.478  13.622   6.068 -0.1251 -0.0493  0.0218
  835loPI   C1A12003   9.284  13.904   6.495 -0.1655  0.0142 -0.4779
  835loPI   C2A12004   9.386  13.888   6.989  0.4365  0.1721 -0.0256
  835loPI   C3A12005   9.589  14.065   7.364  0.0147  0.0580  0.3567
  835loPI   C4A12006   9.496  13.983   7.771 -0.1792  0.1706 -0.0437
  835loPI   C5A12007   9.753  14.033   8.127 -0.1001  0.0912  0.1998
  835loPI   C6A12008  10.146  13.989   8.354  0.1416  0.1267 -0.2324
  835loPI   C1B12009   9.554  13.365   6.340 -0.0091  0.0057 -0.0751
  835loPI   C2B12010   9.691  13.022   6.468 -0.0806 -0.0092  0.2201
  835loPI   C3B12011   9.644  12.846   6.892  0.2359  0.1213 -0.0382
  835loPI   C4B12012   9.631  12.828   7.369  0.0043  0.0906  0.2237
  836loPI    C112013   9.790  10.883   5.654 -0.0295  0.0691 -0.2146
  836loPI    C212014  10.048  11.002   5.372  0.0420  0.1833 -0.1025
  836loPI    C312015   9.760  10.740   5.282  0.3470 -0.1355 -0.1715
  836loPI   PO412016   9.896  11.054   5.900  0.0214  0.1456  0.0428
  836loPI   GL112017   9.926  11.493   5.959  0.0188  0.2260 -0.1923
  836loPI   GL212018  10.289  11.428   6.024 -0.0610  0.3746 -0.0128
  836loPI   C1A12019   9.795  11.498   6.412  0.1330  0.2002  0.0290
  836loPI   C2A12020   9.770  11.393   6.921  0.0908  0.2045 -0.0246
  836loPI   C3A12021   9.786  11.359   7.386 -0.0882  0.2168 -0.1147
  836loPI   C4A12022   9.907  11.306   7.796 -0.1201 -0.3153  0.0046
  836loPI   C5A12023  10.171  11.531   8.155  0.2332 -0.1646  0.1388
  836loPI   C6A12024  10.618  11.646   8.283  0.1967  0.1566  0.2184
  836loPI   C1B12025  10.364  11.595   6.436 -0.0969 -0.0568 -0.0577
  836loPI   C2B12026  10.405  11.612   6.926  0.3695 -0.0602  0.2441
  836loPI   C3B12027  10.397  11.506   7.373  0.3179  0.1056 -0.0632
  836loPI   C4B12028  10.459  11.385   7.762 -0.1987  0.0578  0.0390
  837loPI    C112029  10.675   6.700   5.418 -0.3020  0.0674 -0.0694
  837loPI    C212030  10.899   6.382   5.326 -0.1089  0.0665  0.3766
  837loPI    C312031  10.521   6.405   5.197 -0.0301 -0.1971  0.0863
  837loPI   PO412032  10.894   6.652   5.728 -0.2267 -0.1295 -0.0807
  837loPI   GL112033  10.980   6.713   6.102  0.2063  0.1582 -0.0239
  837loPI   GL212034  11.152   6.892   6.482 -0.1225 -0.1253 -0.1507
  837loPI   C1A12035  11.342   6.499   6.330  0.0848  0.0299 -0.0407
  837loPI   C2A12036  11.457   6.386   6.727 -0.0766 -0.2633  0.2629
  837loPI   C3A12037  11.405   6.387   7.207 -0.0156  0.0460 -0.1177
  837loPI   C4A12038  11.482   6.554   7.606 -0.0958 -0.1607  0.1868
  837loPI   C5A12039  11.290   6.871   7.794 -0.1622 -0.1504 -0.1659
  837loPI   C6A12040  10.974   7.082   8.118  0.2459  0.0524  0.0243
  837loPI   C1B12041  11.159   6.786   6.895 -0.1339  0.0897  0.3125
  837loPI   C2B12042  10.988   6.680   7.338 -0.1936  0.0367 -0.0753
  837loPI   C3B12043  10.774   6.926   7.662 -0.0980  0.4309  0.2836
  837loPI   C4B12044  10.544   7.275   7.864  0.3992 -0.2137  0.0626
  838loPI    C112045  16.361   7.569   5.364 -0.3267 -0.3509 -0.2966
  838loPI    C212046  16.611   7.748   5.108 -0.1241 -0.0783  0.0819
  838loPI    C312047  16.229   7.689   5.006 -0.1128  0.2705 -0.1794
  838loPI   PO412048  16.397   7.726   5.585  0.1647 -0.0336 -0.2557
  838loPI   GL112049  16.535   7.885   5.998  0.0284 -0.2822 -0.0638
  838loPI   GL212050  16.679   7.560   6.004 -0.1848  0.1692 -0.0779
  838loPI   C1A12051  16.357   7.876   6.398 -0.0210 -0.2614  0.0796
  838loPI   C2A12052  16.298   7.821   6.817 -0.2957 -0.0127 -0.0905
  838loPI   C3A12053  16.268   7.907   7.290  0.1901 -0.2704  0.1373
  838loPI   C4A12054  16.213   8.106   7.678 -0.0717 -0.3379 -0.3159
  838loPI   C5A12055  15.899   8.066   8.019  0.1398 -0.1438  0.1074
  838loPI   C6A12056  15.713   7.836   8.402 -0.0599 -0.1780  0.2038
  838loPI   C1B12057  16.822   7.705   6.482 -0.0553  0.0093 -0.1919
  838loPI   C2B12058  16.842   7.686   6.922 -0.1625  0.2653  0.4315
  838loPI   C3B12059  16.845   7.743   7.310 -0.0090 -0.1463  0.0806
  838loPI   C4B12060  16.615   7.816   7.723 -0.1394 -0.1402  0.1915
  839loPI    C112061   5.856  11.539   5.767 -0.0032  0.0853 -0.0001
  839loPI    C212062   5.546  11.350   5.599 -0.0132  0.0118  0.0993
  839loPI    C312063   5.869  11.440   5.380 -0.0104 -0.1166  0.0502
  839loPI   PO412064   5.943  11.414   5.941 -0.1182 -0.0210 -0.3505
  839loPI   GL112065   5.960  11.437   6.383 -0.1895 -0.1150  0.3176
  839loPI   GL212066   6.236  11.329   6.373 -0.2084 -0.1830 -0.2607
  839loPI   C1A12067   5.713  11.713   6.618  0.0048  0.0786 -0.0790
  839loPI   C2A12068   5.659  11.858   7.018 -0.2132  0.0116  0.4976
  839loPI   C3A12069   5.762  12.068   7.237  0.0467  0.2458 -0.1061
  839loPI   C4A12070   5.788  12.087   7.645 -0.1752 -0.1647  0.0056
  839loPI   C5A12071   5.644  12.383   8.038 -0.0123  0.0647  0.1964
  839loPI   C6A12072   5.466  12.749   8.215  0.0230  0.2049  0.1600
  839loPI   C1B12073   6.381  11.504   6.742  0.0883 -0.0147  0.0698
  839loPI   C2B12074   6.348  11.490   7.163 -0.0856 -0.2675 -0.1693
  839loPI   C3B12075   6.262  11.367   7.617 -0.1094 -0.1591 -0.1900
  839loPI   C4B12076   6.378  11.167   8.069 -0.0662  0.0472  0.0503
  840loPI    C112077  15.297  16.561   5.964  0.1396  0.1926  0.0388
  840loPI    C212078  15.112  16.332   5.693 -0.0998  0.1223  0.2573
  840loPI    C312079  15.512  16.342   5.707 -0.0868 -0.0729  0.0713
  840loPI   PO412080  15.255  16.480   6.236  0.0319  0.4198  0.4867
  840loPI   GL112081  15.312  16.512   6.613  0.1876 -0.0098  0.2851
  840loPI   GL212082  15.665  16.504   6.532  0.1639  0.1111 -0.3822
  840loPI   C1A12083  15.299  16.407   7.042  0.0119  0.2054  0.1470
  840loPI   C2A12084  15.194  16.541   7.490  0.0652 -0.0584 -0.2500
  840loPI   C3A12085  15.171  16.629   7.802  0.0028  0.0890 -0.2018
  840loPI   C4A12086  14.952  16.735   8.067  0.1408 -0.0333 -0.0193
  840loPI   C5A12087  15.121  17.097   8.364  0.0904  0.0766  0.1111
  840loPI   C6A12088  15.431  17.368   8.497  0.0018 -0.0202 -0.0316
  840loPI   C1B12089  15.684  16.779   6.892  0.1876  0.1700  0.1274
  840loPI   C2B12090  15.732  16.798   7.382  0.0639  0.2639 -0.1859
  840loPI   C3B12091  15.757  16.702   7.760  0.3914  0.2320 -0.2206
  840loPI   C4B12092  15.765  16.390   8.184  0.0569 -0.0627  0.1949
  841loPI    C112093  13.999  10.165   5.649  0.0739 -0.2536  0.0436
  841loPI    C212094  13.914  10.262   5.271  0.0663  0.0025  0.1093
  841loPI    C312095  14.256  10.073   5.357 -0.0103 -0.2102 -0.0446
  841loPI   PO412096  13.875  10.400   5.790  0.1030 -0.0269 -0.4177
  841loPI   GL112097  13.836  10.615   6.181  0.1771  0.0411  0.2497
  841loPI   GL212098  13.912  10.880   6.027  0.2517  0.1129 -0.1257
  841loPI   C1A12099  13.903  10.596   6.601 -0.0930  0.2697 -0.0636
  841loPI   C2A12100  13.871  10.489   7.123  0.0275  0.1176 -0.0689
  841loPI   C3A12101  13.764  10.687   7.472  0.3807  0.0823 -0.1332
  841loPI   C4A12102  13.470  10.699   7.907  0.3129  0.2246  0.0009
  841loPI   C5A12103  13.136  10.645   8.312 -0.0263  0.1552  0.0932
  841loPI   C6A12104  12.721  10.490   8.330 -0.1341  0.0489  0.0443
  841loPI   C1B12105  14.282  10.929   6.301 -0.1012  0.3977 -0.1106
  841loPI   C2B12106  14.352  10.849   6.686 -0.1261 -0.1539 -0.0177
  841loPI   C3B12107  14.191  10.834   6.981 -0.0213  0.4511 -0.1332
  841loPI   C4B12108  14.255  10.973   7.488  0.2936  0.1737  0.0140
  842loPI    C112109   4.967  17.072   5.747  0.0568 -0.2622  0.1146
  842loPI    C212110   4.981  17.182   5.363  0.0441  0.0571  0.2024
  842loPI    C312111   4.644  17.029   5.515  0.0319 -0.0176  0.1015
  842loPI   PO412112   5.326  17.239   5.791 -0.0667 -0.0336 -0.2302
  842loPI   GL112113   5.492  17.326   6.212  0.2639 -0.3246 -0.2345
  842loPI   GL212114   5.754  17.407   6.154 -0.0379  0.1379 -0.0539
  842loPI   C1A12115   5.451  17.218   6.716 -0.0354  0.0834  0.1693
  842loPI   C2A12116   5.351  17.016   7.100  0.0148 -0.2132 -0.4366
  842loPI   C3A12117   5.304  16.843   7.523  0.2150  0.1533  0.1895
  842loPI   C4A12118   4.923  16.622   7.740 -0.0182  0.1654 -0.0849
  842loPI   C5A12119   4.709  16.476   8.041  0.1913  0.2002 -0.2764
  842loPI   C6A12120   4.361  16.455   8.152 -0.0968  0.1225 -0.2305
  842loPI   C1B12121   5.820  17.569   6.628  0.1908  0.1790  0.0568
  842loPI   C2B12122   5.730  17.389   7.086  0.2355 -0.1414 -0.2127
  842loPI   C3B12123   5.623  17.267   7.448  0.2576  0.2782 -0.3742
  842loPI   C4B12124   5.577  17.312   7.822  0.0018 -0.2490 -0.0400
  843loPI    C112125  10.627   5.911   5.262 -0.3588 -0.2172 -0.0309
  843loPI    C212126  10.512   5.747   4.915 -0.2538  0.0856 -0.2124
  843loPI    C312127  10.894   5.724   5.031 -0.2308  0.2319 -0.2573
  843loPI   PO412128  10.521   5.790   5.462 -0.1209  0.3618 -0.0375
  843loPI   GL112129  10.541   5.724   5.919  0.3363  0.1351  0.0242
  843loPI   GL212130  10.803   5.835   6.143  0.1016  0.3502 -0.2681
  843loPI   C1A12131  10.321   5.950   6.228  0.0095 -0.0830  0.0106
  843loPI   C2A12132  10.364   6.163   6.569 -0.1581 -0.0133  0.2745
  843loPI   C3A12133  10.417   6.236   7.031 -0.1117  0.1388 -0.1105
  843loPI   C4A12134  10.570   6.339   7.394 -0.2342  0.0503 -0.2131
  843loPI   C5A12135  10.469   6.496   7.809 -0.0800  0.0263 -0.4038
  843loPI   C6A12136  10.602   6.730   8.204  0.0608  0.1187  0.0760
  843loPI   C1B12137  10.652   5.696   6.547 -0.3217 -0.1779 -0.0060
  843loPI   C2B12138  10.510   5.766   6.974  0.2325 -0.0335 -0.2697
  843loPI   C3B12139  10.388   5.803   7.357 -0.0724 -0.1402  0.2426
  843loPI   C4B12140  10.390   5.947   7.807  0.2156 -0.0346 -0.0816
  844loPI    C112141  11.755   6.364   5.702 -0.0847 -0.1994 -0.1110
  844loPI    C212142  11.394   6.288   5.548 -0.1370  0.0722 -0.1285
  844loPI    C312143  11.434   6.562   5.836  0.0305 -0.0881  0.0029
  844loPI   PO412144  11.865   6.114   5.715  0.0522 -0.2839  0.0384
  844loPI   GL112145  11.514   6.085   6.050 -0.1658 -0.0261  0.0955
  844loPI   GL212146  11.296   5.819   6.053  0.0317  0.1200 -0.0469
  844loPI   C1A12147  11.664   6.008   6.406 -0.1330 -0.2411 -0.2968
  844loPI   C2A12148  11.630   5.882   6.764  0.2124  0.0526  0.1152
  844loPI   C3A12149  11.395   5.850   7.089 -0.0605 -0.2507  0.1488
  844loPI   C4A12150  11.441   5.992   7.552 -0.1945  0.1745 -0.0588
  844loPI   C5A12151  11.468   6.103   7.949 -0.1584 -0.1299 -0.0023
  844loPI   C6A12152  11.467   5.810   8.282 -0.2424  0.1001 -0.0956
  844loPI   C1B12153  11.157   5.921   6.439  0.2020 -0.0874 -0.1482
  844loPI   C2B12154  11.138   5.572   6.735  0.0659  0.0357 -0.2078
  844loPI   C3B12155  11.014   5.498   7.227 -0.3088  0.0830  0.1230
  844loPI   C4B12156  11.268   5.499   7.700 -0.1155  0.1206  0.4204
  845loPI    C112157  13.687  11.552   5.365  0.0759 -0.0517 -0.1628
  845loPI    C212158  13.407  11.835   5.328  0.1345 -0.0082 -0.2822
  845loPI    C312159  13.784  11.937   5.411  0.0646 -0.0842  0.1544
  845loPI   PO412160  13.553  11.406   5.563 -0.0002 -0.0415 -0.1969
  845loPI   GL112161  13.598  11.259   6.010 -0.0058 -0.1196 -0.2768
  845loPI   GL212162  13.385  11.373   6.211 -0.1608 -0.4262 -0.2430
  845loPI   C1A12163  13.838  11.210   6.408 -0.0111  0.0561 -0.0098
  845loPI   C2A12164  13.874  11.155   6.808  0.1308 -0.0701  0.0511
  845loPI   C3A12165  13.857  11.176   7.245 -0.1141 -0.1508 -0.1518
  845loPI   C4A12166  13.456  11.154   7.612  0.2571  0.0037  0.2150
  845loPI   C5A12167  13.312  11.166   8.020  0.1079 -0.3485 -0.2675
  845loPI   C6A12168  12.936  11.096   8.281 -0.0390  0.1942  0.2002
  845loPI   C1B12169  13.188  11.505   6.618 -0.3147  0.0642 -0.1329
  845loPI   C2B12170  13.110  11.508   7.112  0.1179 -0.0471 -0.1389
  845loPI   C3B12171  13.038  11.429   7.567 -0.0962  0.1647 -0.0441
  845loPI   C4B12172  12.922  11.282   7.833  0.2293 -0.0366 -0.0020
  846loPI    C112173   3.118   9.475   5.616 -0.0612 -0.1120  0.1426
  846loPI    C212174   2.865   9.344   5.336 -0.0573  0.0124  0.0799
  846loPI    C312175   3.155   9.601   5.238  0.0855 -0.1188  0.1541
  846loPI   PO412176   3.312   9.290   5.795  0.2609  0.0466 -0.1872
  846loPI   GL112177   3.457   9.264   6.160 -0.5812  0.2822 -0.1900
  846loPI   GL212178   3.768   9.038   6.224 -0.0270 -0.3323 -0.0857
  846loPI   C1A12179   3.355   9.466   6.474 -0.0643 -0.3097 -0.2416
  846loPI   C2A12180   3.450   9.569   6.798  0.0545 -0.2808 -0.1709
  846loPI   C3A12181   3.315   9.478   7.198  0.0824 -0.3289 -0.3082
  846loPI   C4A12182   3.413   9.631   7.611 -0.0022 -0.1437 -0.0983
  846loPI   C5A12183   3.665   9.909   7.848  0.2190  0.0562 -0.0465
  846loPI   C6A12184   3.756  10.242   8.189 -0.1169  0.0408  0.1971
  846loPI   C1B12185   3.713   8.678   6.492 -0.2024  0.1359  0.1988
  846loPI   C2B12186   3.544   8.662   6.862 -0.0922 -0.2219  0.0463
  846loPI   C3B12187   3.229   8.678   7.138  0.0097  0.0046 -0.1521
  846loPI   C4B12188   3.207   8.578   7.608  0.0995  0.0643  0.0051
  847loPI    C112189  14.613   8.362   5.254  0.2105 -0.1150  0.1874
  847loPI    C212190  14.672   8.056   5.004  0.0586  0.0291 -0.0290
  847loPI    C312191  14.975   8.299   5.098  0.0772  0.0794 -0.2155
  847loPI   PO412192  14.517   8.211   5.549  0.1287 -0.1108  0.1321
  847loPI   GL112193  14.655   8.072   5.896  0.0201  0.1150 -0.0344
  847loPI   GL212194  14.391   7.818   5.947  0.1639  0.2243  0.3791
  847loPI   C1A12195  14.640   8.079   6.316 -0.1235  0.0507 -0.1492
  847loPI   C2A12196  14.834   7.976   6.709  0.4248  0.0236  0.0111
  847loPI   C3A12197  14.870   7.910   7.181 -0.0517  0.0538 -0.0636
  847loPI   C4A12198  14.900   7.920   7.665  0.0447 -0.1463  0.1992
  847loPI   C5A12199  14.723   7.965   7.990  0.1132  0.0140 -0.0886
  847loPI   C6A12200  14.630   7.933   8.426 -0.2484  0.0395 -0.0105
  847loPI   C1B12201  14.434   7.576   6.302 -0.0221 -0.1167 -0.0666
  847loPI   C2B12202  14.483   7.627   6.729 -0.2367  0.1522 -0.1138
  847loPI   C3B12203  14.484   7.642   7.253 -0.0879  0.0488  0.0169
  847loPI   C4B12204  14.486   7.616   7.703  0.1640  0.1625 -0.0605
  848loPI    C112205   8.417  12.657   5.587 -0.0693  0.0541 -0.3981
  848loPI    C212206   8.135  12.524   5.336 -0.1358 -0.2763 -0.1541
  848loPI    C312207   8.522  12.459   5.256 -0.1381 -0.0459 -0.3606
  848loPI   PO412208   8.336  12.847   5.661 -0.1619  0.0243 -0.0912
  848loPI   GL112209   8.541  12.985   6.059  0.0843  0.0554  0.1640
  848loPI   GL212210   8.737  12.782   6.024 -0.1586 -0.0136 -0.1098
  848loPI   C1A12211   8.737  12.905   6.486 -0.0029 -0.2582  0.0019
  848loPI   C2A12212   8.804  12.922   6.991 -0.1854 -0.2173  0.1752
  848loPI   C3A12213   8.772  13.201   7.428 -0.2099 -0.1733 -0.2624
  848loPI   C4A12214   8.506  13.329   7.753  0.0492 -0.1117 -0.4622
  848loPI   C5A12215   8.050  13.332   7.771 -0.1183 -0.0111  0.1241
  848loPI   C6A12216   7.678  13.132   7.987  0.0674 -0.2067 -0.2221
  848loPI   C1B12217   8.818  12.451   6.200  0.3535  0.2192 -0.3936
  848loPI   C2B12218   8.761  12.435   6.688 -0.1644 -0.0747  0.2568
  848loPI   C3B12219   8.694  12.429   7.121 -0.2243 -0.1459  0.0513
  848loPI   C4B12220   8.471  12.334   7.384  0.1168  0.0027 -0.1312
  849loPI    C112221   7.388   7.840   5.409  0.0394 -0.0339 -0.2709
  849loPI    C212222   7.493   8.091   5.116  0.0842  0.1165 -0.1272
  849loPI    C312223   7.117   7.954   5.137 -0.0613  0.5280  0.0513
  849loPI   PO412224   7.570   7.996   5.618  0.2100 -0.1967 -0.3059
  849loPI   GL112225   7.593   8.042   6.047  0.1501  0.0031  0.2446
  849loPI   GL212226   7.774   7.736   6.024  0.0865  0.0186 -0.0067
  849loPI   C1A12227   7.567   8.327   6.457  0.1925  0.1039 -0.0700
  849loPI   C2A12228   7.642   8.290   6.922 -0.1382  0.0280 -0.1628
  849loPI   C3A12229   7.669   8.356   7.393 -0.3367 -0.0805 -0.0524
  849loPI   C4A12230   7.520   8.093   7.685 -0.1526  0.0505 -0.0964
  849loPI   C5A12231   7.185   7.962   8.049  0.0373 -0.0044 -0.1957
  849loPI   C6A12232   6.749   7.767   8.130  0.1907 -0.1455  0.0051
  849loPI   C1B12233   7.506   7.770   6.450  0.1356 -0.0674  0.0133
  849loPI   C2B12234   7.723   7.777   6.872  0.1915  0.2409  0.1123
  849loPI   C3B12235   7.899   7.848   7.324  0.2070 -0.0037  0.0613
  849loPI   C4B12236   8.043   7.943   7.751  0.0434 -0.0108  0.2632
  850loPI    C112237   1.612   3.335   5.305 -0.0825 -0.3288  0.0487
  850loPI    C212238   1.696   3.331   4.914 -0.0183  0.0303  0.0552
  850loPI    C312239   1.320   3.392   5.038 -0.0827 -0.3309  0.0485
  850loPI   PO412240   1.792   3.233   5.492  0.2067 -0.0253 -0.2287
  850loPI   GL112241   1.960   3.053   5.932  0.0004  0.1573 -0.1511
  850loPI   GL212242   1.779   2.815   6.013  0.0186  0.1305  0.0412
  850loPI   C1A12243   2.034   2.797   6.407  0.2628 -0.1453 -0.2589
  850loPI   C2A12244   2.098   2.809   6.849 -0.0164  0.2889 -0.0009
  850loPI   C3A12245   1.959   2.878   7.191 -0.1986  0.2044 -0.1244
  850loPI   C4A12246   1.729   2.970   7.449 -0.1067  0.1528 -0.1550
  850loPI   C5A12247   1.426   2.718   7.733 -0.0719 -0.0382  0.0840
  850loPI   C6A12248   1.173   2.449   8.032  0.0644  0.4060 -0.1053
  850loPI   C1B12249   1.508   2.720   6.363  0.2903 -0.0937 -0.0765
  850loPI   C2B12250   1.608   2.704   6.793  0.3930  0.1531  0.0771
  850loPI   C3B12251   1.418   2.484   7.275 -0.0672  0.2537  0.1669
  850loPI   C4B12252   1.499   2.263   7.677  0.1485  0.0084  0.0165
  851loPI    C112253  15.799   1.318   5.522  0.0940  0.0005  0.1690
  851loPI    C212254  16.116   1.204   5.307  0.1291  0.1254  0.1541
  851loPI    C312255  15.813   1.396   5.130  0.0850  0.0844  0.1851
  851loPI   PO412256  15.846   1.499   5.670 -0.1923  0.0226  0.4930
  851loPI   GL112257  15.854   1.726   6.007 -0.0434 -0.0499  0.0628
  851loPI   GL212258  15.458   1.838   5.850 -0.0918 -0.0016 -0.2158
  851loPI   C1A12259  15.866   1.736   6.397  0.0992 -0.1609 -0.0220
  851loPI   C2A12260  15.696   1.747   6.752 -0.2417 -0.1954 -0.1119
  851loPI   C3A12261  15.719   1.784   7.199 -0.0334 -0.5785  0.0715
  851loPI   C4A12262  15.979   1.960   7.493  0.0331  0.3969 -0.0455
  851loPI   C5A12263  16.141   2.108   7.918  0.3364 -0.0573  0.2963
  851loPI   C6A12264  16.294   2.382   8.254  0.2550 -0.4745  0.0293
  851loPI   C1B12265  15.487   2.082   6.202 -0.0653  0.1148 -0.1540
  851loPI   C2B12266  15.728   2.248   6.537 -0.0942 -0.0668  0.2083
  851loPI   C3B12267  15.792   2.215   6.917  0.0841  0.2768  0.3567
  851loPI   C4B12268  15.842   2.416   7.370  0.0062  0.1779 -0.2005
  852loPI    C112269  13.854  16.661   6.155 -0.0121 -0.1055  0.0247
  852loPI    C212270  13.905  16.819   5.792  0.0132 -0.0113  0.0689
  852loPI    C312271  13.613  16.553   5.855  0.1814 -0.2359 -0.0853
  852loPI   PO412272  13.834  16.932   6.289 -0.1518  0.3007  0.1023
  852loPI   GL112273  13.970  17.193   6.533 -0.0229  0.1844 -0.0837
  852loPI   GL212274  13.921  17.503   6.447  0.2061  0.0546 -0.0405
  852loPI   C1A12275  13.894  17.215   6.879 -0.0531  0.2781  0.0521
  852loPI   C2A12276  13.864  17.421   7.181  0.0201 -0.0626  0.0802
  852loPI   C3A12277  13.792  17.441   7.606 -0.4798  0.0733  0.1081
  852loPI   C4A12278  13.722  17.636   8.003 -0.3429 -0.1313 -0.0976
  852loPI   C5A12279  13.811  17.861   8.422 -0.0614 -0.1549 -0.3641
  852loPI   C6A12280  13.675  18.154   8.758 -0.1335  0.0161  0.0653
  852loPI   C1B12281  13.907  17.779   6.829  0.3428 -0.0850 -0.2647
  852loPI   C2B12282  13.961  18.143   7.095 -0.1459 -0.0048 -0.1186
  852loPI   C3B12283  13.972  18.265   7.459  0.0676 -0.1252 -0.0930
  852loPI   C4B12284  13.817  18.213   7.853  0.1902 -0.1108  0.0553
  853loPI    C112285  15.721   4.567   4.815  0.2658 -0.0586  0.0791
  853loPI    C212286  15.810   4.780   5.142  0.2387 -0.0010  0.0492
  853loPI    C312287  15.582   4.940   4.855 -0.2177 -0.2513  0.2617
  853loPI   PO412288  15.719   4.262   5.010  0.0454 -0.1005 -0.0455
  853loPI   GL112289  15.788   4.225   5.426 -0.1459  0.2952  0.0253
  853loPI   GL212290  16.163   4.327   5.453  0.1785  0.1555  0.0953
  853loPI   C1A12291  15.583   4.149   5.894  0.0407 -0.3697 -0.1895
  853loPI   C2A12292  15.782   4.053   6.228 -0.0807  0.2158  0.2752
  853loPI   C3A12293  16.000   4.101   6.617  0.2002  0.1046 -0.0113
  853loPI   C4A12294  16.085   4.016   7.058  0.2183 -0.0176  0.2974
  853loPI   C5A12295  16.309   4.052   7.402 -0.0423 -0.1014 -0.0745
  853loPI   C6A12296  16.442   4.255   7.697  0.1914 -0.0188  0.0320
  853loPI   C1B12297  16.077   4.356   5.903  0.1368 -0.1813  0.0610
  853loPI   C2B12298  16.116   4.529   6.262  0.2000  0.3149 -0.1059
  853loPI   C3B12299  16.016   4.572   6.740  0.2408  0.3531 -0.0222
  853loPI   C4B12300  16.086   4.777   7.022 -0.4612  0.3743 -0.1410
  854loPI    C112301   2.755  14.794   5.466  0.1309 -0.2818  0.1636
  854loPI    C212302   2.518  14.551   5.254 -0.0276  0.1333 -0.1493
  854loPI    C312303   2.829  14.730   5.078  0.1317  0.1028  0.0964
  854loPI   PO412304   2.928  14.672   5.730  0.1781  0.1975 -0.0224
  854loPI   GL112305   2.913  14.342   6.069  0.0724 -0.2101  0.1236
  854loPI   GL212306   2.654  14.615   6.255 -0.0159 -0.0855  0.0308
  854loPI   C1A12307   3.117  14.514   6.533  0.1872  0.0904 -0.0320
  854loPI   C2A12308   3.057  14.590   6.923  0.0972  0.1337 -0.1771
  854loPI   C3A12309   2.982  14.717   7.310  0.1282 -0.3619 -0.2099
  854loPI   C4A12310   2.689  14.582   7.493 -0.1414  0.1589 -0.0405
  854loPI   C5A12311   2.560  14.302   7.847 -0.0980 -0.1196 -0.0283
  854loPI   C6A12312   2.877  13.997   8.107  0.5094 -0.0250 -0.1897
  854loPI   C1B12313   2.491  14.760   6.675  0.2528 -0.1166  0.0213
  854loPI   C2B12314   2.577  14.792   7.060 -0.1451  0.0379  0.4696
  854loPI   C3B12315   2.379  14.906   7.322  0.0435 -0.0547  0.3085
  854loPI   C4B12316   2.214  14.955   7.703  0.0469 -0.2306  0.0467
  855loPI    C112317  16.816  10.744   5.377 -0.0189  0.0310  0.0518
  855loPI    C212318  17.017  11.073   5.268  0.0846  0.0573  0.3136
  855loPI    C312319  17.021  10.748   5.033  0.1120  0.1885  0.1303
  855loPI   PO412320  16.586  10.892   5.496 -0.2060  0.0846 -0.1196
  855loPI   GL112321  16.551  10.953   5.909  0.1795  0.2279  0.4059
  855loPI   GL212322  16.342  10.659   5.875 -0.2649 -0.2747 -0.3525
  855loPI   C1A12323  16.599  10.735   6.354  0.0569 -0.0746  0.2117
  855loPI   C2A12324  16.609  10.545   6.697  0.1833 -0.0465  0.0909
  855loPI   C3A12325  16.444  10.202   6.931  0.2549 -0.2139  0.0875
  855loPI   C4A12326  16.225  10.019   7.301  0.0883  0.2060  0.2323
  855loPI   C5A12327  16.196   9.809   7.725 -0.0560 -0.0787 -0.0647
  855loPI   C6A12328  16.300   9.585   8.119 -0.2059 -0.0764 -0.1905
  855loPI   C1B12329  16.122  10.580   6.246 -0.1759  0.0552  0.1760
  855loPI   C2B12330  16.074  10.472   6.702 -0.0785  0.0298 -0.1486
  855loPI   C3B12331  15.845  10.254   7.039 -0.2550  0.4379  0.2274
  855loPI   C4B12332  15.573  10.103   7.352  0.0238  0.0993 -0.1665
  856loPI    C112333  10.110  15.956   5.679 -0.0857  0.2789 -0.0834
  856loPI    C212334   9.755  15.776   5.639  0.1237 -0.1950  0.1159
  856loPI    C312335   9.964  15.880   5.315 -0.2228  0.1532 -0.0034
  856loPI   PO412336  10.014  16.130   5.901  0.2749  0.0484 -0.0230
  856loPI   GL112337   9.535  16.180   5.883 -0.0841 -0.1233  0.0223
  856loPI   GL212338   9.368  16.476   5.836 -0.0071  0.0113  0.2169
  856loPI   C1A12339   9.441  16.229   6.271 -0.1264 -0.1503  0.1355
  856loPI   C2A12340   9.407  16.442   6.709 -0.0601 -0.3722 -0.2205
  856loPI   C3A12341   9.412  16.721   7.134  0.2142 -0.1325  0.1037
  856loPI   C4A12342   9.402  16.586   7.515 -0.0930 -0.0106  0.0305
  856loPI   C5A12343   9.345  16.701   7.891  0.2269 -0.2808 -0.0549
  856loPI   C6A12344   9.259  16.550   8.350 -0.1507  0.2105 -0.5681
  856loPI   C1B12345   9.380  16.698   6.177  0.0940  0.2849 -0.0214
  856loPI   C2B12346   9.368  16.975   6.651  0.0514 -0.0958 -0.1727
  856loPI   C3B12347   9.366  17.198   7.035 -0.4134  0.1637  0.0380
  856loPI   C4B12348   9.391  17.094   7.496  0.3743 -0.1364 -0.1829
  857loPI    C112349  13.084   1.292   5.615  0.2621 -0.1100  0.2353
  857loPI    C212350  13.239   1.586   5.837 -0.0106  0.0711  0.1911
  857loPI    C312351  13.300   1.580   5.442 -0.0847  0.1232  0.1786
  857loPI   PO412352  12.863   1.229   5.800  0.0498  0.2215 -0.1166
  857loPI   GL112353  12.550   1.051   6.067 -0.0530 -0.3230  0.0810
  857loPI   GL212354  12.809   1.148   6.257 -0.1516  0.2113 -0.1659
  857loPI   C1A12355  12.508   0.986   6.573 -0.0325 -0.1622 -0.0608
  857loPI   C2A12356  12.560   1.198   6.886 -0.0855  0.4644 -0.1759
  857loPI   C3A12357  12.651   1.389   7.275 -0.1863  0.2353 -0.0209
  857loPI   C4A12358  12.596   1.594   7.637 -0.2489  0.1536  0.0533
  857loPI   C5A12359  12.363   1.757   7.952 -0.0477  0.1103 -0.0989
  857loPI   C6A12360  12.203   1.842   8.314  0.1425  0.2350 -0.0076
  857loPI   C1B12361  13.032   1.437   6.421  0.0420  0.0193 -0.0991
  857loPI   C2B12362  12.991   1.533   6.871  0.2530 -0.2968 -0.0138
  857loPI   C3B12363  13.053   1.788   7.340  0.0554  0.2800  0.0442
  857loPI   C4B12364  13.321   1.796   7.706 -0.1079 -0.0419  0.1567
  858loPI    C112365   6.649  15.235   5.574  0.1388  0.2005 -0.1553
  858loPI    C212366   6.601  14.983   5.267 -0.0879 -0.0159  0.0525
  858loPI    C312367   6.969  15.080   5.391  0.0020 -0.1664 -0.0925
  858loPI   PO412368   6.408  15.146   5.760 -0.1458 -0.2133  0.2617
  858loPI   GL112369   6.306  15.076   6.204 -0.1742 -0.1350 -0.0508
  858loPI   GL212370   6.407  14.731   6.176  0.1616 -0.1021 -0.0180
  858loPI   C1A12371   6.285  15.039   6.635  0.0978  0.1085  0.1088
  858loPI   C2A12372   6.386  14.810   7.003  0.2748  0.1283 -0.2191
  858loPI   C3A12373   6.540  15.000   7.449 -0.1928 -0.0443  0.0392
  858loPI   C4A12374   6.245  14.874   7.745  0.1086 -0.0733  0.1162
  858loPI   C5A12375   5.952  15.110   7.827 -0.0596 -0.4572  0.1245
  858loPI   C6A12376   5.726  15.412   7.642 -0.2323  0.1494  0.1057
  858loPI   C1B12377   6.561  14.621   6.578 -0.3450 -0.1550 -0.1140
  858loPI   C2B12378   6.614  14.296   6.941  0.3642 -0.2549 -0.2067
  858loPI   C3B12379   6.543  14.383   7.239  0.3263 -0.1303 -0.1143
  858loPI   C4B12380   6.495  14.415   7.649 -0.0200 -0.0289  0.4013
  859loPI    C112381  14.885  17.993   5.499 -0.0571 -0.0545 -0.0885
  859loPI    C212382  14.754  17.619   5.445 -0.1855  0.0116 -0.2486
  859loPI    C312383  14.687  17.896   5.165  0.2096  0.0736 -0.2879
  859loPI   PO412384  14.923  17.980   5.784  0.0893  0.0647 -0.0103
  859loPI   GL112385  14.974  18.092   6.216  0.1340  0.2395 -0.0464
  859loPI   GL212386  14.803  17.809   6.420 -0.4792 -0.2096  0.0661
  859loPI   C1A12387  15.111  18.392   6.387 -0.1109 -0.1572  0.1883
  859loPI   C2A12388  15.203  18.584   6.737  0.0695  0.1494  0.0299
  859loPI   C3A12389  15.181  18.666   7.082  0.4533 -0.0995  0.0422
  859loPI   C4A12390  15.129  18.527   7.499 -0.0722  0.2565 -0.0327
  859loPI   C5A12391  14.986  18.523   7.916 -0.1540 -0.0715  0.2972
  859loPI   C6A12392  14.644  18.682   8.138  0.0813 -0.0498 -0.2694
  859loPI   C1B12393  14.766  17.725   6.790 -0.2187  0.2264 -0.2512
  859loPI   C2B12394  14.762  17.655   7.170 -0.0337 -0.0368  0.0486
  859loPI   C3B12395  14.643  17.691   7.530 -0.4397  0.2286  0.2229
  859loPI   C4B12396  14.656  17.683   7.969 -0.1261  0.0230 -0.0938
  860loPI    C112397   6.632  13.812   5.576 -0.0750  0.2859  0.0422
  860loPI    C212398   6.247  13.913   5.540 -0.1280 -0.0249 -0.3341
  860loPI    C312399   6.385  13.584   5.360  0.2163 -0.1723  0.1777
  860loPI   PO412400   6.694  13.760   5.816  0.0620 -0.1354 -0.0526
  860loPI   GL112401   6.807  13.916   6.124  0.2507  0.1949 -0.2813
  860loPI   GL212402   7.135  13.946   6.131 -0.3062  0.2818 -0.3159
  860loPI   C1A12403   6.857  14.157   6.513  0.0249 -0.1481  0.1653
  860loPI   C2A12404   6.983  13.977   6.898 -0.2661  0.0007 -0.0307
  860loPI   C3A12405   7.012  14.126   7.245  0.1329 -0.0176  0.0381
  860loPI   C4A12406   7.044  14.288   7.626 -0.0732 -0.0714  0.2594
  860loPI   C5A12407   7.021  14.509   7.975 -0.0354 -0.1971  0.2094
  860loPI   C6A12408   7.267  14.828   8.269  0.1429  0.1854  0.1233
  860loPI   C1B12409   6.971  13.650   6.501 -0.0050 -0.0377  0.2741
  860loPI   C2B12410   6.903  13.492   6.840  0.2884  0.3656  0.3214
  860loPI   C3B12411   6.951  13.654   7.257  0.0932  0.1873  0.0711
  860loPI   C4B12412   7.224  13.803   7.501 -0.0475  0.0446 -0.1255
  861loPI    C112413  10.668  16.025   5.698  0.2551 -0.0895  0.0589
  861loPI    C212414  10.486  16.115   5.354  0.1506 -0.2564  0.0697
  861loPI    C312415  10.881  16.054   5.361  0.2100  0.1054  0.0458
  861loPI   PO412416  10.617  16.195   5.923 -0.1920  0.1161  0.2036
  861loPI   GL112417  10.878  16.461   6.239 -0.1454 -0.2690 -0.0167
  861loPI   GL212418  11.090  16.743   6.303  0.2527 -0.1090  0.0812
  861loPI   C1A12419  10.682  16.540   6.635 -0.0338 -0.0830 -0.2639
  861loPI   C2A12420  10.776  16.576   7.064 -0.1466 -0.2964 -0.0239
  861loPI   C3A12421  10.999  16.466   7.398 -0.0744  0.1844  0.4197
  861loPI   C4A12422  11.249  16.101   7.608 -0.1285  0.0470 -0.0526
  861loPI   C5A12423  11.142  15.655   7.538  0.0041  0.3503 -0.2314
  861loPI   C6A12424  11.270  15.329   7.374 -0.0574  0.0719  0.1124
  861loPI   C1B12425  11.138  16.719   6.771 -0.3064  0.1824 -0.1955
  861loPI   C2B12426  11.312  16.768   7.149  0.1626  0.1425  0.1086
  861loPI   C3B12427  11.478  16.674   7.449  0.0007  0.0873 -0.0276
  861loPI   C4B12428  11.534  16.960   7.692 -0.0165  0.1656  0.1006
  862loPI    C112429   8.855  13.212   5.617  0.0615 -0.2421  0.0477
  862loPI    C212430   8.652  13.092   5.294  0.0525 -0.0833 -0.0066
  862loPI    C312431   8.849  12.825   5.517 -0.1042 -0.2207 -0.0299
  862loPI   PO412432   8.672  13.356   5.732  0.1042  0.0170 -0.0988
  862loPI   GL112433   8.685  13.422   6.103 -0.3565  0.2001  0.1415
  862loPI   GL212434   8.347  13.465   6.184 -0.0104 -0.1032 -0.2062
  862loPI   C1A12435   8.923  13.470   6.494  0.2169 -0.1599  0.0306
  862loPI   C2A12436   9.053  13.505   6.932  0.0828  0.0487  0.4099
  862loPI   C3A12437   8.981  13.735   7.304  0.1017 -0.0613  0.2587
  862loPI   C4A12438   9.070  14.171   7.333 -0.3707  0.1558 -0.0265
  862loPI   C5A12439   8.868  14.632   7.544  0.0167 -0.2276  0.0083
  862loPI   C6A12440   8.835  14.998   7.747  0.0175  0.1039 -0.0443
  862loPI   C1B12441   8.390  13.454   6.496  0.0276  0.0134 -0.0021
  862loPI   C2B12442   8.510  13.448   6.918  0.2458 -0.2011  0.1331
  862loPI   C3B12443   8.503  13.574   7.322  0.2549 -0.1570 -0.0249
  862loPI   C4B12444   8.259  13.781   7.630  0.0814 -0.0654  0.1481
  863loPI    C112445   0.397  11.776   5.802  0.1532 -0.1507 -0.0047
  863loPI    C212446   0.759  11.836   5.644  0.1077  0.2603  0.0349
  863loPI    C312447   0.467  11.678   5.420  0.3597 -0.2680  0.0619
  863loPI   PO412448   0.465  11.931   6.036  0.1074  0.1098 -0.2268
  863loPI   GL112449   0.353  11.906   6.447 -0.1674  0.0542  0.2536
  863loPI   GL212450   0.689  12.016   6.450 -0.0246  0.0406 -0.1260
  863loPI   C1A12451   0.309  11.720   6.879 -0.4268 -0.3620  0.1606
  863loPI   C2A12452   0.300  11.507   7.164  0.1811 -0.0943  0.1342
  863loPI   C3A12453   0.402  11.175   7.488  0.1471 -0.0387 -0.0648
  863loPI   C4A12454   0.413  10.863   7.799  0.1767 -0.0801 -0.2329
  863loPI   C5A12455   0.515  10.605   8.179  0.1929  0.1291  0.1261
  863loPI   C6A12456   0.899  10.511   8.176 -0.2380  0.0794  0.1200
  863loPI   C1B12457   0.938  12.050   6.797  0.1727  0.0199 -0.1228
  863loPI   C2B12458   1.002  12.302   7.055 -0.0743 -0.0125  0.5186
  863loPI   C3B12459   0.998  12.164   7.426 -0.0731 -0.1279 -0.3116
  863loPI   C4B12460   1.373  11.928   7.679 -0.0042  0.1974 -0.0823
  864loPI    C112461   4.243  12.991   5.290 -0.0954 -0.0488  0.1298
  864loPI    C212462   4.475  13.282   5.143 -0.1328  0.0214  0.2091
  864loPI    C312463   4.288  13.031   4.894  0.1671 -0.1463  0.1472
  864loPI   PO412464   4.386  12.918   5.500  0.1403 -0.0499  0.1222
  864loPI   GL112465   4.309  12.732   5.858  0.0662 -0.2905 -0.0105
  864loPI   GL212466   4.064  12.517   5.936  0.0752  0.3275 -0.2320
  864loPI   C1A12467   4.410  12.987   6.319  0.1023 -0.1308 -0.1961
  864loPI   C2A12468   4.608  13.077   6.694  0.1610 -0.0441  0.0280
  864loPI   C3A12469   4.770  13.153   7.176  0.2507 -0.1483 -0.0536
  864loPI   C4A12470   4.703  13.041   7.608  0.0406  0.3085  0.0352
  864loPI   C5A12471   4.817  12.703   7.932 -0.2138 -0.2744  0.2978
  864loPI   C6A12472   5.100  12.388   8.013 -0.3717  0.1446 -0.2985
  864loPI   C1B12473   4.262  12.421   6.296  0.0623  0.0635 -0.1314
  864loPI   C2B12474   4.562  12.554   6.533  0.1562  0.1405 -0.4154
  864loPI   C3B12475   4.948  12.627   6.725 -0.0196 -0.2419  0.1335
  864loPI   C4B12476   5.096  12.938   6.898  0.0271 -0.0455 -0.1411
  865loPI    C112477   2.729  13.218   5.243  0.0081  0.1188  0.1326
  865loPI    C212478   2.410  13.458   5.220 -0.1739 -0.1281  0.0358
  865loPI    C312479   2.659  13.424   4.908 -0.2289 -0.1746 -0.0033
  865loPI   PO412480   2.740  13.081   5.452 -0.1270 -0.2018 -0.0293
  865loPI   GL112481   2.792  13.020   5.920 -0.0571 -0.0083  0.1320
  865loPI   GL212482   2.532  13.107   6.085 -0.0491 -0.0360 -0.0395
  865loPI   C1A12483   3.052  13.141   6.357  0.1824  0.2107 -0.0638
  865loPI   C2A12484   3.150  13.213   6.793 -0.0789 -0.2480  0.0504
  865loPI   C3A12485   3.296  13.153   7.281  0.0440  0.1077 -0.3677
  865loPI   C4A12486   3.040  13.145   7.630 -0.1119 -0.3367  0.3394
  865loPI   C5A12487   3.112  13.004   8.092  0.0398  0.1133 -0.1518
  865loPI   C6A12488   2.873  12.650   8.155  0.3120 -0.1894 -0.2934
  865loPI   C1B12489   2.428  13.176   6.580 -0.0048  0.2696  0.2368
  865loPI   C2B12490   2.162  13.452   6.847  0.1610  0.0731  0.0377
  865loPI   C3B12491   2.156  13.482   7.274  0.1663  0.3453  0.0134
  865loPI   C4B12492   2.108  13.239   7.678  0.4509 -0.1273 -0.0646
  866loPI    C112493  10.713  11.053   5.612  0.0134 -0.1038 -0.0705
  866loPI    C212494  10.607  11.229   5.269  0.0477 -0.1097 -0.0841
  866loPI    C312495  10.973  11.073   5.309  0.1224  0.0913  0.0335
  866loPI   PO412496  10.445  11.065   5.695 -0.2019 -0.3329  0.2299
  866loPI   GL112497  10.376  10.811   6.153 -0.1399  0.1934 -0.0103
  866loPI   GL212498  10.172  11.008   6.275  0.1356 -0.0525 -0.1224
  866loPI   C1A12499  10.530  10.739   6.477 -0.0977  0.0158 -0.1572
  866loPI   C2A12500  10.436  10.659   6.825  0.1465 -0.1352  0.1997
  866loPI   C3A12501  10.429  10.675   7.266 -0.1044  0.3648  0.0360
  866loPI   C4A12502  10.552  10.530   7.657 -0.3496 -0.0251  0.1709
  866loPI   C5A12503  10.573  10.630   8.066  0.4193 -0.0948 -0.3243
  866loPI   C6A12504  10.643  10.708   8.523  0.0331  0.1623 -0.4071
  866loPI   C1B12505  10.209  11.156   6.646 -0.1048  0.0698 -0.1922
  866loPI   C2B12506  10.267  11.098   7.077  0.0658 -0.1339 -0.3657
  866loPI   C3B12507  10.210  11.028   7.504 -0.0608  0.2211 -0.3181
  866loPI   C4B12508  10.009  10.587   7.798 -0.0357 -0.0339 -0.1338
  867loPI    C112509  12.795   1.769   5.316 -0.0126  0.1009 -0.0383
  867loPI    C212510  12.924   1.440   5.129  0.1180 -0.0173  0.2532
  867loPI    C312511  13.105   1.791   5.064  0.0007 -0.0067 -0.0316
  867loPI   PO412512  12.766   1.651   5.580 -0.1388  0.0599 -0.0995
  867loPI   GL112513  12.687   1.689   5.959  0.0877  0.2052  0.3617
  867loPI   GL212514  12.822   1.918   6.066  0.1774  0.3372  0.1730
  867loPI   C1A12515  12.655   1.721   6.501  0.0709  0.0087 -0.0945
  867loPI   C2A12516  12.539   1.776   6.881 -0.4176  0.0438 -0.0835
  867loPI   C3A12517  12.379   1.954   7.284  0.2370 -0.3052 -0.1751
  867loPI   C4A12518  12.044   1.829   7.503  0.0809 -0.0357  0.0292
  867loPI   C5A12519  11.847   1.844   7.962  0.3202  0.1720  0.1448
  867loPI   C6A12520  11.661   1.801   8.358  0.3758  0.1608 -0.0830
  867loPI   C1B12521  13.128   1.920   6.325  0.2239 -0.2274  0.0046
  867loPI   C2B12522  13.105   1.982   6.707 -0.1096 -0.2028  0.3450
  867loPI   C3B12523  13.434   1.999   7.080 -0.1961  0.0017  0.0638
  867loPI   C4B12524  13.498   2.174   7.476 -0.1051  0.0179  0.1300
  868loPI    C112525  16.352   6.388   5.478  0.1062 -0.1459  0.0672
  868loPI    C212526  16.732   6.274   5.421  0.1068  0.0584 -0.3846
  868loPI    C312527  16.451   6.175   5.154 -0.1501 -0.0379 -0.0853
  868loPI   PO412528  16.351   6.655   5.638 -0.1065  0.1146 -0.1761
  868loPI   GL112529  16.436   6.844   6.016 -0.1604  0.2824  0.0793
  868loPI   GL212530  16.208   6.685   6.139 -0.3005  0.3721  0.2047
  868loPI   C1A12531  16.591   6.882   6.461  0.1055  0.1600  0.1111
  868loPI   C2A12532  16.700   6.827   6.895  0.2030 -0.0041  0.1499
  868loPI   C3A12533  16.715   6.616   7.183 -0.2563  0.0254  0.2254
  868loPI   C4A12534  16.790   6.648   7.604 -0.0386  0.1081  0.0532
  868loPI   C5A12535  16.626   6.628   8.062 -0.1033 -0.0721 -0.2416
  868loPI   C6A12536  16.596   6.877   8.478 -0.0547 -0.0504 -0.2666
  868loPI   C1B12537  16.148   6.742   6.496  0.3490  0.1752 -0.1442
  868loPI   C2B12538  16.232   6.753   6.906 -0.1683  0.1552  0.1578
  868loPI   C3B12539  16.281   6.814   7.373 -0.0410 -0.0855  0.0196
  868loPI   C4B12540  16.387   6.959   7.719 -0.2930  0.0876  0.2077
  869loPI    C112541  11.161  10.106   5.439  0.1664  0.0573 -0.1086
  869loPI    C212542  11.203   9.715   5.366  0.1344  0.0202  0.0675
  869loPI    C312543  11.100   9.963   5.070 -0.1143 -0.1453  0.0119
  869loPI   PO412544  11.345  10.173   5.571  0.2057 -0.0652  0.1418
  869loPI   GL112545  11.286  10.264   6.094  0.1339 -0.1534 -0.2587
  869loPI   GL212546  11.254  10.544   5.902  0.0250  0.1438 -0.1653
  869loPI   C1A12547  11.507  10.422   6.378 -0.2361 -0.2886  0.1073
  869loPI   C2A12548  11.718  10.532   6.825 -0.1900 -0.1529 -0.0763
  869loPI   C3A12549  11.998  10.438   7.188 -0.0997  0.1576  0.0960
  869loPI   C4A12550  11.992  10.397   7.661 -0.0439  0.0306  0.0613
  869loPI   C5A12551  12.034  10.591   8.023  0.4342  0.3751 -0.0401
  869loPI   C6A12552  12.323  10.736   8.324 -0.2229  0.0356 -0.3237
  869loPI   C1B12553  11.597  10.761   5.979  0.0033  0.0165  0.1620
  869loPI   C2B12554  11.975  10.626   6.254  0.5698  0.0848 -0.1118
  869loPI   C3B12555  12.178  10.526   6.620  0.1955 -0.1811  0.1207
  869loPI   C4B12556  12.406  10.433   6.959 -0.2081  0.2733 -0.2372
  870loPI    C112557  12.578   2.818   5.746  0.2254  0.0825  0.0612
  870loPI    C212558  12.653   2.974   5.386  0.0676  0.0376  0.0079
  870loPI    C312559  12.519   2.599   5.417 -0.2433  0.1523  0.0913
  870loPI   PO412560  12.376   2.832   5.860 -0.0938  0.2767  0.1122
  870loPI   GL112561  12.445   2.547   6.262  0.2559  0.0409 -0.1711
  870loPI   GL212562  12.665   2.817   6.284  0.1720 -0.0106  0.2841
  870loPI   C1A12563  12.307   2.398   6.579  0.0729  0.3232 -0.4407
  870loPI   C2A12564  12.294   2.392   7.027 -0.0386  0.1406  0.3215
  870loPI   C3A12565  12.328   2.576   7.401  0.0633 -0.0524  0.0248
  870loPI   C4A12566  12.446   2.666   7.760 -0.2852  0.1159  0.0958
  870loPI   C5A12567  12.586   2.645   8.243 -0.2262  0.0041 -0.0769
  870loPI   C6A12568  12.295   2.827   8.569  0.1164 -0.3284 -0.0149
  870loPI   C1B12569  12.820   2.720   6.588  0.2501  0.1741  0.0026
  870loPI   C2B12570  12.780   2.711   7.097 -0.0524  0.0004 -0.1547
  870loPI   C3B12571  12.746   2.853   7.425 -0.2241 -0.1615 -0.2192
  870loPI   C4B12572  12.846   2.943   7.911  0.2158 -0.3805  0.0720
  871loPI    C112573  16.479   3.267   5.450 -0.0020  0.1532 -0.2414
  871loPI    C212574  16.298   3.008   5.205 -0.2383 -0.0640  0.1525
  871loPI    C312575  16.080   3.265   5.421 -0.0284  0.1804  0.0776
  871loPI   PO412576  16.701   3.008   5.641 -0.1629  0.0276 -0.2825
  871loPI   GL112577  16.916   3.018   5.956 -0.2917 -0.0722 -0.2131
  871loPI   GL212578  17.205   3.173   5.842 -0.1746  0.0542  0.1389
  871loPI   C1A12579  16.780   2.909   6.371  0.1024 -0.1512  0.1807
  871loPI   C2A12580  16.395   2.922   6.623  0.1257 -0.0998  0.2262
  871loPI   C3A12581  16.403   3.110   6.990 -0.1614  0.1526 -0.2958
  871loPI   C4A12582  16.347   3.174   7.423  0.1144  0.0499 -0.0701
  871loPI   C5A12583  16.295   3.539   7.790  0.1022  0.1638  0.0426
  871loPI   C6A12584  16.204   3.896   8.054 -0.1316 -0.1040 -0.2975
  871loPI   C1B12585  17.111   3.377   6.197  0.0484 -0.1861  0.1516
  871loPI   C2B12586  17.102   3.715   6.532 -0.4187 -0.1581  0.0320
  871loPI   C3B12587  17.092   3.961   6.862 -0.0612  0.0988 -0.1690
  871loPI   C4B12588  16.836   3.992   7.209  0.2668  0.0859  0.1432
  872loPI    C112589   6.017   9.711   5.820  0.0378  0.0591 -0.0841
  872loPI    C212590   5.644   9.783   5.695 -0.0674  0.0236  0.2017
  872loPI    C312591   5.908   9.612   5.448 -0.1951  0.1863 -0.0518
  872loPI   PO412592   6.091   9.807   6.054  0.1252  0.1224  0.3161
  872loPI   GL112593   6.044  10.036   6.366  0.1338  0.0270  0.3611
  872loPI   GL212594   5.738   9.936   6.450  0.1298 -0.0853  0.0814
  872loPI   C1A12595   6.167  10.097   6.664 -0.0900  0.0541 -0.1668
  872loPI   C2A12596   5.933  10.145   7.076  0.3679  0.0228 -0.0454
  872loPI   C3A12597   6.027  10.138   7.443 -0.4308 -0.0846 -0.0432
  872loPI   C4A12598   6.093  10.148   7.878  0.2033  0.2623  0.0234
  872loPI   C5A12599   5.886  10.305   8.181  0.0815  0.0960  0.0944
  872loPI   C6A12600   5.671  10.167   8.537 -0.1446 -0.2224 -0.2919
  872loPI   C1B12601   5.529   9.961   6.907 -0.3129  0.1128  0.0521
  872loPI   C2B12602   5.487   9.955   7.330 -0.1709  0.0560 -0.2382
  872loPI   C3B12603   5.584  10.202   7.646 -0.2669  0.1762  0.0655
  872loPI   C4B12604   5.533  10.524   7.852  0.2781  0.2333 -0.0982
  873loPI    C112605   9.682   2.553   5.162  0.3100  0.0050 -0.3082
  873loPI    C212606   9.503   2.878   5.312  0.3334 -0.1079 -0.0280
  873loPI    C312607   9.284   2.561   5.203  0.3350 -0.1137 -0.0146
  873loPI   PO412608   9.933   2.580   5.384 -0.2756 -0.2323  0.2796
  873loPI   GL112609  10.250   2.497   5.709  0.2033  0.4654  0.0680
  873loPI   GL212610  10.337   2.755   5.926  0.3176 -0.1399  0.0031
  873loPI   C1A12611   9.928   2.566   6.052  0.2571  0.0146  0.2019
  873loPI   C2A12612   9.930   2.616   6.449 -0.0036 -0.0942 -0.0064
  873loPI   C3A12613   9.958   2.575   6.842  0.0030 -0.1110  0.1115
  873loPI   C4A12614   9.785   2.705   7.258 -0.2781 -0.3590 -0.3173
  873loPI   C5A12615   9.659   2.647   7.601  0.2733  0.3264  0.0521
  873loPI   C6A12616   9.402   2.550   8.052 -0.1877  0.1248  0.0384
  873loPI   C1B12617  10.416   2.452   6.232 -0.1342  0.0244  0.4441
  873loPI   C2B12618  10.470   2.428   6.637 -0.1862  0.3154 -0.0557
  873loPI   C3B12619  10.411   2.490   7.097 -0.1839 -0.2636 -0.1000
  873loPI   C4B12620  10.179   2.517   7.486 -0.1550 -0.0733  0.3527
  874loPI    C112621  12.463  16.548   5.729 -0.0378  0.1299 -0.2479
  874loPI    C212622  12.810  16.381   5.620 -0.1324 -0.2301 -0.0147
  874loPI    C312623  12.568  16.539   5.343  0.1916 -0.0199 -0.1836
  874loPI   PO412624  12.482  16.443   6.005 -0.1998  0.1099  0.1355
  874loPI   GL112625  12.353  16.618   6.518  0.2229 -0.0903  0.2261
  874loPI   GL212626  12.524  16.343   6.772  0.1116  0.2117  0.1352
  874loPI   C1A12627  12.006  16.517   6.671  0.1294  0.0314  0.0379
  874loPI   C2A12628  11.583  16.447   6.850  0.0995 -0.1034 -0.3844
  874loPI   C3A12629  11.267  16.188   7.023  0.0524 -0.1484 -0.0404
  874loPI   C4A12630  11.324  15.890   7.165 -0.1347  0.0305  0.5642
  874loPI   C5A12631  11.631  15.724   7.468 -0.0795 -0.1278 -0.0848
  874loPI   C6A12632  11.525  15.440   7.843 -0.0192 -0.0189  0.0058
  874loPI   C1B12633  12.262  16.594   7.160  0.1426  0.1371 -0.1024
  874loPI   C2B12634  12.500  16.475   7.472  0.1542 -0.0900 -0.0153
  874loPI   C3B12635  12.326  16.523   7.892 -0.0412  0.0232 -0.1310
  874loPI   C4B12636  12.096  16.198   7.999  0.0554  0.2179 -0.1982
  875loPI    C112637   7.102   3.605   5.097 -0.5922  0.0355 -0.0504
  875loPI    C212638   7.143   3.884   5.380 -0.1797 -0.0051 -0.0650
  875loPI    C312639   7.227   3.972   4.999 -0.2013 -0.1048 -0.0931
  875loPI   PO412640   7.268   3.358   5.160 -0.0555 -0.0364 -0.1742
  875loPI   GL112641   7.441   3.439   5.517 -0.1873 -0.4451 -0.0284
  875loPI   GL212642   7.745   3.479   5.709 -0.3158  0.1366 -0.1772
  875loPI   C1A12643   7.293   3.487   5.863  0.0528 -0.2381  0.0283
  875loPI   C2A12644   7.143   3.529   6.292  0.3040  0.2445 -0.2571
  875loPI   C3A12645   6.833   3.600   6.592 -0.0787 -0.0466  0.1388
  875loPI   C4A12646   6.573   3.475   6.929 -0.1289 -0.1513 -0.2060
  875loPI   C5A12647   6.474   3.591   7.289  0.3299  0.0681 -0.2069
  875loPI   C6A12648   6.440   3.859   7.753 -0.0379 -0.2169  0.0098
  875loPI   C1B12649   8.015   3.219   5.996 -0.1859 -0.0903 -0.1351
  875loPI   C2B12650   7.842   3.210   6.313  0.3543  0.1825 -0.1417
  875loPI   C3B12651   7.830   3.490   6.773  0.0541  0.2689 -0.1452
  875loPI   C4B12652   8.025   3.776   7.160  0.1531 -0.1394 -0.1401
  876loPI    C112653  14.635   1.641   5.132  0.0391 -0.0498  0.1765
  876loPI    C212654  14.507   1.335   5.355 -0.0018 -0.0408  0.1656
  876loPI    C312655  14.624   1.272   4.978  0.1126 -0.0639  0.2044
  876loPI   PO412656  14.864   1.745   5.329  0.2048  0.0138  0.0714
  876loPI   GL112657  14.967   1.755   5.719  0.0766  0.0583  0.2183
  876loPI   GL212658  14.631   1.617   5.743 -0.0608 -0.1637 -0.0398
  876loPI   C1A12659  15.070   1.663   6.131  0.1773  0.1481  0.2582
  876loPI   C2A12660  15.181   1.812   6.544 -0.1844 -0.2627  0.0134
  876loPI   C3A12661  15.301   1.961   6.904 -0.3116  0.0893 -0.0868
  876loPI   C4A12662  15.216   1.707   7.278 -0.0589  0.0878 -0.1422
  876loPI   C5A12663  14.958   1.703   7.667  0.1478 -0.0281  0.0880
  876loPI   C6A12664  14.739   1.751   8.049  0.0692  0.0864  0.0200
  876loPI   C1B12665  14.593   1.739   6.185  0.2187 -0.2248  0.0241
  876loPI   C2B12666  14.537   1.696   6.624  0.2313 -0.3223  0.2870
  876loPI   C3B12667  14.801   1.804   6.886  0.1311 -0.2248 -0.1954
  876loPI   C4B12668  14.781   2.083   7.301  0.0401 -0.4138  0.0170
  877loPI    C112669   7.647   4.851   5.155 -0.0527  0.1556 -0.0390
  877loPI    C212670   7.456   4.566   4.948 -0.0100  0.1418 -0.0597
  877loPI    C312671   7.818   4.690   4.831  0.0375  0.0964  0.0373
  877loPI   PO412672   7.505   4.826   5.353 -0.2332 -0.1116  0.0516
  877loPI   GL112673   7.650   4.680   5.714 -0.2506 -0.0365 -0.1280
  877loPI   GL212674   7.400   4.451   5.890 -0.0160  0.0113 -0.0650
  877loPI   C1A12675   7.878   4.871   6.044  0.3222  0.1152 -0.0392
  877loPI   C2A12676   7.979   4.944   6.490  0.0362  0.2248 -0.3175
  877loPI   C3A12677   8.023   5.069   6.862 -0.1381 -0.3505  0.2149
  877loPI   C4A12678   8.076   5.098   7.266  0.1146 -0.1995 -0.0291
  877loPI   C5A12679   8.170   5.012   7.631  0.3268 -0.2658  0.2448
  877loPI   C6A12680   8.530   4.767   7.834  0.2558 -0.1847  0.0647
  877loPI   C1B12681   7.568   4.333   6.347 -0.2008 -0.0706 -0.2422
  877loPI   C2B12682   7.849   4.149   6.705 -0.1371 -0.1697 -0.0613
  877loPI   C3B12683   7.934   4.280   7.131  0.0580 -0.2806 -0.1438
  877loPI   C4B12684   7.978   4.549   7.547 -0.1382 -0.1011  0.1585
  878loPI    C112685  17.375   1.708   5.738 -0.1972  0.0340 -0.0385
  878loPI    C212686  17.641   1.847   5.474 -0.1877 -0.0039 -0.0489
  878loPI    C312687  17.726   1.851   5.865 -0.0338 -0.3234 -0.0761
  878loPI   PO412688  17.191   1.561   5.756 -0.1908  0.3841  0.1301
  878loPI   GL112689  16.999   1.424   6.128 -0.1202 -0.1022 -0.1575
  878loPI   GL212690  16.718   1.382   5.882 -0.0822 -0.1819  0.1323
  878loPI   C1A12691  16.818   1.623   6.429 -0.4050  0.2944 -0.0244
  878loPI   C2A12692  16.791   1.606   6.804  0.3749  0.1354  0.0346
  878loPI   C3A12693  16.633   1.743   7.197 -0.2987 -0.0349  0.2112
  878loPI   C4A12694  16.600   1.925   7.500 -0.1792 -0.2563 -0.0518
  878loPI   C5A12695  16.528   1.752   7.935  0.1162 -0.0421 -0.0655
  878loPI   C6A12696  16.521   1.388   8.209 -0.2839 -0.0816 -0.0987
  878loPI   C1B12697  16.382   1.374   6.237 -0.1906 -0.0868 -0.5154
  878loPI   C2B12698  16.295   1.532   6.671  0.0772 -0.1437  0.2302
  878loPI   C3B12699  16.212   1.868   6.918  0.3380  0.0972 -0.2326
  878loPI   C4B12700  16.374   2.156   7.148  0.1156  0.1458  0.1818
  879loPI    C112701  14.627  13.090   5.811 -0.0137 -0.0532 -0.0822
  879loPI    C212702  14.550  13.054   5.420 -0.2331  0.0351 -0.0483
  879loPI    C312703  14.681  13.402   5.567  0.0082 -0.0456 -0.0676
  879loPI   PO412704  14.401  12.974   5.895  0.2478 -0.0316 -0.0601
  879loPI   GL112705  14.329  12.818   6.269  0.2309 -0.1364 -0.1120
  879loPI   GL212706  14.600  12.742   6.423  0.0121 -0.0913 -0.0155
  879loPI   C1A12707  14.266  12.478   6.670 -0.3424  0.1361 -0.1049
  879loPI   C2A12708  14.341  12.233   6.912 -0.2587 -0.3489  0.1554
  879loPI   C3A12709  14.370  11.998   7.268  0.2536 -0.0656 -0.0044
  879loPI   C4A12710  14.306  11.979   7.620  0.1591 -0.0291 -0.4745
  879loPI   C5A12711  14.527  11.828   7.951  0.0996  0.2725  0.0780
  879loPI   C6A12712  14.514  11.629   8.309 -0.1614 -0.1482  0.1427
  879loPI   C1B12713  14.686  12.650   6.914  0.2160 -0.1854  0.1841
  879loPI   C2B12714  14.619  12.463   7.355  0.0670 -0.0170 -0.4225
  879loPI   C3B12715  14.731  12.359   7.841  0.0196  0.2334 -0.2896
  879loPI   C4B12716  14.821  12.151   8.214  0.0634  0.1004 -0.0075
  880loPI    C112717   3.239   3.914   5.156  0.3064  0.2557 -0.0446
  880loPI    C212718   3.497   3.938   4.852  0.1676 -0.0879 -0.1952
  880loPI    C312719   3.110   4.017   4.792  0.1515 -0.0864 -0.0912
  880loPI   PO412720   3.348   3.798   5.343 -0.0936 -0.2556 -0.0807
  880loPI   GL112721   3.428   3.793   5.760  0.2736 -0.0453  0.3765
  880loPI   GL212722   3.673   3.937   5.709 -0.4516 -0.1912 -0.0635
  880loPI   C1A12723   3.647   3.571   6.145 -0.2297  0.1517  0.0378
  880loPI   C2A12724   3.952   3.800   6.467  0.2600  0.1399  0.2186
  880loPI   C3A12725   4.072   3.861   6.818 -0.0055  0.0110 -0.0014
  880loPI   C4A12726   4.076   3.808   7.195  0.2075 -0.0360  0.1110
  880loPI   C5A12727   4.027   3.928   7.606  0.1487  0.3055 -0.2356
  880loPI   C6A12728   3.731   4.074   7.934 -0.0088 -0.1810  0.0969
  880loPI   C1B12729   3.768   4.189   6.140 -0.2496 -0.2721  0.1499
  880loPI   C2B12730   3.649   4.239   6.587  0.0311 -0.0058 -0.4217
  880loPI   C3B12731   3.690   4.163   7.063  0.0085  0.1749  0.1974
  880loPI   C4B12732   3.774   4.332   7.504 -0.2160 -0.1796 -0.1681
  881loPI    C112733  17.039   2.542   5.271  0.0502  0.0369 -0.2037
  881loPI    C212734  16.653   2.613   5.190  0.0549  0.1248 -0.1500
  881loPI    C312735  16.794   2.238   5.181 -0.0834  0.0668  0.0509
  881loPI   PO412736  17.113   2.735   5.428 -0.0396  0.1351 -0.2328
  881loPI   GL112737  17.191   2.690   5.792 -0.6148 -0.2875 -0.1409
  881loPI   GL212738  17.504   2.823   5.810  0.0471 -0.1633  0.0735
  881loPI   C1A12739  17.298   2.493   6.204 -0.0022 -0.0696  0.2114
  881loPI   C2A12740  17.321   2.571   6.622 -0.1677  0.2852  0.0643
  881loPI   C3A12741  17.340   2.648   7.047 -0.0771 -0.2889  0.1317
  881loPI   C4A12742  17.335   2.483   7.517 -0.1474 -0.1455 -0.0861
  881loPI   C5A12743  17.415   2.400   7.998  0.0115  0.5229  0.2575
  881loPI   C6A12744  17.815   2.430   8.286 -0.0308  0.1438  0.0149
  881loPI   C1B12745  17.496   2.971   6.283  0.3470  0.0644 -0.1802
  881loPI   C2B12746  17.303   3.182   6.613 -0.1260 -0.0983 -0.1077
  881loPI   C3B12747  17.418   3.096   7.080  0.0349 -0.0922 -0.0290
  881loPI   C4B12748  17.565   2.905   7.484  0.1453 -0.0651 -0.0607
  882loPI    C112749  17.192   0.889   5.675 -0.0090  0.2725  0.2149
  882loPI    C212750  17.143   1.083   5.328  0.2448  0.0880  0.0719
  882loPI    C312751  16.831   1.028   5.573  0.0708  0.2503 -0.1100
  882loPI   PO412752  17.352   1.029   5.794  0.0922 -0.1041 -0.3331
  882loPI   GL112753  17.495   1.176   6.163 -0.2414 -0.1121  0.5033
  882loPI   GL212754  17.761   1.386   6.020  0.2284  0.2146  0.0342
  882loPI   C1A12755  17.330   1.412   6.542  0.1743 -0.1713 -0.0776
  882loPI   C2A12756  17.312   1.564   6.961 -0.4119 -0.3847 -0.0983
  882loPI   C3A12757  17.321   1.583   7.393  0.1255 -0.2686  0.3401
  882loPI   C4A12758  16.995   1.515   7.684 -0.1950 -0.0636 -0.0917
  882loPI   C5A12759  16.941   1.244   7.999 -0.1801  0.0332 -0.0170
  882loPI   C6A12760  16.567   0.854   8.090  0.0431 -0.0325 -0.1599
  882loPI   C1B12761  17.836   1.610   6.295  0.1306  0.4667 -0.0953
  882loPI   C2B12762  17.723   1.683   6.709  0.2192 -0.0513 -0.0603
  882loPI   C3B12763  17.760   1.833   7.045 -0.2466 -0.0368  0.0822
  882loPI   C4B12764  17.716   1.935   7.480  0.0216  0.5344  0.3200
  883loPI    C112765  16.752   1.735   5.228  0.4224 -0.3489 -0.0992
  883loPI    C212766  16.528   1.423   5.342 -0.1432  0.0681 -0.0234
  883loPI    C312767  16.802   1.379   5.054 -0.1558 -0.5114  0.0429
  883loPI   PO412768  16.800   1.814   5.517 -0.0477  0.1276 -0.0179
  883loPI   GL112769  16.805   1.866   5.945  0.1136 -0.4016 -0.0742
  883loPI   GL212770  16.928   2.101   6.181  0.2110 -0.3409  0.2280
  883loPI   C1A12771  16.458   1.931   6.278  0.0162 -0.0619  0.0434
  883loPI   C2A12772  16.608   2.057   6.714 -0.2208 -0.0434  0.1808
  883loPI   C3A12773  16.659   2.457   6.893  0.0769 -0.1304  0.0431
  883loPI   C4A12774  16.842   2.392   7.231  0.3527 -0.0164 -0.1647
  883loPI   C5A12775  16.847   2.415   7.655  0.0608  0.1804  0.1156
  883loPI   C6A12776  16.665   2.192   8.043  0.0308  0.2290  0.4212
  883loPI   C1B12777  16.892   2.429   6.478 -0.1861  0.0812  0.1567
  883loPI   C2B12778  16.972   2.858   6.817 -0.0945  0.1027 -0.0649
  883loPI   C3B12779  16.890   2.920   7.215 -0.2256 -0.5252  0.0428
  883loPI   C4B12780  16.701   2.849   7.580 -0.1934  0.1772 -0.1459
  884loPI    C112781  16.354  15.213   5.714  0.3591  0.0114  0.2611
  884loPI    C212782  16.194  15.517   5.919  0.0923  0.0578 -0.0095
  884loPI    C312783  16.257  15.553   5.525  0.1117 -0.2170 -0.0331
  884loPI   PO412784  16.599  15.076   5.835  0.1065  0.1472  0.0242
  884loPI   GL112785  16.816  15.021   6.286 -0.0783  0.0519 -0.0845
  884loPI   GL212786  16.713  15.368   6.483 -0.0051 -0.4198  0.2150
  884loPI   C1A12787  16.865  14.897   6.756 -0.1886  0.2240 -0.4120
  884loPI   C2A12788  17.022  14.882   7.104  0.2661 -0.0801 -0.0135
  884loPI   C3A12789  17.008  14.945   7.571  0.0788  0.1275  0.1923
  884loPI   C4A12790  16.777  14.772   7.974  0.3609 -0.0864 -0.0698
  884loPI   C5A12791  16.441  14.524   8.244 -0.2189 -0.1557  0.0283
  884loPI   C6A12792  16.257  14.349   8.559  0.1187 -0.1512 -0.2854
  884loPI   C1B12793  16.747  15.397   6.961 -0.0528 -0.0782  0.1849
  884loPI   C2B12794  16.940  15.429   7.390 -0.0834  0.0280  0.1779
  884loPI   C3B12795  16.974  15.447   7.817  0.1256  0.1652 -0.3102
  884loPI   C4B12796  16.896  15.305   8.233  0.1220  0.0419  0.0868
  885loPI    C112797  12.841   6.755   5.565 -0.1044 -0.2447 -0.3036
  885loPI    C212798  12.951   7.088   5.374 -0.1752 -0.0196  0.0387
  885loPI    C312799  12.587   6.934   5.314 -0.2118  0.0730  0.0226
  885loPI   PO412800  12.859   6.813   5.798 -0.1197 -0.2195 -0.0582
  885loPI   GL112801  13.122   6.692   6.148 -0.1693  0.3224 -0.0830
  885loPI   GL212802  13.462   6.648   6.273 -0.0930 -0.0234 -0.0743
  885loPI   C1A12803  13.116   6.932   6.505  0.3553 -0.3089  0.3533
  885loPI   C2A12804  13.098   7.021   7.008 -0.0323  0.0718  0.2260
  885loPI   C3A12805  13.111   6.754   7.333 -0.2552  0.2417  0.0791
  885loPI   C4A12806  13.068   6.767   7.765  0.2088  0.1360 -0.1689
  885loPI   C5A12807  12.977   7.024   8.180  0.1035  0.0864 -0.3618
  885loPI   C6A12808  12.767   7.346   8.317  0.0726 -0.0425  0.1445
  885loPI   C1B12809  13.534   6.714   6.715 -0.1390  0.1625 -0.1030
  885loPI   C2B12810  13.571   6.872   7.136  0.4361  0.2880 -0.0786
  885loPI   C3B12811  13.606   6.869   7.622  0.1810  0.1039  0.0466
  885loPI   C4B12812  13.697   6.916   8.045 -0.0994  0.1312 -0.1352
  886loPI    C112813   9.057  16.381   5.147 -0.1048  0.1492 -0.0253
  886loPI    C212814   9.023  16.523   4.775  0.0166  0.0335 -0.0816
  886loPI    C312815   8.839  16.183   4.876 -0.1323  0.1388  0.0045
  886loPI   PO412816   8.971  16.537   5.362 -0.0609 -0.2112  0.0513
  886loPI   GL112817   8.771  16.589   5.732  0.0735  0.0491 -0.0725
  886loPI   GL212818   8.471  16.544   5.720 -0.4037  0.1572 -0.1135
  886loPI   C1A12819   8.957  16.365   6.035  0.0804  0.1897 -0.3044
  886loPI   C2A12820   9.003  16.211   6.481 -0.0780  0.0535  0.0268
  886loPI   C3A12821   8.937  16.321   6.839 -0.0496  0.2069 -0.1592
  886loPI   C4A12822   9.029  16.272   7.298 -0.1913 -0.2207 -0.2019
  886loPI   C5A12823   8.910  16.415   7.664 -0.1063  0.0595  0.2263
  886loPI   C6A12824   8.789  16.706   8.059  0.2279 -0.0396  0.2378
  886loPI   C1B12825   8.456  16.469   6.136 -0.1479 -0.1492  0.2417
  886loPI   C2B12826   8.527  16.558   6.554  0.0179  0.0044  0.2856
  886loPI   C3B12827   8.454  16.576   6.966 -0.0490  0.2517 -0.0037
  886loPI   C4B12828   8.579  16.501   7.303 -0.0083 -0.0509 -0.0228
  887loPI    C112829   3.179   6.384   5.466 -0.0191 -0.0042 -0.1701
  887loPI    C212830   3.445   6.251   5.199 -0.0192 -0.1947 -0.0771
  887loPI    C312831   3.114   6.439   5.075  0.2507  0.2222 -0.1861
  887loPI   PO412832   3.026   6.231   5.574 -0.3432  0.0871 -0.4541
  887loPI   GL112833   2.784   6.091   5.946  0.0315  0.1607 -0.0035
  887loPI   GL212834   2.567   6.178   6.192  0.3849 -0.1814  0.0750
  887loPI   C1A12835   2.933   5.832   6.234 -0.0082 -0.1307 -0.1687
  887loPI   C2A12836   2.976   5.773   6.634 -0.0366 -0.0052  0.2414
  887loPI   C3A12837   2.931   5.882   7.085 -0.0213 -0.4668 -0.2144
  887loPI   C4A12838   3.066   5.939   7.480 -0.1380 -0.0479 -0.0317
  887loPI   C5A12839   3.411   5.844   7.781 -0.3704 -0.0828  0.3262
  887loPI   C6A12840   3.753   6.156   7.926 -0.2863  0.0886  0.1072
  887loPI   C1B12841   2.388   6.332   6.634 -0.2497  0.2224  0.4330
  887loPI   C2B12842   2.568   6.324   6.993 -0.1996 -0.0876  0.1009
  887loPI   C3B12843   2.737   6.301   7.444  0.0097  0.1637  0.0466
  887loPI   C4B12844   2.932   6.389   7.727  0.2267 -0.0460 -0.2585
  888loPI    C112845   1.657  10.796   5.649  0.0516 -0.0986 -0.1335
  888loPI    C212846   1.730  11.143   5.833  0.2139 -0.1528 -0.0942
  888loPI    C312847   1.865  11.081   5.462  0.1798 -0.1720 -0.1035
  888loPI   PO412848   1.316  10.778   5.706  0.3100 -0.1607 -0.1129
  888loPI   GL112849   1.234  10.785   6.129 -0.1175 -0.2605 -0.0140
  888loPI   GL212850   1.578  10.842   6.227 -0.0447 -0.0011  0.2800
  888loPI   C1A12851   1.173  10.570   6.464 -0.0500 -0.1906  0.1019
  888loPI   C2A12852   1.225  10.465   6.832 -0.2377 -0.1165 -0.0702
  888loPI   C3A12853   1.589  10.408   7.204  0.1171  0.0447  0.0583
  888loPI   C4A12854   1.746  10.206   7.629  0.4293 -0.0688  0.1723
  888loPI   C5A12855   1.785  10.054   8.102 -0.0470  0.1155  0.1942
  888loPI   C6A12856   1.900  10.177   8.521  0.1941  0.0042 -0.3109
  888loPI   C1B12857   1.661  10.458   6.582 -0.1539  0.1630 -0.0636
  888loPI   C2B12858   1.975  10.169   6.754 -0.0166 -0.0153  0.1192
  888loPI   C3B12859   2.156  10.167   7.272 -0.0371 -0.1957 -0.0497
  888loPI   C4B12860   2.309  10.405   7.613 -0.3199 -0.1203 -0.1082
  889loPI    C112861   2.240  13.185   5.653  0.2479  0.1911  0.0879
  889loPI    C212862   1.947  13.239   5.386  0.1499  0.1318  0.1824
  889loPI    C312863   2.241  12.978   5.311  0.0643  0.0356  0.1794
  889loPI   PO412864   2.053  13.185   5.868  0.0994 -0.0408  0.2971
  889loPI   GL112865   1.965  13.032   6.206  0.0116 -0.0999 -0.1630
  889loPI   GL212866   1.663  12.795   6.364  0.3105  0.0003  0.1480
  889loPI   C1A12867   1.982  13.022   6.654 -0.3678  0.1499  0.0151
  889loPI   C2A12868   2.310  13.003   7.062  0.0303 -0.0346  0.2237
  889loPI   C3A12869   2.228  12.826   7.457 -0.0368  0.2509  0.0138
  889loPI   C4A12870   2.233  12.506   7.720  0.2379 -0.2090 -0.0291
  889loPI   C5A12871   2.474  12.388   7.900  0.0026  0.2298 -0.0433
  889loPI   C6A12872   2.624  12.233   8.309 -0.2199  0.1818 -0.2696
  889loPI   C1B12873   1.828  12.564   6.800 -0.4830  0.1373 -0.0989
  889loPI   C2B12874   1.855  12.522   7.260 -0.2621 -0.1299 -0.1819
  889loPI   C3B12875   1.728  12.323   7.664 -0.1715 -0.1895  0.2573
  889loPI   C4B12876   1.689  12.081   8.034  0.1411 -0.2470 -0.0995
  890loPI    C112877   2.092   5.170   5.765 -0.1258  0.0187 -0.2438
  890loPI    C212878   2.452   5.071   5.621 -0.0522 -0.0103 -0.0425
  890loPI    C312879   2.406   5.409   5.830 -0.1351 -0.0221 -0.0412
  890loPI   PO412880   2.019   5.027   5.832 -0.0975 -0.2013 -0.1669
  890loPI   GL112881   2.065   4.925   6.281 -0.0608  0.3051 -0.2225
  890loPI   GL212882   1.696   5.047   6.263  0.0799 -0.1232  0.1176
  890loPI   C1A12883   2.110   4.775   6.757  0.0125 -0.0791 -0.0762
  890loPI   C2A12884   2.207   4.799   7.222 -0.3365 -0.1550  0.0107
  890loPI   C3A12885   2.382   4.847   7.718  0.0561 -0.0671  0.3097
  890loPI   C4A12886   2.719   5.114   7.940 -0.0169 -0.0481  0.0567
  890loPI   C5A12887   3.021   5.541   7.938  0.4680 -0.2775 -0.0223
  890loPI   C6A12888   2.949   6.019   8.012 -0.1802  0.1246  0.1415
  890loPI   C1B12889   1.729   5.151   6.609  0.3790  0.2053  0.2499
  890loPI   C2B12890   1.770   5.179   7.021 -0.1038  0.0257 -0.1344
  890loPI   C3B12891   1.979   5.071   7.543  0.3204  0.0285  0.0886
  890loPI   C4B12892   2.038   5.202   7.936  0.0918  0.2690  0.0770
  891loPI    C112893  17.948  15.256   5.745  0.0758  0.0281 -0.2479
  891loPI    C212894  17.917  15.536   5.461 -0.0988  0.1988 -0.0639
  891loPI    C312895  18.258  15.332   5.504  0.0102  0.3413 -0.2381
  891loPI   PO412896  17.888  15.391   5.973  0.0410 -0.1396 -0.2024
  891loPI   GL112897  17.966  15.231   6.375 -0.1039 -0.1362  0.1417
  891loPI   GL212898  17.734  14.980   6.424 -0.1654 -0.0830  0.0687
  891loPI   C1A12899  18.083  15.573   6.735 -0.1437 -0.0251  0.0134
  891loPI   C2A12900  18.112  15.704   7.166  0.1463  0.2172  0.1203
  891loPI   C3A12901  18.224  15.636   7.563  0.1799  0.1386 -0.1335
  891loPI   C4A12902  18.295  15.461   7.930  0.1363 -0.0278  0.0154
  891loPI   C5A12903  18.306  15.220   8.286  0.1983  0.0333  0.1203
  891loPI   C6A12904  18.358  15.431   8.683  0.2846 -0.0397 -0.1884
  891loPI   C1B12905  17.759  15.099   6.859  0.2585  0.0994 -0.3728
  891loPI   C2B12906  17.983  15.214   7.275 -0.0448  0.1138 -0.2466
  891loPI   C3B12907  17.886  15.217   7.634  0.3920 -0.1306  0.1340
  891loPI   C4B12908  17.687  15.353   8.056 -0.1012  0.0057  0.4038
  892loPI    C112909   3.650  14.609   5.204 -0.3193  0.2039  0.1122
  892loPI    C212910   3.723  14.997   5.141  0.1555  0.1215  0.1215
  892loPI    C312911   3.708  14.744   4.832  0.0915  0.1065  0.1367
  892loPI   PO412912   3.829  14.512   5.426  0.1583 -0.1731 -0.0542
  892loPI   GL112913   3.898  14.500   5.827 -0.0201  0.0517 -0.0573
  892loPI   GL212914   4.059  14.791   5.862 -0.0568 -0.0081  0.0260
  892loPI   C1A12915   3.810  14.433   6.381 -0.4237 -0.0812  0.1961
  892loPI   C2A12916   3.975  14.470   6.849  0.3284  0.3906 -0.0696
  892loPI   C3A12917   4.159  14.336   7.244 -0.0288  0.0516  0.0891
  892loPI   C4A12918   4.431  14.442   7.569  0.0968  0.0731 -0.0247
  892loPI   C5A12919   4.794  14.605   7.693  0.0087 -0.0607 -0.2773
  892loPI   C6A12920   5.055  14.811   7.924 -0.1802  0.0375  0.0626
  892loPI   C1B12921   4.247  14.519   6.159  0.1180 -0.1372 -0.3114
  892loPI   C2B12922   4.396  14.554   6.546 -0.0489  0.0340  0.3624
  892loPI   C3B12923   4.489  14.674   6.907 -0.1000 -0.0588  0.0114
  892loPI   C4B12924   4.737  14.698   7.188 -0.1345  0.1686  0.0029
  893loPI    C112925  12.479   7.859   5.489 -0.0529 -0.1323  0.1022
  893loPI    C212926  12.422   7.935   5.100 -0.1871 -0.2700  0.0944
  893loPI    C312927  12.514   8.233   5.350 -0.0078 -0.1953 -0.0586
  893loPI   PO412928  12.357   7.761   5.617  0.0719 -0.1454 -0.0991
  893loPI   GL112929  11.973   7.889   5.980 -0.1147  0.1961 -0.1863
  893loPI   GL212930  11.674   8.013   6.053  0.0467 -0.6244  0.0159
  893loPI   C1A12931  12.095   8.101   6.405  0.2213  0.5403  0.0808
  893loPI   C2A12932  12.131   7.905   6.819  0.1546  0.0854 -0.3216
  893loPI   C3A12933  12.228   7.793   7.192 -0.1690 -0.0570  0.2884
  893loPI   C4A12934  12.185   7.515   7.620  0.1765  0.2215  0.1401
  893loPI   C5A12935  12.232   7.150   7.970 -0.0844  0.1825  0.0368
  893loPI   C6A12936  12.452   6.861   7.887 -0.1004 -0.0352 -0.1354
  893loPI   C1B12937  11.572   8.233   6.408  0.0812 -0.0293 -0.1727
  893loPI   C2B12938  11.734   8.227   6.810  0.0682 -0.1429 -0.1186
  893loPI   C3B12939  11.874   8.138   7.247  0.2956  0.0371 -0.4255
  893loPI   C4B12940  11.845   7.935   7.607 -0.3463  0.3293 -0.3230
  894loPI    C112941   3.213  16.071   5.266 -0.0054 -0.1983  0.0290
  894loPI    C212942   3.590  16.204   5.273  0.0148 -0.2492 -0.0694
  894loPI    C312943   3.333  16.347   5.003 -0.0699 -0.1265  0.0743
  894loPI   PO412944   3.127  16.039   5.553 -0.1084 -0.0814  0.2385
  894loPI   GL112945   3.181  15.743   5.925  0.0592 -0.2248  0.0768
  894loPI   GL212946   2.939  15.565   5.950 -0.3782 -0.0427  0.1166
  894loPI   C1A12947   3.279  16.066   6.284  0.2325  0.1199 -0.1554
  894loPI   C2A12948   3.404  16.250   6.746 -0.1628 -0.2099  0.3769
  894loPI   C3A12949   3.532  16.178   7.186  0.0134  0.0418 -0.1892
  894loPI   C4A12950   3.607  16.059   7.674  0.1800 -0.1265  0.0760
  894loPI   C5A12951   3.218  16.015   7.876  0.0404 -0.0682 -0.1656
  894loPI   C6A12952   3.045  16.107   8.308 -0.2846  0.2090 -0.2053
  894loPI   C1B12953   3.183  15.564   6.393  0.2402  0.0739  0.4936
  894loPI   C2B12954   3.254  15.721   6.772 -0.0978  0.1178 -0.0119
  894loPI   C3B12955   3.431  15.617   7.097  0.1495 -0.0280 -0.0495
  894loPI   C4B12956   3.572  15.709   7.353  0.0059 -0.0826 -0.1699
  895loPI    C112957  13.978  17.939   5.381  0.2095 -0.0422 -0.0460
  895loPI    C212958  14.082  18.154   5.701 -0.0044  0.2086 -0.1417
  895loPI    C312959  14.325  17.867   5.567  0.1711  0.2235  0.1349
  895loPI   PO412960  13.670  17.976   5.428 -0.1426  0.1009 -0.1064
  895loPI   GL112961  13.613  18.118   5.888  0.0577 -0.3025  0.1648
  895loPI   GL212962  13.647  18.320   6.106  0.1893 -0.1408  0.2080
  895loPI   C1A12963  13.449  17.770   6.254 -0.1389 -0.1454 -0.1666
  895loPI   C2A12964  13.412  17.665   6.715 -0.0052  0.0995  0.2006
  895loPI   C3A12965  13.486  17.990   7.068  0.3152 -0.1254  0.0650
  895loPI   C4A12966  13.696  17.895   7.390 -0.0603 -0.1966 -0.3893
  895loPI   C5A12967  13.414  17.965   7.775  0.0137  0.1068  0.1156
  895loPI   C6A12968  13.009  17.797   8.020 -0.1781 -0.0535 -0.3435
  895loPI   C1B12969  13.493  18.400   6.507  0.1072 -0.0882 -0.2265
  895loPI   C2B12970  13.594  18.483   6.969 -0.2364  0.0335 -0.1655
  895loPI   C3B12971  13.799  18.641   7.241  0.1227 -0.3768 -0.1634
  895loPI   C4B12972  13.875  18.712   7.725  0.0148 -0.0419 -0.2738
  896loPI    C112973   9.617  14.427   5.551 -0.1873 -0.0484 -0.1992
  896loPI    C212974   9.969  14.254   5.626 -0.0763  0.3032  0.1236
  896loPI    C312975   9.802  14.219   5.264  0.1134 -0.1653  0.0738
  896loPI   PO412976   9.504  14.405   5.773  0.1159 -0.1738  0.2258
  896loPI   GL112977   9.413  14.246   6.100  0.3907 -0.0037 -0.0996
  896loPI   GL212978   9.721  14.098   6.140  0.3584 -0.1644 -0.6575
  896loPI   C1A12979   9.051  14.315   6.264 -0.0799  0.1950 -0.2056
  896loPI   C2A12980   9.121  14.414   6.710  0.0887 -0.1899 -0.0644
  896loPI   C3A12981   8.960  14.714   7.069  0.0618 -0.1631  0.1276
  896loPI   C4A12982   8.634  15.018   7.160 -0.0001 -0.1411 -0.4188
  896loPI   C5A12983   8.391  15.134   7.492  0.0198 -0.2233  0.2449
  896loPI   C6A12984   8.187  15.076   7.900 -0.1308  0.1712  0.0618
  896loPI   C1B12985   9.625  14.261   6.611 -0.0840  0.0200  0.3587
  896loPI   C2B12986   9.516  14.409   6.932 -0.1591 -0.2496  0.0491
  896loPI   C3B12987   9.421  14.560   7.298 -0.0386 -0.1106  0.0376
  896loPI   C4B12988   9.321  14.816   7.621 -0.1043 -0.3452  0.0373
  897loPI    C112989  12.843  17.701   5.466  0.0302 -0.0014 -0.0886
  897loPI    C212990  12.835  18.052   5.274  0.3172  0.0601  0.0065
  897loPI    C312991  13.107  17.986   5.560  0.0795 -0.1361  0.1926
  897loPI   PO412992  12.635  17.604   5.506 -0.2852 -0.0214 -0.2121
  897loPI   GL112993  12.568  17.555   5.954  0.1282 -0.0918 -0.2395
  897loPI   GL212994  12.756  17.353   6.067  0.0936 -0.0912 -0.1164
  897loPI   C1A12995  12.511  17.848   6.378 -0.1339 -0.0524  0.0054
  897loPI   C2A12996  12.438  18.270   6.707 -0.0810 -0.0228  0.2476
  897loPI   C3A12997  12.661  18.380   7.049 -0.0491  0.2348 -0.2932
  897loPI   C4A12998  12.727  18.440   7.470  0.2451 -0.1345 -0.0329
  897loPI   C5A12999  12.513  18.654   7.856  0.1757  0.2371  0.0719
  897loPI   C6A13000  12.530  18.907   8.071  0.1116  0.3715 -0.2107
  897loPI   C1B13001  12.937  17.389   6.367 -0.0762 -0.1673  0.2193
  897loPI   C2B13002  12.967  17.501   6.709 -0.0191  0.1962  0.0751
  897loPI   C3B13003  13.263  17.572   7.158 -0.3153 -0.1193  0.1865
  897loPI   C4B13004  13.193  17.552   7.581  0.1084 -0.0148  0.2354
  898loPI    C113005   8.195   6.343   5.054  0.2237  0.2490 -0.0833
  898loPI    C213006   7.983   6.383   4.717  0.1780  0.1964 -0.0610
  898loPI    C313007   8.301   6.140   4.725  0.0698  0.0551 -0.0153
  898loPI   PO413008   7.970   6.203   5.202 -0.0682 -0.0009 -0.1180
  898loPI   GL113009   7.753   5.910   5.614 -0.1523  0.0773  0.0446
  898loPI   GL213010   7.505   6.149   5.522  0.0200 -0.0616  0.0826
  898loPI   C1A13011   7.742   5.975   6.130  0.0311 -0.1017  0.0960
  898loPI   C2A13012   7.663   5.970   6.545  0.3158 -0.1005  0.0834
  898loPI   C3A13013   7.660   5.855   6.953  0.0771  0.0297 -0.2696
  898loPI   C4A13014   7.743   5.636   7.305 -0.3546 -0.3563 -0.2460
  898loPI   C5A13015   7.733   5.675   7.729 -0.0593  0.1802  0.0270
  898loPI   C6A13016   8.046   5.313   7.978  0.3205  0.0831  0.3540
  898loPI   C1B13017   7.506   6.405   5.989  0.0884 -0.1206 -0.1119
  898loPI   C2B13018   7.436   6.369   6.425 -0.0366  0.1755 -0.0397
  898loPI   C3B13019   7.405   6.388   6.867  0.2391 -0.0356  0.0913
  898loPI   C4B13020   7.434   6.176   7.301 -0.0497  0.0706  0.4981
  899loPI    C113021   1.924   2.764   5.330  0.3865 -0.2581 -0.0050
  899loPI    C213022   1.727   2.479   5.530  0.3331 -0.1180  0.1442
  899loPI    C313023   1.762   2.457   5.132 -0.0868 -0.0854  0.1008
  899loPI   PO413024   2.111   2.867   5.487 -0.0076  0.1664  0.2473
  899loPI   GL113025   2.315   2.716   5.786 -0.0673  0.2708  0.2056
  899loPI   GL213026   2.462   2.989   5.919 -0.0310  0.1735  0.1813
  899loPI   C1A13027   2.368   2.494   6.160  0.2256 -0.0620  0.2512
  899loPI   C2A13028   2.252   2.350   6.485  0.3912 -0.3249  0.0420
  899loPI   C3A13029   2.360   2.355   6.863 -0.1316 -0.2196  0.1831
  899loPI   C4A13030   2.694   2.346   7.294 -0.2854 -0.0971 -0.0928
  899loPI   C5A13031   2.865   2.063   7.545  0.4343 -0.0612  0.0524
  899loPI   C6A13032   2.843   1.986   8.003 -0.3090 -0.0769 -0.1608
  899loPI   C1B13033   2.662   2.927   6.184 -0.0569  0.0203  0.0646
  899loPI   C2B13034   2.557   2.760   6.577  0.1189 -0.0019 -0.2135
  899loPI   C3B13035   2.791   2.490   6.665  0.1983  0.0438  0.0622
  899loPI   C4B13036   3.095   2.485   6.969 -0.2476  0.1177 -0.0657
  900loPI    C113037   4.062  13.309   5.642 -0.0907  0.0014 -0.0393
  900loPI    C213038   4.120  13.212   6.026  0.0972 -0.1394 -0.1020
  900loPI    C313039   3.875  12.992   5.799 -0.2041  0.0866 -0.0013
  900loPI   PO413040   3.985  13.574   5.665  0.3245 -0.2491 -0.0670
  900loPI   GL113041   3.825  13.990   6.027 -0.1691 -0.2546 -0.0013
  900loPI   GL213042   3.522  14.041   6.125  0.1516 -0.1716 -0.1169
  900loPI   C1A13043   3.951  13.676   6.369 -0.4511  0.3217  0.0429
  900loPI   C2A13044   4.149  13.360   6.584 -0.0142 -0.2809  0.0172
  900loPI   C3A13045   4.208  13.264   6.974  0.0826  0.2495 -0.1646
  900loPI   C4A13046   4.264  13.040   7.284  0.0827  0.1275  0.0987
  900loPI   C5A13047   4.437  12.564   7.436 -0.0588  0.3002 -0.2655
  900loPI   C6A13048   4.384  12.473   7.905  0.1296  0.0725  0.3769
  900loPI   C1B13049   3.599  14.023   6.596  0.0539  0.1245 -0.1791
  900loPI   C2B13050   3.689  14.065   6.970  0.1854 -0.0023  0.2019
  900loPI   C3B13051   3.607  13.838   7.350 -0.2363  0.2945  0.1390
  900loPI   C4B13052   3.471  13.469   7.648 -0.0436  0.1569  0.1065
  901loPI    C113053   5.719   7.838   5.878 -0.1465 -0.0422  0.0065
  901loPI    C213054   5.620   8.145   5.640 -0.0415 -0.0404 -0.0351
  901loPI    C313055   5.892   8.195   5.929  0.1724 -0.1607 -0.2115
  901loPI   PO413056   5.490   7.731   5.914 -0.0865 -0.2178  0.0172
  901loPI   GL113057   5.396   7.372   6.008  0.0935  0.0430  0.1255
  901loPI   GL213058   5.734   7.345   6.208  0.3136 -0.0018  0.2680
  901loPI   C1A13059   5.221   7.315   6.373  0.1930  0.2569  0.2145
  901loPI   C2A13060   5.037   7.467   6.835  0.1090  0.2157 -0.0364
  901loPI   C3A13061   5.120   7.511   7.298  0.0584 -0.3473  0.0068
  901loPI   C4A13062   4.798   7.424   7.634  0.0367 -0.2563 -0.2413
  901loPI   C5A13063   4.889   7.356   8.108 -0.0419 -0.0722  0.2488
  901loPI   C6A13064   5.097   7.676   8.263  0.0276 -0.0848  0.0531
  901loPI   C1B13065   6.053   7.101   6.407 -0.0788  0.0472  0.0547
  901loPI   C2B13066   6.188   6.996   6.842 -0.1577 -0.2972  0.0713
  901loPI   C3B13067   6.152   6.708   7.150  0.2277  0.1641 -0.0406
  901loPI   C4B13068   5.881   6.538   7.506  0.3388 -0.0354 -0.1681
  902loPI    C113069  10.803  12.918   5.684 -0.0311 -0.0571  0.2072
  902loPI    C213070  11.184  12.816   5.752  0.0382  0.1669  0.1635
  902loPI    C313071  10.891  12.554   5.826  0.1980  0.0017  0.2209
  902loPI   PO413072  10.818  13.163   5.865 -0.0677  0.5813 -0.0116
  902loPI   GL113073  10.580  13.074   6.224 -0.4458 -0.2417  0.2000
  902loPI   GL213074  10.808  12.828   6.233 -0.1727  0.2332  0.1893
  902loPI   C1A13075  10.198  13.162   6.426  0.2037  0.1863  0.0040
  902loPI   C2A13076  10.043  13.178   6.867 -0.1415  0.0757  0.0970
  902loPI   C3A13077   9.995  13.252   7.293 -0.0076  0.0590 -0.2154
  902loPI   C4A13078   9.867  13.201   7.602 -0.0391  0.0551 -0.1206
  902loPI   C5A13079   9.843  13.017   8.001 -0.2528  0.0132 -0.2081
  902loPI   C6A13080   9.628  12.697   8.061  0.0382 -0.0112  0.0846
  902loPI   C1B13081  10.738  12.714   6.690 -0.1393  0.1544 -0.0381
  902loPI   C2B13082  10.728  12.611   7.150 -0.2023 -0.0010 -0.0014
  902loPI   C3B13083  10.574  12.449   7.624  0.0898 -0.1061 -0.0283
  902loPI   C4B13084  10.703  12.334   8.016 -0.3073  0.0473  0.3851
  903loPI    C113085  12.513  12.239   5.238  0.0396  0.2418 -0.1615
  903loPI    C213086  12.308  11.915   5.123  0.2069  0.0687  0.0208
  903loPI    C313087  12.507  12.132   4.853 -0.0722  0.1389 -0.1319
  903loPI   PO413088  12.462  12.250   5.496 -0.1074  0.0213 -0.1738
  903loPI   GL113089  12.467  12.085   5.923 -0.2413  0.0434 -0.2409
  903loPI   GL213090  12.546  11.821   6.013 -0.1432  0.3385 -0.0618
  903loPI   C1A13091  12.434  12.274   6.313  0.0384 -0.2381 -0.0417
  903loPI   C2A13092  12.512  12.187   6.725 -0.0477 -0.2051 -0.2260
  903loPI   C3A13093  12.479  12.186   7.163 -0.1522  0.0098  0.3362
  903loPI   C4A13094  12.456  12.193   7.627 -0.3630  0.0741  0.0668
  903loPI   C5A13095  12.579  12.478   7.944  0.2178  0.2169 -0.2417
  903loPI   C6A13096  12.458  12.779   8.289  0.1026 -0.1429  0.0952
  903loPI   C1B13097  12.156  11.847   6.374 -0.0389  0.2151 -0.1705
  903loPI   C2B13098  12.076  11.970   6.737  0.3558  0.2045  0.1068
  903loPI   C3B13099  12.061  11.970   7.185 -0.2269 -0.3219  0.1325
  903loPI   C4B13100  11.960  12.091   7.589  0.0230  0.0623  0.2444
  904loPI    C113101   6.969  15.691   5.453  0.1676  0.2408  0.2602
  904loPI    C213102   7.145  15.803   5.112  0.1016 -0.2067  0.0725
  904loPI    C313103   7.242  15.454   5.282 -0.1012 -0.1355  0.3399
  904loPI   PO413104   6.667  15.793   5.529  0.0175  0.0001  0.0300
  904loPI   GL113105   6.504  15.974   5.976 -0.1167 -0.0364 -0.0295
  904loPI   GL213106   6.275  15.732   5.848  0.0690 -0.1715  0.1495
  904loPI   C1A13107   6.763  15.981   6.359  0.1923 -0.2325  0.2185
  904loPI   C2A13108   6.779  16.193   6.703  0.1533  0.1682  0.1232
  904loPI   C3A13109   6.707  16.184   7.068  0.1999  0.0210 -0.0323
  904loPI   C4A13110   6.671  16.353   7.473 -0.2021 -0.0237 -0.0949
  904loPI   C5A13111   6.736  16.548   7.760  0.1948 -0.1399  0.0808
  904loPI   C6A13112   6.951  16.598   8.170 -0.0196  0.0806 -0.2155
  904loPI   C1B13113   6.502  15.538   6.230  0.1391 -0.3486 -0.3149
  904loPI   C2B13114   6.526  15.541   6.689 -0.0367 -0.1942 -0.2494
  904loPI   C3B13115   6.577  15.327   7.085 -0.0642  0.0219 -0.0435
  904loPI   C4B13116   6.835  15.364   7.531  0.2047 -0.0242  0.0594
  905loPI    C113117  15.038  11.762   5.825 -0.0607 -0.0157 -0.0710
  905loPI    C213118  15.124  12.152   5.805 -0.3510  0.0504 -0.0728
  905loPI    C313119  15.057  11.944   5.469 -0.0214 -0.0438 -0.0833
  905loPI   PO413120  15.238  11.752   6.071  0.1900  0.2227 -0.5974
  905loPI   GL113121  15.242  11.490   6.340  0.1813  0.3516  0.0289
  905loPI   GL213122  15.303  11.172   6.264 -0.0909 -0.5059 -0.0723
  905loPI   C1A13123  15.285  11.340   6.798 -0.3440 -0.0438 -0.0205
  905loPI   C2A13124  15.266  11.414   7.254 -0.1513  0.1972  0.0081
  905loPI   C3A13125  15.061  11.350   7.698  0.0911 -0.4002  0.0442
  905loPI   C4A13126  14.644  11.198   7.847 -0.0678  0.0967  0.0520
  905loPI   C5A13127  14.245  11.399   8.002 -0.1057 -0.1683  0.1529
  905loPI   C6A13128  13.916  11.549   8.240 -0.4066  0.3106 -0.2165
  905loPI   C1B13129  15.229  10.874   6.685  0.0622  0.0153 -0.0418
  905loPI   C2B13130  15.199  10.895   7.074  0.0096  0.3000 -0.2185
  905loPI   C3B13131  15.170  10.858   7.487  0.1545  0.0197 -0.2063
  905loPI   C4B13132  15.082  10.892   7.927  0.1709 -0.1721  0.0385
  906loPI    C113133  14.230   4.281   5.284 -0.0779  0.2388 -0.1864
  906loPI    C213134  14.014   4.611   5.219 -0.0371  0.2312 -0.3646
  906loPI    C313135  14.201   4.431   4.915 -0.3308 -0.1460 -0.3290
  906loPI   PO413136  14.365   4.312   5.490 -0.1110 -0.2129  0.0207
  906loPI   GL113137  14.186   4.542   5.791  0.0158 -0.3028  0.3144
  906loPI   GL213138  13.855   4.677   5.784  0.3833 -0.0595  0.0464
  906loPI   C1A13139  14.180   4.543   6.197  0.0980  0.3924  0.0546
  906loPI   C2A13140  14.058   4.446   6.580  0.1149 -0.1672  0.2152
  906loPI   C3A13141  14.203   4.309   6.908 -0.3806  0.0316  0.0172
  906loPI   C4A13142  14.637   4.367   7.151  0.2120 -0.0793  0.0365
  906loPI   C5A13143  14.739   3.997   7.508 -0.1911  0.0822 -0.1670
  906loPI   C6A13144  14.569   4.191   7.828  0.0330  0.1019  0.0124
  906loPI   C1B13145  13.673   4.702   6.218 -0.1682  0.1124 -0.0030
  906loPI   C2B13146  13.615   4.699   6.660 -0.2542 -0.2636 -0.0498
  906loPI   C3B13147  13.563   4.580   7.147  0.1773 -0.1187 -0.1820
  906loPI   C4B13148  13.673   4.561   7.549 -0.1342  0.0736 -0.4526
  907loPI    C113149  12.812  16.915   5.771 -0.1729  0.1486  0.1612
  907loPI    C213150  12.980  17.230   5.591 -0.0849 -0.0420 -0.0954
  907loPI    C313151  12.636  17.080   5.452 -0.0854 -0.1083 -0.0235
  907loPI   PO413152  12.955  16.835   5.996 -0.0752 -0.1127  0.0575
  907loPI   GL113153  12.924  16.867   6.395  0.2054 -0.1101 -0.4213
  907loPI   GL213154  12.832  16.570   6.424 -0.1248  0.2691  0.4506
  907loPI   C1A13155  13.158  16.635   6.738  0.2260 -0.1445 -0.1695
  907loPI   C2A13156  13.465  16.413   6.979 -0.0511  0.1184  0.0360
  907loPI   C3A13157  13.401  16.461   7.309  0.4215 -0.0478  0.1496
  907loPI   C4A13158  13.504  16.513   7.669 -0.2272 -0.2798 -0.3237
  907loPI   C5A13159  13.539  16.625   7.984  0.3491  0.0938 -0.0018
  907loPI   C6A13160  13.339  16.911   8.285 -0.2718 -0.1813 -0.1274
  907loPI   C1B13161  12.688  16.789   6.798  0.0811 -0.1481 -0.2507
  907loPI   C2B13162  12.717  17.005   7.045 -0.0723 -0.0809  0.1691
  907loPI   C3B13163  12.772  17.460   7.212  0.2234  0.2728  0.0100
  907loPI   C4B13164  12.821  17.847   7.438  0.0981  0.2445 -0.4582
  908loPI    C113165  10.001   1.524   5.262 -0.2606  0.2587  0.3235
  908loPI    C213166   9.957   1.338   5.614 -0.0224 -0.1423  0.1475
  908loPI    C313167   9.737   1.226   5.299 -0.0913  0.0797  0.1151
  908loPI   PO413168  10.033   1.754   5.338  0.0113  0.0597  0.1888
  908loPI   GL113169   9.885   2.144   5.582 -0.1447 -0.0720  0.0303
  908loPI   GL213170   9.591   2.299   5.748 -0.0993  0.0126  0.0995
  908loPI   C1A13171  10.091   2.128   6.029 -0.0264 -0.1424 -0.3564
  908loPI   C2A13172  10.078   2.111   6.508  0.1921  0.0101  0.3200
  908loPI   C3A13173  10.149   2.132   6.897  0.2279 -0.0744  0.1355
  908loPI   C4A13174   9.993   2.084   7.260  0.0092 -0.3893  0.0253
  908loPI   C5A13175   9.957   1.757   7.537 -0.0352  0.3823  0.2358
  908loPI   C6A13176   9.784   1.571   7.921 -0.2645  0.1394 -0.2142
  908loPI   C1B13177   9.633   2.261   6.225 -0.0459  0.0162  0.0713
  908loPI   C2B13178   9.633   2.208   6.653 -0.1146 -0.0882  0.1975
  908loPI   C3B13179   9.584   2.249   7.094  0.0854  0.0042 -0.1395
  908loPI   C4B13180   9.299   2.457   7.241  0.4510 -0.0168 -0.3752
  909loPI    C113181   8.671  11.615   5.443 -0.4033  0.3758  0.0662
  909loPI    C213182   8.934  11.913   5.398 -0.0873  0.0651 -0.2002
  909loPI    C313183   8.616  11.890   5.157 -0.1951  0.2686 -0.0799
  909loPI   PO413184   8.572  11.622   5.742 -0.1983  0.1786  0.0811
  909loPI   GL113185   8.246  11.398   5.881  0.6558  0.0563  0.0300
  909loPI   GL213186   8.467  11.195   5.996 -0.0299 -0.1340 -0.0034
  909loPI   C1A13187   8.331  11.591   6.290 -0.2411  0.3245 -0.2469
  909loPI   C2A13188   8.076  11.564   6.704  0.0807 -0.3134 -0.0036
  909loPI   C3A13189   8.013  11.657   7.130  0.0496 -0.0157 -0.1078
  909loPI   C4A13190   7.895  11.636   7.587 -0.1836  0.1728  0.0857
  909loPI   C5A13191   7.832  11.537   8.089 -0.3412  0.1278 -0.0245
  909loPI   C6A13192   7.610  11.507   8.431 -0.0995  0.0944  0.1803
  909loPI   C1B13193   8.640  10.988   6.407 -0.0305  0.0805 -0.3145
  909loPI   C2B13194   8.824  11.062   6.951  0.0316  0.2087  0.0590
  909loPI   C3B13195   8.837  11.038   7.381 -0.4686  0.2436 -0.0812
  909loPI   C4B13196   8.817  11.147   7.755 -0.0214  0.1570 -0.2836
  910loPI    C113197  15.268  15.480   5.810 -0.2278  0.1865  0.4060
  910loPI    C213198  15.261  15.858   5.680 -0.3828  0.1031  0.1643
  910loPI    C313199  14.951  15.616   5.608 -0.0852 -0.2086 -0.1063
  910loPI   PO413200  15.305  15.442   6.065  0.0469 -0.1503 -0.0334
  910loPI   GL113201  15.433  15.186   6.461 -0.3298 -0.1969 -0.1071
  910loPI   GL213202  15.708  15.131   6.474 -0.0836  0.2055  0.4209
  910loPI   C1A13203  15.388  15.446   6.938  0.0274 -0.5513  0.0602
  910loPI   C2A13204  15.318  15.516   7.378  0.0599  0.2148 -0.1184
  910loPI   C3A13205  15.326  15.586   7.862 -0.0031 -0.3723 -0.3207
  910loPI   C4A13206  15.194  15.480   8.199  0.1156 -0.2038  0.0522
  910loPI   C5A13207  15.115  15.124   8.422  0.1812 -0.1026 -0.2557
  910loPI   C6A13208  14.858  15.112   8.686 -0.0484  0.0353  0.0111
  910loPI   C1B13209  15.834  15.224   6.797 -0.3146 -0.0602  0.1349
  910loPI   C2B13210  16.068  15.315   7.155  0.0361 -0.0349  0.1118
  910loPI   C3B13211  16.118  15.213   7.505  0.0404  0.0686 -0.3115
  910loPI   C4B13212  16.005  15.157   7.863  0.0818 -0.0085 -0.1058
  911loPI    C113213   2.795   5.541   5.276  0.2969 -0.1176  0.1548
  911loPI    C213214   3.100   5.547   5.017 -0.1501  0.2090 -0.3883
  911loPI    C313215   2.983   5.885   5.195 -0.0169  0.0323  0.0484
  911loPI   PO413216   2.845   5.254   5.425 -0.2754  0.1674  0.0765
  911loPI   GL113217   2.890   5.142   5.885 -0.2763  0.1693  0.2064
  911loPI   GL213218   2.604   4.955   6.067 -0.3229  0.3944  0.1284
  911loPI   C1A13219   2.899   5.330   6.342  0.1680  0.1500 -0.2831
  911loPI   C2A13220   3.026   5.167   6.739 -0.0765  0.1267  0.1426
  911loPI   C3A13221   3.033   4.753   6.958 -0.0032  0.0527 -0.0840
  911loPI   C4A13222   3.133   4.652   7.401 -0.2897  0.1749 -0.2020
  911loPI   C5A13223   2.888   4.661   7.770 -0.2237  0.0938  0.0126
  911loPI   C6A13224   2.853   4.596   8.134 -0.2279  0.0368  0.0316
  911loPI   C1B13225   2.409   5.255   6.321 -0.0750 -0.0159 -0.1391
  911loPI   C2B13226   2.233   5.266   6.746 -0.1069 -0.1302 -0.1532
  911loPI   C3B13227   2.330   5.254   7.169  0.2241  0.0678  0.0683
  911loPI   C4B13228   2.447   5.354   7.565  0.2712  0.1373  0.1523
  912loPI    C113229   3.960   8.984   5.735  0.1945  0.0310 -0.0628
  912loPI    C213230   4.042   8.651   5.940  0.1044  0.0373 -0.0161
  912loPI    C313231   4.231   8.725   5.595 -0.0392 -0.1740 -0.1430
  912loPI   PO413232   3.727   9.042   5.727 -0.2160  0.1613 -0.0841
  912loPI   GL113233   3.405   8.793   5.932  0.0862 -0.3318  0.0886
  912loPI   GL213234   3.058   8.888   6.038 -0.0263 -0.3415  0.1458
  912loPI   C1A13235   3.291   8.488   6.246  0.0082  0.4533  0.1017
  912loPI   C2A13236   3.073   8.526   6.561  0.0513 -0.1758  0.0831
  912loPI   C3A13237   2.873   8.800   6.779 -0.2105  0.0098 -0.0287
  912loPI   C4A13238   2.608   8.853   7.146 -0.2081 -0.0391  0.4474
  912loPI   C5A13239   2.266   8.915   7.274  0.2495 -0.0005 -0.1993
  912loPI   C6A13240   1.885   8.733   7.415 -0.0713 -0.1858  0.0183
  912loPI   C1B13241   3.205   9.001   6.467 -0.0082 -0.1512 -0.1390
  912loPI   C2B13242   3.277   9.094   6.884 -0.0281 -0.1504  0.0946
  912loPI   C3B13243   3.622   9.060   7.137  0.0768  0.0139  0.1282
  912loPI   C4B13244   3.640   8.752   7.418 -0.1165  0.0478 -0.1207
  913loPI    C113245   7.781   3.908   5.229  0.1108 -0.3238 -0.2120
  913loPI    C213246   7.709   3.737   4.874 -0.1387  0.2092 -0.4297
  913loPI    C313247   7.726   4.135   4.904 -0.0761  0.1713  0.1541
  913loPI   PO413248   7.656   3.854   5.365 -0.2899  0.0227 -0.0266
  913loPI   GL113249   7.499   3.899   5.709  0.2711 -0.0156  0.0055
  913loPI   GL213250   7.783   4.106   5.736 -0.0399  0.1387 -0.0788
  913loPI   C1A13251   7.339   3.945   6.072 -0.0483  0.0854 -0.1560
  913loPI   C2A13252   7.201   4.016   6.450 -0.0530 -0.0293  0.3476
  913loPI   C3A13253   6.948   4.083   6.803  0.0866  0.1994  0.0154
  913loPI   C4A13254   6.769   3.946   7.099  0.3283  0.1768  0.4769
  913loPI   C5A13255   6.928   3.839   7.523  0.2226  0.0891  0.1036
  913loPI   C6A13256   6.870   3.352   7.683 -0.0550  0.1985 -0.2393
  913loPI   C1B13257   8.021   4.348   6.024 -0.0683  0.0072 -0.2905
  913loPI   C2B13258   8.154   4.460   6.411 -0.1452  0.1140 -0.0295
  913loPI   C3B13259   8.246   4.483   6.793  0.0967  0.0758  0.0328
  913loPI   C4B13260   8.261   4.711   7.069 -0.0833  0.6663 -0.1083
  914loPI    C113261  11.645  15.520   6.331  0.3564  0.0758 -0.1300
  914loPI    C213262  11.836  15.499   5.980 -0.0645 -0.0461 -0.3582
  914loPI    C313263  11.439  15.547   5.990 -0.0216  0.2907  0.1077
  914loPI   PO413264  11.897  15.639   6.469  0.2117  0.0154 -0.0421
  914loPI   GL113265  12.118  15.619   6.828  0.0271  0.1355 -0.2265
  914loPI   GL213266  12.383  15.739   6.794 -0.0023  0.0508 -0.0327
  914loPI   C1A13267  12.080  15.668   7.304 -0.0631 -0.0237 -0.2940
  914loPI   C2A13268  12.012  15.694   7.790 -0.0713 -0.0964 -0.3694
  914loPI   C3A13269  11.565  15.952   7.918 -0.0510 -0.1265  0.1911
  914loPI   C4A13270  11.193  15.762   8.103 -0.3849 -0.2762  0.1404
  914loPI   C5A13271  10.731  15.806   8.308  0.2507 -0.0329  0.2983
  914loPI   C6A13272  10.791  15.694   8.704 -0.0837  0.1330 -0.1283
  914loPI   C1B13273  12.425  15.945   7.164 -0.0549  0.2054  0.0411
  914loPI   C2B13274  12.381  15.996   7.651  0.0835  0.1294  0.0741
  914loPI   C3B13275  12.637  16.150   8.054  0.1008  0.0312  0.0144
  914loPI   C4B13276  12.475  16.498   8.367 -0.1890 -0.2605 -0.2035
  915loPI    C113277  12.866  16.134   6.232 -0.1544 -0.1024 -0.1973
  915loPI    C213278  13.092  15.922   5.978 -0.0732 -0.0856 -0.1395
  915loPI    C313279  13.173  16.308   6.043 -0.0163 -0.1214  0.0065
  915loPI   PO413280  12.840  16.053   6.442  0.0530  0.1048 -0.1251
  915loPI   GL113281  13.011  16.179   6.853  0.3599  0.1751 -0.1349
  915loPI   GL213282  12.839  15.902   6.922  0.2092  0.4941 -0.2302
  915loPI   C1A13283  12.932  16.477   7.164  0.0627 -0.1428  0.1218
  915loPI   C2A13284  13.089  16.791   7.502 -0.0049  0.1201  0.0423
  915loPI   C3A13285  12.989  17.058   7.747  0.0347  0.0228  0.3719
  915loPI   C4A13286  12.735  17.441   7.821  0.0965  0.2762  0.0127
  915loPI   C5A13287  12.520  17.872   7.835  0.1923 -0.2956  0.0623
  915loPI   C6A13288  12.330  18.204   7.823  0.1260 -0.2005 -0.2220
  915loPI   C1B13289  12.878  15.924   7.363  0.1682  0.2324  0.2847
  915loPI   C2B13290  12.883  15.793   7.767 -0.1504  0.2209  0.0590
  915loPI   C3B13291  12.854  15.767   8.241 -0.1777 -0.2840 -0.0423
  915loPI   C4B13292  13.150  15.780   8.669 -0.0159  0.2275  0.1559
  916loPI    C113293   9.814   3.878   5.356  0.0479  0.3134  0.1066
  916loPI    C213294   9.460   3.789   5.519  0.0167  0.1624 -0.0411
  916loPI    C313295   9.481   3.900   5.135  0.1492 -0.0130 -0.0860
  916loPI   PO413296   9.889   4.046   5.548 -0.2523  0.0367 -0.0789
  916loPI   GL113297   9.580   4.166   5.831 -0.0465 -0.1897  0.2704
  916loPI   GL213298   9.366   4.361   5.833 -0.2749  0.0288  0.1139
  916loPI   C1A13299   9.688   4.113   6.238  0.0147 -0.0258  0.0567
  916loPI   C2A13300   9.602   4.192   6.650 -0.1977  0.0999 -0.1677
  916loPI   C3A13301   9.636   4.194   7.129 -0.1278 -0.3138  0.3650
  916loPI   C4A13302   9.583   4.143   7.504 -0.2623 -0.1330 -0.0743
  916loPI   C5A13303   9.364   3.996   7.754 -0.1725 -0.0095 -0.2642
  916loPI   C6A13304   9.038   3.839   7.785  0.2226 -0.1461  0.2130
  916loPI   C1B13305   9.156   4.370   6.217 -0.0056 -0.0419 -0.0577
  916loPI   C2B13306   9.159   4.500   6.624  0.1716  0.0392 -0.0407
  916loPI   C3B13307   9.098   4.473   7.011 -0.2858 -0.1608  0.1040
  916loPI   C4B13308   8.722   4.554   7.273  0.1218 -0.0478  0.4443
  917loPI    C113309  15.949  14.187   5.908  0.1780 -0.2947  0.0892
  917loPI    C213310  16.111  14.110   5.551  0.2216 -0.1272  0.0721
  917loPI    C313311  15.726  14.214   5.577  0.2341 -0.0799  0.0675
  917loPI   PO413312  16.072  14.331   6.056 -0.1292 -0.1118  0.2468
  917loPI   GL113313  16.382  14.292   6.254  0.0206  0.1865  0.0601
  917loPI   GL213314  16.465  14.638   6.190  0.0341 -0.2218  0.0202
  917loPI   C1A13315  16.574  14.124   6.576 -0.3963  0.1307 -0.1533
  917loPI   C2A13316  16.605  14.020   7.006 -0.0218  0.1474  0.0762
  917loPI   C3A13317  16.359  13.942   7.407  0.2031  0.1110 -0.0335
  917loPI   C4A13318  16.542  13.988   7.807  0.3769 -0.0046 -0.1612
  917loPI   C5A13319  16.866  14.252   7.869  0.0524 -0.0460  0.0016
  917loPI   C6A13320  17.055  14.234   8.230 -0.2666  0.0358  0.4508
  917loPI   C1B13321  16.439  14.581   6.622 -0.2767 -0.2615 -0.4736
  917loPI   C2B13322  16.575  14.577   7.039 -0.1006  0.2453 -0.0833
  917loPI   C3B13323  16.582  14.406   7.408  0.1936 -0.0644 -0.0136
  917loPI   C4B13324  16.877  14.024   7.418 -0.0522  0.3288 -0.2087
  918loPI    C113325  14.755  10.155   5.107 -0.0671  0.3594 -0.2286
  918loPI    C213326  15.113  10.333   5.110  0.1819 -0.1249 -0.0170
  918loPI    C313327  15.036  10.044   4.844  0.0305 -0.1839  0.0901
  918loPI   PO413328  14.734  10.210   5.514  0.1418  0.3347  0.1615
  918loPI   GL113329  14.836  10.373   5.998 -0.1248 -0.2611 -0.0343
  918loPI   GL213330  14.802  10.575   5.946  0.0931 -0.0952  0.1513
  918loPI   C1A13331  14.765  10.115   6.346  0.0251 -0.0384 -0.1834
  918loPI   C2A13332  14.776  10.101   6.782 -0.1202 -0.0635  0.1076
  918loPI   C3A13333  14.759  10.142   7.232 -0.0339  0.3163 -0.2602
  918loPI   C4A13334  14.655  10.110   7.615 -0.0090 -0.0218 -0.3247
  918loPI   C5A13335  14.956   9.897   7.995  0.2807 -0.0238  0.1014
  918loPI   C6A13336  14.945   9.507   8.229  0.1603  0.2680  0.1471
  918loPI   C1B13337  14.859  10.851   6.207  0.3120  0.1124  0.1068
  918loPI   C2B13338  14.823  11.129   6.536 -0.1141 -0.1146  0.1271
  918loPI   C3B13339  14.773  11.137   6.899 -0.1596 -0.2062 -0.0014
  918loPI   C4B13340  14.745  11.215   7.326  0.0735  0.2442  0.1379
  919loPI    C113341   2.432  10.987   5.952  0.0248 -0.0899  0.0554
  919loPI    C213342   2.211  11.243   5.738  0.1581 -0.0775 -0.0688
  919loPI    C313343   2.260  10.866   5.612  0.0737 -0.1266  0.0436
  919loPI   PO413344   2.622  11.090   5.996  0.2879 -0.1746 -0.3128
  919loPI   GL113345   2.921  11.187   6.357  0.2092 -0.0370 -0.3183
  919loPI   GL213346   2.832  11.457   6.376 -0.0899 -0.0695 -0.1021
  919loPI   C1A13347   3.108  11.246   6.761  0.0337  0.4444 -0.0893
  919loPI   C2A13348   3.224  11.325   7.140  0.0665 -0.0555  0.1575
  919loPI   C3A13349   3.253  11.174   7.601  0.2209  0.0759  0.0266
  919loPI   C4A13350   3.083  10.908   7.934  0.1711  0.2227  0.2381
  919loPI   C5A13351   2.751  10.833   8.173 -0.2891  0.0956  0.0176
  919loPI   C6A13352   2.681  10.956   8.636  0.1215 -0.0188 -0.0145
  919loPI   C1B13353   2.357  11.292   6.584  0.0970  0.4052  0.0682
  919loPI   C2B13354   2.183  11.074   6.930  0.0140 -0.0513  0.2054
  919loPI   C3B13355   1.944  10.754   7.131 -0.0954 -0.2995  0.3572
  919loPI   C4B13356   1.895  10.706   7.467 -0.0316  0.0751 -0.2630
  920loPI    C113357  12.141   3.328   5.559 -0.1970  0.2003 -0.0997
  920loPI    C213358  12.116   2.947   5.441  0.0380  0.1375  0.0443
  920loPI    C313359  12.105   3.241   5.171  0.1211  0.0167 -0.0924
  920loPI   PO413360  12.437   3.367   5.723  0.1823 -0.0897 -0.1501
  920loPI   GL113361  12.767   3.587   6.022 -0.1076 -0.0330 -0.4768
  920loPI   GL213362  12.510   3.758   6.042 -0.0615 -0.0996  0.2228
  920loPI   C1A13363  12.643   3.547   6.435  0.0421 -0.0575  0.0559
  920loPI   C2A13364  12.489   3.608   6.857  0.2158  0.0567  0.0820
  920loPI   C3A13365  12.462   3.776   7.215  0.0917 -0.0057  0.1936
  920loPI   C4A13366  12.443   3.717   7.617  0.2826 -0.0243 -0.0009
  920loPI   C5A13367  12.311   3.564   8.015 -0.2272  0.0458  0.0134
  920loPI   C6A13368  12.396   3.189   8.226 -0.1779 -0.0880 -0.1385
  920loPI   C1B13369  12.447   3.982   6.420  0.0367  0.1034  0.0850
  920loPI   C2B13370  12.579   4.227   6.829 -0.1141 -0.0658 -0.1938
  920loPI   C3B13371  12.747   4.289   7.217 -0.1071 -0.0432  0.0905
  920loPI   C4B13372  12.579   4.234   7.608 -0.0001 -0.2380 -0.2204
  921loPI    C113373   0.107  16.142   5.723 -0.1189  0.0598  0.1882
  921loPI    C213374   0.020  15.766   5.829 -0.0201 -0.0499 -0.1080
  921loPI    C313375   0.288  15.835   5.541  0.0668  0.2536  0.0413
  921loPI   PO413376  -0.099  16.286   5.734  0.0870 -0.0076 -0.0250
  921loPI   GL113377  -0.368  16.307   6.052 -0.0553 -0.2614  0.1594
  921loPI   GL213378  -0.087  16.273   6.219  0.1858  0.0646 -0.0264
  921loPI   C1A13379  -0.590  16.580   6.366  0.1319 -0.0688 -0.1544
  921loPI   C2A13380  -0.613  16.574   6.858 -0.1727 -0.1323  0.1339
  921loPI   C3A13381  -0.651  16.972   7.112 -0.2606  0.1077  0.0783
  921loPI   C4A13382  -0.527  17.096   7.455 -0.1880 -0.3097 -0.3716
  921loPI   C5A13383  -0.469  17.104   7.927 -0.2126 -0.0777  0.0056
  921loPI   C6A13384  -0.106  16.966   8.205  0.3584 -0.0533  0.2612
  921loPI   C1B13385  -0.151  16.442   6.638  0.3302 -0.0792  0.1440
  921loPI   C2B13386  -0.223  16.665   7.054  0.0232 -0.0663 -0.2251
  921loPI   C3B13387  -0.374  16.644   7.463  0.1005 -0.2628 -0.4256
  921loPI   C4B13388  -0.382  16.568   7.968 -0.1759 -0.0106  0.1964
  922loPI    C113389   9.283   8.861   5.360 -0.1308  0.2383 -0.0391
  922loPI    C213390   9.349   8.798   4.971 -0.0668 -0.1671  0.0329
  922loPI    C313391   9.001   8.689   5.135 -0.1184  0.0610  0.0785
  922loPI   PO413392   9.607   8.796   5.549 -0.0748 -0.2143  0.3558
  922loPI   GL113393   9.800   8.686   5.890  0.0660 -0.0494 -0.3237
  922loPI   GL213394   9.568   8.741   6.089 -0.0433  0.1213  0.2229
  922loPI   C1A13395  10.074   8.836   6.345 -0.2548  0.3162 -0.0003
  922loPI   C2A13396   9.994   8.795   6.828  0.2056 -0.0178  0.3382
  922loPI   C3A13397   9.831   8.629   7.286  0.1032 -0.1674 -0.3906
  922loPI   C4A13398  10.156   8.744   7.585 -0.1496  0.0892 -0.1110
  922loPI   C5A13399  10.175   8.743   7.998  0.2530 -0.2757 -0.1085
  922loPI   C6A13400  10.245   8.315   8.238  0.1257 -0.0868  0.0900
  922loPI   C1B13401   9.622   8.495   6.500  0.0468 -0.1263  0.0094
  922loPI   C2B13402   9.708   8.271   6.883  0.0417 -0.0181 -0.1358
  922loPI   C3B13403   9.755   8.038   7.241  0.2462 -0.2516 -0.0040
  922loPI   C4B13404   9.786   7.787   7.557  0.0695  0.2197 -0.1098
  923loPI    C113405   4.899  17.911   5.336  0.1438  0.3445  0.1103
  923loPI    C213406   5.010  17.646   5.058 -0.3613  0.2164  0.0208
  923loPI    C313407   4.980  18.033   4.964  0.0291  0.2599  0.0571
  923loPI   PO413408   4.720  17.746   5.453  0.2405  0.0066 -0.1694
  923loPI   GL113409   4.483  17.897   5.773 -0.0724  0.0622  0.0384
  923loPI   GL213410   4.665  18.139   5.718 -0.4321 -0.0508 -0.0723
  923loPI   C1A13411   4.617  17.797   6.241  0.0709 -0.0286  0.0725
  923loPI   C2A13412   4.701  17.893   6.672 -0.2151  0.0747 -0.2354
  923loPI   C3A13413   4.677  17.913   7.116 -0.0142  0.0776 -0.1711
  923loPI   C4A13414   4.625  17.687   7.569  0.2690  0.0550  0.2351
  923loPI   C5A13415   4.377  17.635   7.919  0.1619  0.2811 -0.0177
  923loPI   C6A13416   3.992  17.642   8.062  0.1619 -0.2276 -0.1260
  923loPI   C1B13417   4.704  18.305   6.141  0.0898  0.0150 -0.0807
  923loPI   C2B13418   4.913  18.294   6.510  0.2324  0.0318  0.2629
  923loPI   C3B13419   5.016  18.199   6.921 -0.1405  0.1071 -0.0179
  923loPI   C4B13420   5.108  18.060   7.468  0.1392 -0.0537  0.2056
  924loPI    C113421  15.466   6.148   5.061 -0.0154  0.1519 -0.0064
  924loPI    C213422  15.725   6.186   4.758  0.0896  0.3943  0.1116
  924loPI    C313423  15.343   6.092   4.685  0.2443 -0.1389 -0.0524
  924loPI   PO413424  15.485   6.005   5.209 -0.1534 -0.0531  0.6087
  924loPI   GL113425  15.435   5.847   5.541  0.1852 -0.0157  0.0644
  924loPI   GL213426  15.313   5.622   5.439 -0.1610  0.1879 -0.2086
  924loPI   C1A13427  15.679   5.861   5.915 -0.1815  0.3159  0.1756
  924loPI   C2A13428  15.773   5.826   6.362  0.0447 -0.1524 -0.0962
  924loPI   C3A13429  15.630   5.802   6.822  0.3563  0.0554  0.3663
  924loPI   C4A13430  15.655   5.722   7.173  0.0160 -0.1142  0.0120
  924loPI   C5A13431  15.745   5.838   7.555  0.1225 -0.3166 -0.1698
  924loPI   C6A13432  15.847   6.133   7.737  0.1852  0.1143 -0.3031
  924loPI   C1B13433  15.499   5.377   5.902  0.1099  0.2032  0.0790
  924loPI   C2B13434  15.475   5.385   6.322 -0.0325  0.1263 -0.1193
  924loPI   C3B13435  15.440   5.339   6.747  0.3081  0.0429  0.3239
  924loPI   C4B13436  15.368   5.306   7.200  0.0266  0.2349 -0.1132
  925loPI    C113437   9.311   7.764   5.254 -0.2437  0.2072  0.1714
  925loPI    C213438   9.313   7.956   4.903 -0.0809  0.0666  0.0935
  925loPI    C313439   9.128   7.603   4.936  0.0077  0.0223  0.1172
  925loPI   PO413440   9.204   7.946   5.501  0.1313 -0.2159 -0.3466
  925loPI   GL113441   9.035   7.727   5.891 -0.3583  0.5245  0.0288
  925loPI   GL213442   9.041   8.125   5.946 -0.2784 -0.1077  0.0902
  925loPI   C1A13443   8.864   7.751   6.252 -0.1885 -0.0744 -0.0600
  925loPI   C2A13444   8.974   7.735   6.702 -0.0275  0.0636  0.0654
  925loPI   C3A13445   8.872   7.719   7.113 -0.0655  0.0521  0.3783
  925loPI   C4A13446   8.955   7.849   7.638 -0.0693 -0.2601 -0.1407
  925loPI   C5A13447   8.983   7.732   8.041  0.0410 -0.1131  0.2319
  925loPI   C6A13448   8.856   7.411   8.252 -0.0472 -0.0130 -0.1944
  925loPI   C1B13449   9.151   8.197   6.357 -0.1403  0.0530  0.0902
  925loPI   C2B13450   9.059   8.331   6.813 -0.0918  0.0565 -0.2107
  925loPI   C3B13451   9.256   8.204   7.174 -0.0409  0.2480  0.1485
  925loPI   C4B13452   9.413   8.110   7.616  0.0371  0.2273  0.0109
  926loPI    C113453  13.941   2.848   5.133 -0.0300  0.1137 -0.1475
  926loPI    C213454  13.868   2.456   5.101 -0.0301  0.1019 -0.0083
  926loPI    C313455  14.054   2.650   4.805  0.0200 -0.0146 -0.0535
  926loPI   PO413456  14.039   2.878   5.399 -0.4019 -0.2060 -0.0687
  926loPI   GL113457  14.159   2.876   5.802  0.1220  0.0217  0.1355
  926loPI   GL213458  14.351   2.540   5.919  0.0272 -0.0510  0.2520
  926loPI   C1A13459  14.022   2.886   6.274  0.0509  0.0463  0.1977
  926loPI   C2A13460  13.852   3.287   6.561  0.2208  0.0424  0.1872
  926loPI   C3A13461  13.706   3.237   7.047 -0.0031  0.1279 -0.4095
  926loPI   C4A13462  13.752   3.162   7.457  0.1123  0.1686 -0.4633
  926loPI   C5A13463  13.645   3.453   7.757 -0.1059 -0.1279  0.1454
  926loPI   C6A13464  13.244   3.577   7.792  0.0798  0.0163  0.2756
  926loPI   C1B13465  14.518   2.612   6.282  0.1577 -0.1130  0.0027
  926loPI   C2B13466  14.667   2.715   6.612  0.1128 -0.1951 -0.4547
  926loPI   C3B13467  14.702   2.920   7.061 -0.1467 -0.0116 -0.0767
  926loPI   C4B13468  14.794   3.047   7.503 -0.3308 -0.0855 -0.1232
  927loPI    C113469  14.681  17.211   5.909  0.2307  0.0437 -0.0033
  927loPI    C213470  14.605  17.603   5.938 -0.0549 -0.0196  0.1401
  927loPI    C313471  14.424  17.384   5.657  0.0333 -0.0668  0.1195
  927loPI   PO413472  14.656  17.128   6.161  0.0665 -0.2023 -0.1742
  927loPI   GL113473  14.713  17.306   6.437  0.2077 -0.0571  0.0386
  927loPI   GL213474  14.388  17.381   6.483  0.0441  0.4518  0.3450
  927loPI   C1A13475  14.779  17.193   6.844  0.1765  0.2147  0.1761
  927loPI   C2A13476  14.803  17.216   7.328  0.4304  0.0664  0.0535
  927loPI   C3A13477  14.879  17.100   7.652  0.1823  0.1951  0.0262
  927loPI   C4A13478  14.725  17.179   8.056 -0.0330  0.0585  0.0928
  927loPI   C5A13479  14.514  17.459   8.401 -0.2309 -0.2608 -0.0237
  927loPI   C6A13480  14.029  17.395   8.446 -0.1932  0.0501 -0.2200
  927loPI   C1B13481  14.364  17.533   6.912 -0.1225  0.1891 -0.0235
  927loPI   C2B13482  14.214  17.734   7.217  0.1153  0.0491 -0.4281
  927loPI   C3B13483  14.134  17.786   7.681 -0.0360  0.0050 -0.1284
  927loPI   C4B13484  14.214  17.918   8.117  0.0557  0.0125 -0.4581
  928loPI    C113485   8.609   1.158   5.021  0.2357 -0.0065  0.0663
  928loPI    C213486   8.964   1.131   4.840  0.2496 -0.0190  0.0953
  928loPI    C313487   8.648   0.938   4.689  0.2438  0.0316  0.0421
  928loPI   PO413488   8.706   1.207   5.294 -0.2655 -0.1656 -0.1957
  928loPI   GL113489   8.855   1.054   5.761  0.2006 -0.1329 -0.0782
  928loPI   GL213490   8.512   0.843   5.699 -0.1765 -0.3769  0.1657
  928loPI   C1A13491   8.853   1.096   6.282  0.1273  0.0216  0.1188
  928loPI   C2A13492   8.838   1.103   6.757  0.2219 -0.1240 -0.1221
  928loPI   C3A13493   8.903   1.083   7.198 -0.0025 -0.2233  0.2944
  928loPI   C4A13494   9.104   1.329   7.477  0.1513  0.1014 -0.0558
  928loPI   C5A13495   9.350   1.322   7.916 -0.1817  0.2403  0.0517
  928loPI   C6A13496   9.625   1.204   8.198  0.0381  0.3060  0.1707
  928loPI   C1B13497   8.365   0.807   6.168  0.1144  0.1444 -0.1247
  928loPI   C2B13498   8.415   0.831   6.677  0.1216 -0.3427 -0.0222
  928loPI   C3B13499   8.535   0.752   7.105 -0.1316 -0.1712  0.2303
  928loPI   C4B13500   8.686   0.740   7.529 -0.2607 -0.0430  0.2047
  929loPI    C113501  14.952   6.208   5.021  0.0212  0.1356 -0.0852
  929loPI    C213502  14.811   6.564   5.138 -0.2473  0.0189 -0.0453
  929loPI    C313503  14.608   6.346   4.871 -0.1585 -0.1680  0.0380
  929loPI   PO413504  14.949   6.017   5.258 -0.2108  0.1253  0.1187
  929loPI   GL113505  15.001   6.005   5.716  0.1232 -0.0884  0.0317
  929loPI   GL213506  14.689   5.797   5.649 -0.1806 -0.0768  0.0799
  929loPI   C1A13507  14.863   6.190   6.163 -0.0738 -0.2246  0.2051
  929loPI   C2A13508  14.869   6.199   6.585 -0.4543 -0.0295  0.1592
  929loPI   C3A13509  14.794   6.223   7.006 -0.1156  0.1784 -0.0314
  929loPI   C4A13510  14.853   6.224   7.480  0.5093 -0.3276  0.0713
  929loPI   C5A13511  15.143   6.530   7.638 -0.0597  0.0898  0.3032
  929loPI   C6A13512  15.504   6.478   7.726  0.2642  0.0056 -0.2530
  929loPI   C1B13513  14.644   5.768   6.176  0.0225  0.1572 -0.2577
  929loPI   C2B13514  14.712   5.615   6.672  0.3192  0.2227 -0.1527
  929loPI   C3B13515  14.638   5.696   7.097  0.2047  0.0050  0.0139
  929loPI   C4B13516  14.654   5.732   7.549 -0.3210  0.1269 -0.0191
  930loPI    C113517   6.508   0.037   5.048 -0.0588 -0.0230 -0.0972
  930loPI    C213518   6.236   0.101   4.762 -0.0767  0.1163 -0.0499
  930loPI    C313519   6.600   0.264   4.732 -0.0805  0.1358  0.0093
  930loPI   PO413520   6.366   0.107   5.265  0.0273  0.4689  0.0773
  930loPI   GL113521   6.406   0.199   5.647  0.2198 -0.1775 -0.1690
  930loPI   GL213522   6.143   0.090   5.757 -0.1241 -0.1597 -0.0059
  930loPI   C1A13523   6.421   0.167   6.184 -0.1732  0.0220 -0.1667
  930loPI   C2A13524   6.269   0.271   6.573  0.0862 -0.0409 -0.1266
  930loPI   C3A13525   6.317   0.452   6.929 -0.1140 -0.1387 -0.0740
  930loPI   C4A13526   6.206   0.782   7.030 -0.0632  0.3076 -0.0177
  930loPI   C5A13527   6.247   1.097   7.368 -0.1747  0.0043  0.1259
  930loPI   C6A13528   6.064   1.388   7.431  0.1987  0.1569  0.0261
  930loPI   C1B13529   6.024   0.418   6.039 -0.2493  0.0054  0.2140
  930loPI   C2B13530   5.982   0.873   5.958  0.2590  0.3042  0.0778
  930loPI   C3B13531   5.781   1.278   5.933  0.3552  0.0983 -0.0085
  930loPI   C4B13532   5.481   1.553   5.862 -0.1702 -0.0135  0.2592
  931loPI    C113533   8.604   1.973   5.139 -0.0504 -0.0620 -0.0399
  931loPI    C213534   8.425   1.641   5.006 -0.0898  0.0277 -0.2138
  931loPI    C313535   8.824   1.655   5.037 -0.0972 -0.0897 -0.0545
  931loPI   PO413536   8.378   2.111   5.375  0.0127 -0.0782  0.1117
  931loPI   GL113537   8.391   1.895   5.704  0.3385  0.3466 -0.0405
  931loPI   GL213538   8.482   1.601   5.477  0.0889 -0.0244 -0.2665
  931loPI   C1A13539   8.217   2.143   6.037 -0.3479 -0.1997 -0.1774
  931loPI   C2A13540   8.071   2.306   6.524  0.0685 -0.2194 -0.2862
  931loPI   C3A13541   8.165   2.354   6.905 -0.3451  0.1547  0.2535
  931loPI   C4A13542   8.052   2.390   7.229 -0.1278  0.0903  0.2027
  931loPI   C5A13543   8.012   2.583   7.507  0.1052 -0.0041  0.0346
  931loPI   C6A13544   7.806   2.356   7.958  0.2339  0.0427  0.2914
  931loPI   C1B13545   8.769   1.546   5.813 -0.1064  0.0054  0.2013
  931loPI   C2B13546   8.896   1.590   6.255 -0.0589  0.0773 -0.1420
  931loPI   C3B13547   8.894   1.628   6.689 -0.0764 -0.2759 -0.1537
  931loPI   C4B13548   8.809   1.607   7.045 -0.1015  0.1366  0.2855
  932loPI    C113549   4.724   2.938   5.088 -0.0831  0.0020  0.3800
  932loPI    C213550   4.389   2.733   5.014 -0.1013  0.0615  0.2953
  932loPI    C313551   4.556   2.953   4.725  0.0955 -0.0894  0.2920
  932loPI   PO413552   4.781   2.921   5.291  0.0824 -0.1107 -0.2158
  932loPI   GL113553   4.734   3.230   5.662  0.3977  0.1109 -0.1919
  932loPI   GL213554   4.486   3.414   5.624 -0.1333  0.0897  0.0786
  932loPI   C1A13555   4.570   3.109   6.087 -0.1818  0.1366 -0.1165
  932loPI   C2A13556   4.728   3.159   6.503  0.1061 -0.1760 -0.3085
  932loPI   C3A13557   4.930   3.297   6.882 -0.1572 -0.1109 -0.1403
  932loPI   C4A13558   5.104   3.166   7.310  0.1987  0.2137 -0.1870
  932loPI   C5A13559   5.368   2.828   7.488  0.1643  0.0566 -0.2179
  932loPI   C6A13560   5.475   2.792   7.948  0.1521  0.1092 -0.0055
  932loPI   C1B13561   4.525   3.600   5.999  0.0307 -0.0429 -0.3322
  932loPI   C2B13562   4.486   3.584   6.390  0.4033 -0.0635 -0.0157
  932loPI   C3B13563   4.449   3.513   6.854 -0.0218  0.1230  0.1823
  932loPI   C4B13564   4.137   3.355   7.069 -0.1732 -0.0775 -0.0172
  933loPI    C113565  15.526   3.477   5.280 -0.1372  0.0484  0.3001
  933loPI    C213566  15.827   3.724   5.190 -0.1972 -0.0785 -0.2885
  933loPI    C313567  15.449   3.848   5.151 -0.2291 -0.0382  0.1028
  933loPI   PO413568  15.618   3.366   5.582  0.1364  0.0646 -0.2120
  933loPI   GL113569  15.566   3.527   5.973  0.0347 -0.0747 -0.0497
  933loPI   GL213570  15.346   3.805   6.128  0.3037 -0.0584 -0.0071
  933loPI   C1A13571  15.746   3.537   6.319 -0.3737 -0.3025  0.3209
  933loPI   C2A13572  15.627   3.533   6.703 -0.1592  0.3006 -0.0410
  933loPI   C3A13573  15.389   3.366   7.076  0.0398  0.0825 -0.1035
  933loPI   C4A13574  14.994   3.345   7.202  0.1168  0.0430 -0.2455
  933loPI   C5A13575  14.619   3.530   7.489 -0.2340 -0.5189  0.2742
  933loPI   C6A13576  14.226   3.366   7.546  0.2152  0.2983  0.0524
  933loPI   C1B13577  15.357   3.981   6.526  0.1035 -0.2067 -0.0986
  933loPI   C2B13578  15.483   3.990   6.921  0.2797  0.1582 -0.3812
  933loPI   C3B13579  15.651   3.844   7.297 -0.2274  0.4778 -0.0474
  933loPI   C4B13580  15.918   3.883   7.641 -0.0512  0.1253  0.1480
  934loPI    C113581  10.821  13.721   5.884  0.1572  0.0000  0.0432
  934loPI    C213582  10.887  13.953   5.565  0.1520 -0.0484  0.0069
  934loPI    C313583  10.772  13.573   5.516 -0.0643  0.0072  0.0678
  934loPI   PO413584  10.773  13.918   6.066 -0.4329  0.0983  0.0662
  934loPI   GL113585  11.004  14.177   6.396 -0.2831  0.2384 -0.2909
  934loPI   GL213586  10.847  13.860   6.557 -0.0912 -0.1472  0.0583
  934loPI   C1A13587  11.031  14.199   6.876 -0.0743  0.3893  0.0428
  934loPI   C2A13588  10.876  14.136   7.290 -0.2965  0.0113  0.0552
  934loPI   C3A13589  10.884  14.419   7.695  0.1881  0.0318 -0.1474
  934loPI   C4A13590  10.798  14.704   8.085  0.1337 -0.1556 -0.0078
  934loPI   C5A13591  11.112  15.035   8.328 -0.0385 -0.0852  0.1421
  934loPI   C6A13592  11.412  15.314   8.327 -0.1892  0.1830  0.0119
  934loPI   C1B13593  10.848  13.679   7.000  0.2035 -0.1479  0.0623
  934loPI   C2B13594  10.993  13.615   7.420  0.2066 -0.0096 -0.1254
  934loPI   C3B13595  10.743  13.751   7.758  0.1302 -0.0668 -0.1537
  934loPI   C4B13596  10.377  13.646   8.007  0.1303 -0.1665  0.0383
  935loPI    C113597   6.914   4.392   4.796  0.2834  0.0849  0.2143
  935loPI    C213598   6.751   4.745   4.700  0.1510 -0.0554 -0.0926
  935loPI    C313599   7.014   4.572   4.453 -0.0509 -0.3356 -0.1161
  935loPI   PO413600   6.901   4.460   5.074  0.0747  0.1391 -0.2775
  935loPI   GL113601   6.738   4.262   5.429  0.3684  0.1558 -0.0671
  935loPI   GL213602   6.863   4.268   5.809 -0.4322 -0.2281 -0.0470
  935loPI   C1A13603   6.322   4.171   5.796  0.0213 -0.0524  0.1488
  935loPI   C2A13604   6.124   4.171   6.169  0.0734 -0.1075  0.0696
  935loPI   C3A13605   6.060   4.221   6.609 -0.0286 -0.0035 -0.2625
  935loPI   C4A13606   5.916   4.420   6.939 -0.1381 -0.1921 -0.1815
  935loPI   C5A13607   5.928   4.499   7.419 -0.1037  0.4030  0.0665
  935loPI   C6A13608   5.940   4.221   7.808 -0.0476  0.1827  0.1546
  935loPI   C1B13609   7.038   4.488   6.205 -0.0393  0.0470 -0.2373
  935loPI   C2B13610   7.126   4.531   6.646 -0.2926  0.0353  0.1371
  935loPI   C3B13611   7.416   4.285   6.839  0.1539  0.1137 -0.1025
  935loPI   C4B13612   7.268   4.013   7.180  0.0618 -0.1980 -0.1074
  936loPI    C113613   7.777  15.893   5.424  0.1268 -0.0211  0.2481
  936loPI    C213614   7.765  15.935   5.026  0.0830  0.1630  0.2679
  936loPI    C313615   8.057  15.721   5.196  0.0953  0.0741  0.1362
  936loPI   PO413616   7.437  15.841   5.523  0.1913 -0.2065  0.3103
  936loPI   GL113617   7.273  15.824   5.914 -0.1324 -0.2798  0.0679
  936loPI   GL213618   7.104  16.066   5.934  0.1055 -0.2612  0.0211
  936loPI   C1A13619   7.205  15.691   6.295  0.0695  0.1793 -0.2141
  936loPI   C2A13620   7.063  15.701   6.730  0.2158  0.1173  0.3646
  936loPI   C3A13621   6.879  15.702   7.182  0.1056 -0.2168  0.2497
  936loPI   C4A13622   6.717  15.899   7.456  0.1095  0.1581  0.1338
  936loPI   C5A13623   6.767  16.087   7.866  0.0975  0.2556 -0.0547
  936loPI   C6A13624   6.477  15.977   8.223  0.0137 -0.2298  0.3005
  936loPI   C1B13625   7.158  16.272   6.238 -0.0773 -0.1986  0.2950
  936loPI   C2B13626   7.103  16.508   6.588  0.1301  0.1047  0.3649
  936loPI   C3B13627   7.081  16.559   6.959 -0.0752 -0.1150  0.0762
  936loPI   C4B13628   7.109  16.706   7.408 -0.1950  0.3264  0.3668
  937loPI    C113629   1.778  11.604   5.736  0.0847  0.0681  0.0228
  937loPI    C213630   1.722  11.999   5.750  0.2716  0.0929  0.1085
  937loPI    C313631   1.613  11.793   5.425 -0.1581  0.1596  0.2037
  937loPI   PO413632   1.976  11.622   5.981  0.1968 -0.3217 -0.1808
  937loPI   GL113633   1.900  11.906   6.300 -0.1126 -0.0743  0.0024
  937loPI   GL213634   2.250  12.033   6.118  0.1631 -0.0572  0.2047
  937loPI   C1A13635   1.980  12.078   6.648  0.1964 -0.0663 -0.2476
  937loPI   C2A13636   1.888  12.026   7.110 -0.3638  0.1182  0.0813
  937loPI   C3A13637   1.762  11.762   7.357 -0.0918  0.1609 -0.1206
  937loPI   C4A13638   1.751  11.535   7.718  0.1874  0.0275 -0.0349
  937loPI   C5A13639   2.079  11.197   7.959 -0.0269 -0.1300 -0.1258
  937loPI   C6A13640   2.201  10.795   7.909  0.0670  0.1404 -0.1759
  937loPI   C1B13641   2.383  11.820   6.474  0.1230 -0.0002 -0.1548
  937loPI   C2B13642   2.614  11.585   6.822 -0.0331  0.0467 -0.1234
  937loPI   C3B13643   2.623  11.252   7.106 -0.1136 -0.0558 -0.0766
  937loPI   C4B13644   2.340  10.961   7.390  0.1976  0.0510  0.1624
  938loPI    C113645  12.908   7.557   5.437 -0.2065  0.1725  0.1169
  938loPI    C213646  12.960   7.922   5.283  0.3341  0.0965  0.0991
  938loPI    C313647  12.992   7.599   5.048  0.0561  0.0252  0.1552
  938loPI   PO413648  13.059   7.549   5.655 -0.4934 -0.2935 -0.1561
  938loPI   GL113649  13.230   7.733   6.035  0.0261  0.3068 -0.0561
  938loPI   GL213650  13.451   7.883   6.106  0.0801  0.4014 -0.0146
  938loPI   C1A13651  13.234   7.804   6.601  0.3568  0.2244 -0.2869
  938loPI   C2A13652  13.209   7.808   7.048 -0.2487  0.1117  0.1238
  938loPI   C3A13653  13.259   7.738   7.566 -0.0501 -0.4143 -0.1256
  938loPI   C4A13654  13.417   7.839   7.949  0.0597 -0.1453  0.0975
  938loPI   C5A13655  13.261   8.125   8.196 -0.0429 -0.2189 -0.3038
  938loPI   C6A13656  13.414   8.419   8.421 -0.0904  0.0196  0.2355
  938loPI   C1B13657  13.655   8.023   6.491  0.0795 -0.0186  0.2822
  938loPI   C2B13658  13.661   7.974   6.894  0.0882  0.2428 -0.0680
  938loPI   C3B13659  13.671   7.934   7.310  0.0754 -0.1850  0.1012
  938loPI   C4B13660  13.901   8.084   7.721 -0.2642  0.0775  0.0559
  939loPI    C113661   6.855  11.455   5.710  0.0263 -0.1997 -0.0279
  939loPI    C213662   7.182  11.336   5.512  0.0996  0.1781 -0.1415
  939loPI    C313663   6.836  11.384   5.317 -0.0461 -0.2827 -0.0098
  939loPI   PO413664   6.908  11.738   5.829 -0.2100 -0.0740  0.1163
  939loPI   GL113665   6.987  11.781   6.188 -0.0483  0.1142 -0.2133
  939loPI   GL213666   6.617  11.705   6.181 -0.1167  0.3454  0.1619
  939loPI   C1A13667   7.014  11.735   6.597 -0.1095  0.0349 -0.0563
  939loPI   C2A13668   6.693  11.885   6.935 -0.1928 -0.0474  0.0442
  939loPI   C3A13669   6.747  11.751   7.313 -0.0072 -0.1354 -0.1719
  939loPI   C4A13670   6.591  11.753   7.652 -0.2162  0.1406 -0.1012
  939loPI   C5A13671   6.377  11.682   8.044 -0.2053  0.0064 -0.3561
  939loPI   C6A13672   6.247  11.567   8.487  0.0293 -0.0902 -0.0119
  939loPI   C1B13673   6.456  12.058   6.213 -0.0440  0.1394  0.0442
  939loPI   C2B13674   6.454  12.330   6.524  0.1542 -0.0506  0.0790
  939loPI   C3B13675   6.505  12.391   7.032 -0.0295  0.2737  0.0978
  939loPI   C4B13676   6.277  12.423   7.394  0.2771 -0.2383 -0.1235
  940loPI    C113677  10.893   0.204   5.207  0.1868  0.0112  0.1189
  940loPI    C213678  11.221   0.433   5.205  0.1379  0.0806 -0.0082
  940loPI    C313679  11.116   0.231   4.876  0.0514  0.0612  0.0313
  940loPI   PO413680  10.974   0.066   5.544 -0.0412  0.0263 -0.2461
  940loPI   GL113681  10.957   0.150   5.969  0.1143  0.0564 -0.2128
  940loPI   GL213682  10.663   0.067   5.992  0.0310 -0.0161  0.4150
  940loPI   C1A13683  11.013   0.257   6.396  0.0412  0.0189 -0.0925
  940loPI   C2A13684  11.046   0.468   6.826  0.2352  0.4209  0.1127
  940loPI   C3A13685  10.891   0.287   7.137  0.1580  0.0845  0.0408
  940loPI   C4A13686  10.866   0.174   7.643  0.0590 -0.0497  0.1895
  940loPI   C5A13687  11.057   0.152   7.975  0.0890  0.4643  0.1877
  940loPI   C6A13688  11.274   0.346   8.294  0.1656  0.5509 -0.1385
  940loPI   C1B13689  10.537   0.098   6.356  0.0790 -0.2650  0.1158
  940loPI   C2B13690  10.697   0.016   6.780 -0.0271 -0.0242  0.3089
  940loPI   C3B13691  10.507  -0.035   7.159 -0.0764  0.1822 -0.0001
  940loPI   C4B13692  10.464  -0.289   7.502 -0.1935 -0.0799  0.2886
  941loPI    C113693   6.545  16.339   5.504 -0.0156 -0.0778 -0.0877
  941loPI    C213694   6.434  16.717   5.434 -0.0073 -0.0357  0.1204
  941loPI    C313695   6.355  16.432   5.164 -0.0327  0.1101 -0.0278
  941loPI   PO413696   6.697  16.389   5.743 -0.0215 -0.1182 -0.0311
  941loPI   GL113697   6.662  16.478   6.226 -0.1031  0.2218  0.1132
  941loPI   GL213698   6.883  16.743   6.211 -0.1519 -0.0983 -0.1735
  941loPI   C1A13699   6.547  16.634   6.661  0.3262  0.0789  0.3080
  941loPI   C2A13700   6.245  16.951   6.768  0.1322 -0.4301 -0.0848
  941loPI   C3A13701   6.093  16.994   7.168  0.0755 -0.1602  0.1115
  941loPI   C4A13702   6.026  16.990   7.613 -0.1479  0.0261  0.1182
  941loPI   C5A13703   6.103  16.987   8.022  0.1255  0.4107  0.3662
  941loPI   C6A13704   6.215  16.997   8.413 -0.4235  0.0460  0.0552
  941loPI   C1B13705   6.696  17.039   6.512  0.1776  0.0375  0.0708
  941loPI   C2B13706   6.760  17.108   6.874 -0.2024  0.1898  0.0318
  941loPI   C3B13707   6.891  17.163   7.218 -0.0567 -0.0845  0.3670
  941loPI   C4B13708   6.934  17.085   7.647 -0.1618 -0.0396 -0.3626
  942loPI    C113709  14.574  11.983   5.526 -0.0135 -0.1192  0.2084
  942loPI    C213710  14.231  12.175   5.454 -0.0082 -0.1388  0.1309
  942loPI    C313711  14.536  12.207   5.197  0.0295 -0.1650  0.1722
  942loPI   PO413712  14.642  12.113   5.759 -0.0500 -0.2636  0.0500
  942loPI   GL113713  14.774  12.061   6.168 -0.0073  0.0883 -0.1475
  942loPI   GL213714  14.723  11.716   6.224 -0.1202 -0.0797  0.0964
  942loPI   C1A13715  14.436  12.036   6.488 -0.2071  0.1165  0.0153
  942loPI   C2A13716  14.151  11.785   6.828  0.0057  0.1905  0.0705
  942loPI   C3A13717  13.955  11.643   7.216  0.0741 -0.1354  0.2290
  942loPI   C4A13718  13.922  11.492   7.637  0.0681 -0.0460  0.0980
  942loPI   C5A13719  13.537  11.601   7.911 -0.0347 -0.0283  0.0114
  942loPI   C6A13720  13.082  11.677   8.047  0.0476 -0.0954 -0.1319
  942loPI   C1B13721  14.707  11.635   6.579  0.0186 -0.0088 -0.0547
  942loPI   C2B13722  14.710  11.684   6.908 -0.0402  0.1566  0.0053
  942loPI   C3B13723  14.819  11.806   7.427  0.0984 -0.1777 -0.1819
  942loPI   C4B13724  14.986  11.906   7.786  0.0009  0.2614 -0.0775
  943loPI    C113725   4.635   8.248   5.626  0.1199  0.2221 -0.0749
  943loPI    C213726   4.603   8.493   5.311 -0.1192  0.1664 -0.0964
  943loPI    C313727   4.668   8.102   5.254 -0.1753  0.1544 -0.0774
  943loPI   PO413728   4.436   8.287   5.789  0.3233 -0.0195  0.0648
  943loPI   GL113729   4.108   7.943   5.985 -0.1308 -0.1867  0.2422
  943loPI   GL213730   3.941   8.148   5.848 -0.0099 -0.1673 -0.1431
  943loPI   C1A13731   4.030   7.855   6.477 -0.3950  0.6942  0.0616
  943loPI   C2A13732   3.935   8.266   6.833  0.0761  0.1443  0.0602
  943loPI   C3A13733   3.687   8.266   7.177 -0.0369 -0.0188 -0.4267
  943loPI   C4A13734   3.536   8.211   7.633  0.0046 -0.0025 -0.1499
  943loPI   C5A13735   3.269   8.191   7.927 -0.0570  0.0579  0.2641
  943loPI   C6A13736   2.948   7.889   8.009  0.0202  0.3351 -0.0488
  943loPI   C1B13737   3.679   8.133   6.274  0.0074 -0.0366  0.0003
  943loPI   C2B13738   3.427   8.199   6.644 -0.0169  0.0658  0.1648
  943loPI   C3B13739   3.194   8.219   6.994 -0.0590 -0.0563  0.1598
  943loPI   C4B13740   2.811   8.414   7.253  0.0006 -0.1298 -0.2131
  944loPI    C113741  15.720  15.760   5.952  0.0801 -0.2105  0.1734
  944loPI    C213742  15.712  15.537   5.619 -0.1036  0.0418  0.0046
  944loPI    C313743  15.913  15.883   5.624 -0.1357  0.0592  0.1437
  944loPI   PO413744  15.753  15.647   6.158  0.1095  0.3430  0.0180
  944loPI   GL113745  15.646  15.691   6.514 -0.1959 -0.3683 -0.1387
  944loPI   GL213746  15.336  15.987   6.565  0.2446 -0.0757  0.0510
  944loPI   C1A13747  15.801  15.766   6.895  0.0666  0.3141 -0.0445
  944loPI   C2A13748  15.817  15.730   7.354  0.0519 -0.0119  0.1043
  944loPI   C3A13749  15.800  15.607   7.665  0.3739  0.0630  0.3108
  944loPI   C4A13750  15.962  15.618   8.091  0.1708  0.4129 -0.2229
  944loPI   C5A13751  16.190  15.502   8.507 -0.0358  0.1730  0.0659
  944loPI   C6A13752  16.012  15.399   8.868  0.0715 -0.1232 -0.0171
  944loPI   C1B13753  15.393  15.937   7.086 -0.1036  0.4914  0.1320
  944loPI   C2B13754  15.264  16.029   7.430 -0.0873 -0.1094  0.3251
  944loPI   C3B13755  15.139  16.054   7.837  0.0927  0.0194 -0.0540
  944loPI   C4B13756  15.197  16.304   8.161 -0.0806  0.0051 -0.3708
  945loPI    C113757  14.782   6.954   5.421 -0.1672  0.0085 -0.1298
  945loPI    C213758  14.387   7.004   5.465 -0.1774 -0.1131 -0.0780
  945loPI    C313759  14.599   7.262   5.244 -0.2811 -0.0317 -0.0829
  945loPI   PO413760  14.844   6.869   5.611  0.1216  0.0014  0.0276
  945loPI   GL113761  14.904   6.569   5.848 -0.1123  0.0662 -0.2189
  945loPI   GL213762  15.237   6.697   5.855 -0.4421  0.0081  0.1080
  945loPI   C1A13763  14.655   6.665   6.256 -0.1740 -0.0272  0.0646
  945loPI   C2A13764  14.514   6.600   6.647 -0.3843 -0.2178  0.1053
  945loPI   C3A13765  14.501   6.579   7.054  0.0778  0.0280  0.1660
  945loPI   C4A13766  14.534   6.648   7.466  0.1736  0.0734  0.2235
  945loPI   C5A13767  14.684   6.630   7.946 -0.0523 -0.0331  0.0423
  945loPI   C6A13768  14.706   6.654   8.368 -0.0859 -0.1541  0.4030
  945loPI   C1B13769  15.131   6.569   6.316  0.1743  0.1626  0.0449
  945loPI   C2B13770  14.995   6.705   6.758 -0.0769 -0.0814 -0.1821
  945loPI   C3B13771  14.999   6.787   7.171 -0.1559  0.1303 -0.2598
  945loPI   C4B13772  14.882   6.985   7.585  0.2172  0.0670 -0.0516
  946loPI    C113773   4.077   3.356   5.179  0.0843 -0.1435  0.1416
  946loPI    C213774   4.184   3.257   4.806 -0.0742  0.1675  0.0103
  946loPI    C313775   4.461   3.378   5.068  0.0237  0.0488 -0.0376
  946loPI   PO413776   3.997   3.156   5.259 -0.3234  0.2685 -0.2435
  946loPI   GL113777   3.805   3.174   5.616  0.0681 -0.2811  0.0406
  946loPI   GL213778   3.961   3.473   5.698 -0.0133 -0.1153  0.0432
  946loPI   C1A13779   3.713   3.096   5.992  0.0718  0.2505 -0.0370
  946loPI   C2A13780   3.583   2.718   6.249  0.0566  0.0861  0.2314
  946loPI   C3A13781   3.451   2.599   6.620  0.1204 -0.1025 -0.1136
  946loPI   C4A13782   3.644   2.503   7.053  0.0723 -0.0335 -0.2172
  946loPI   C5A13783   3.693   2.464   7.501 -0.2248  0.1653 -0.1363
  946loPI   C6A13784   3.649   2.542   7.937  0.1104  0.1483  0.0805
  946loPI   C1B13785   4.106   3.357   6.112 -0.0746 -0.0278  0.0688
  946loPI   C2B13786   3.823   3.263   6.471 -0.0141 -0.1139 -0.0341
  946loPI   C3B13787   3.822   2.903   6.723 -0.1309 -0.1922  0.0828
  946loPI   C4B13788   3.989   2.916   7.222  0.0692  0.4451 -0.0414
  947loPI    C113789  17.079  13.480   5.949 -0.0279 -0.0253 -0.0193
  947loPI    C213790  17.217  13.315   5.612  0.0564  0.0519 -0.0230
  947loPI    C313791  16.941  13.603   5.595  0.0539  0.0493 -0.0255
  947loPI   PO413792  16.988  13.278   6.130 -0.0047 -0.3824 -0.0449
  947loPI   GL113793  16.692  13.229   6.315  0.1559 -0.2764 -0.0683
  947loPI   GL213794  16.764  12.910   6.559  0.2969 -0.1744 -0.0872
  947loPI   C1A13795  16.388  13.571   6.438  0.2347 -0.1703  0.3021
  947loPI   C2A13796  16.235  13.714   6.846  0.0504 -0.1978 -0.0969
  947loPI   C3A13797  15.899  13.821   7.158 -0.0265 -0.2135 -0.1801
  947loPI   C4A13798  15.756  14.061   7.592  0.0971 -0.0476  0.2318
  947loPI   C5A13799  15.437  13.899   7.860  0.5138 -0.0705  0.3191
  947loPI   C6A13800  15.049  13.596   7.781 -0.0196 -0.1860  0.1940
  947loPI   C1B13801  16.658  12.693   6.991  0.1386  0.3820  0.1911
  947loPI   C2B13802  16.674  12.627   7.449  0.2143 -0.1914  0.0390
  947loPI   C3B13803  16.634  12.522   7.890 -0.2055 -0.4571  0.0639
  947loPI   C4B13804  16.511  12.739   8.292 -0.2302 -0.1212  0.0983
  948loPI    C113805   6.219   0.908   5.125 -0.0064 -0.1915  0.2130
  948loPI    C213806   6.188   0.518   5.039 -0.0959 -0.0801 -0.2907
  948loPI    C313807   5.859   0.735   5.108 -0.0382 -0.1178  0.1339
  948loPI   PO413808   6.400   0.886   5.305  0.0326  0.0616  0.0233
  948loPI   GL113809   6.518   1.075   5.686  0.1950 -0.2917 -0.2030
  948loPI   GL213810   6.335   1.284   5.798 -0.1128 -0.0638  0.0091
  948loPI   C1A13811   6.711   1.053   6.125 -0.3930  0.0275  0.3065
  948loPI   C2A13812   6.704   1.336   6.384 -0.3860 -0.1723 -0.1660
  948loPI   C3A13813   6.916   1.328   6.796 -0.0553 -0.0822 -0.0695
  948loPI   C4A13814   6.982   1.364   7.277  0.1658  0.0503 -0.1178
  948loPI   C5A13815   7.191   1.119   7.677  0.0736 -0.2274  0.2038
  948loPI   C6A13816   7.479   1.161   7.989  0.0654  0.0214 -0.0264
  948loPI   C1B13817   6.255   1.231   6.217  0.1186  0.2531 -0.2677
  948loPI   C2B13818   5.948   1.302   6.477  0.2289 -0.1871  0.0080
  948loPI   C3B13819   5.818   1.115   6.873  0.2445  0.0609 -0.2950
  948loPI   C4B13820   5.744   0.967   7.261  0.1786 -0.2521 -0.1202
  949loPI    C113821   7.790  11.195   5.418 -0.0435 -0.0424  0.0007
  949loPI    C213822   7.459  10.979   5.356 -0.0107 -0.0578 -0.1250
  949loPI    C313823   7.521  11.314   5.146  0.0820 -0.0871 -0.1446
  949loPI   PO413824   7.775  11.299   5.683 -0.0615 -0.2045  0.2090
  949loPI   GL113825   7.702  11.594   5.994 -0.2901  0.2597 -0.5307
  949loPI   GL213826   7.930  11.801   5.941  0.0747  0.3946  0.1874
  949loPI   C1A13827   7.529  11.670   6.348 -0.1111 -0.0169  0.2024
  949loPI   C2A13828   7.573  11.632   6.765  0.3978  0.2220 -0.2219
  949loPI   C3A13829   7.437  11.494   7.201  0.0906  0.1753 -0.1007
  949loPI   C4A13830   7.423  11.466   7.665 -0.0068  0.2623 -0.0468
  949loPI   C5A13831   7.242  11.549   7.991  0.2346 -0.0206 -0.0534
  949loPI   C6A13832   6.888  11.624   8.208 -0.3282 -0.3718 -0.0558
  949loPI   C1B13833   7.917  11.947   6.404  0.3907  0.0695 -0.0881
  949loPI   C2B13834   7.906  12.081   6.888 -0.1232 -0.0935  0.1973
  949loPI   C3B13835   7.937  12.077   7.383 -0.1267  0.2575 -0.0702
  949loPI   C4B13836   7.949  12.278   7.829  0.2651  0.0245  0.0846
  950loPI    C113837  13.341   9.652   5.372 -0.0356 -0.1024 -0.0255
  950loPI    C213838  12.980   9.679   5.201  0.0026 -0.1823 -0.1194
  950loPI    C313839  13.261   9.443   5.041  0.0969 -0.1201 -0.0469
  950loPI   PO413840  13.314   9.696   5.705 -0.0129 -0.0564 -0.1263
  950loPI   GL113841  13.478   9.766   6.177  0.1097  0.2152 -0.2877
  950loPI   GL213842  13.769   9.963   6.042  0.1356 -0.0285 -0.1000
  950loPI   C1A13843  13.436   9.903   6.589  0.1689  0.0174  0.4096
  950loPI   C2A13844  13.385   9.819   7.010 -0.1127 -0.0959 -0.2033
  950loPI   C3A13845  13.360   9.733   7.470 -0.1218  0.0046 -0.1141
  950loPI   C4A13846  13.375   9.896   7.870  0.3494  0.1514  0.1117
  950loPI   C5A13847  13.698  10.053   8.085  0.1423 -0.1329 -0.1344
  950loPI   C6A13848  13.950   9.848   8.333 -0.1716 -0.2960  0.0826
  950loPI   C1B13849  13.895  10.065   6.398 -0.1623  0.0140  0.0908
  950loPI   C2B13850  13.981  10.071   6.800  0.1578 -0.4023 -0.0518
  950loPI   C3B13851  13.769  10.025   7.289  0.1044 -0.0123  0.0955
  950loPI   C4B13852  13.865  10.243   7.687 -0.0055 -0.1449 -0.2136
  951loPI    C113853  12.402   6.519   5.767  0.0694 -0.0921  0.1419
  951loPI    C213854  12.131   6.697   5.532  0.2062  0.0460  0.0869
  951loPI    C313855  12.354   6.916   5.782  0.3943 -0.0439  0.0002
  951loPI   PO413856  12.331   6.289   5.794 -0.0923 -0.2318 -0.1994
  951loPI   GL113857  12.455   6.065   6.167 -0.3776  0.0713 -0.0064
  951loPI   GL213858  12.152   5.954   6.140 -0.0018  0.1243 -0.0628
  951loPI   C1A13859  12.703   5.952   6.560  0.1414  0.2523  0.1709
  951loPI   C2A13860  13.051   5.883   6.842  0.1459 -0.2084  0.2390
  951loPI   C3A13861  13.217   5.945   7.209 -0.0015 -0.0166  0.1218
  951loPI   C4A13862  13.304   5.873   7.602 -0.3134  0.0287 -0.0308
  951loPI   C5A13863  13.114   5.881   7.982 -0.2964  0.1136 -0.1829
  951loPI   C6A13864  12.967   6.261   8.080  0.3606 -0.0182  0.2353
  951loPI   C1B13865  12.201   5.886   6.622 -0.3290  0.1715 -0.2237
  951loPI   C2B13866  12.490   5.993   7.019  0.1502 -0.0502 -0.0493
  951loPI   C3B13867  12.297   6.102   7.402 -0.2030 -0.2009 -0.1629
  951loPI   C4B13868  11.914   6.171   7.640  0.5784  0.0743 -0.1442
  952loPI    C113869  10.534   1.598   5.103  0.0860 -0.1789  0.0310
  952loPI    C213870  10.777   1.311   4.966  0.1971  0.0723 -0.3113
  952loPI    C313871  10.803   1.683   4.819  0.0559  0.2616  0.1265
  952loPI   PO413872  10.492   1.547   5.404 -0.0190 -0.3544  0.0730
  952loPI   GL113873  10.372   1.707   5.731  0.1595  0.1917  0.1044
  952loPI   GL213874  10.582   1.927   5.908 -0.1049  0.1874 -0.1197
  952loPI   C1A13875  10.135   1.541   6.090 -0.0209 -0.1465 -0.1393
  952loPI   C2A13876  10.151   1.652   6.547  0.1967 -0.0495 -0.2117
  952loPI   C3A13877  10.143   1.532   6.971  0.1080 -0.0491 -0.0886
  952loPI   C4A13878  10.113   1.283   7.401  0.0578  0.1091  0.0506
  952loPI   C5A13879  10.282   1.234   7.839 -0.1838 -0.0017 -0.0885
  952loPI   C6A13880  10.477   0.839   7.967  0.1432  0.0169  0.1859
  952loPI   C1B13881  10.459   1.934   6.276 -0.0416 -0.2180  0.2196
  952loPI   C2B13882  10.557   1.897   6.712 -0.1602  0.0569 -0.0531
  952loPI   C3B13883  10.505   1.924   7.152 -0.0849  0.1588  0.1111
  952loPI   C4B13884  10.491   1.634   7.419  0.1736  0.0561  0.1987
  953loPI    C113885   3.089  16.827   5.256 -0.0923 -0.1629  0.1491
  953loPI    C213886   2.722  16.827   5.097 -0.0131  0.4607 -0.0588
  953loPI    C313887   3.025  16.999   4.901  0.3752  0.0472  0.1592
  953loPI   PO413888   3.109  16.600   5.348  0.4140 -0.0110  0.0248
  953loPI   GL113889   3.223  16.524   5.724  0.0223  0.0325  0.5777
  953loPI   GL213890   2.960  16.385   6.000  0.0777 -0.0801 -0.1871
  953loPI   C1A13891   3.398  16.535   6.115  0.0820  0.2171 -0.1257
  953loPI   C2A13892   3.717  16.566   6.412  0.1708  0.2488 -0.2071
  953loPI   C3A13893   3.846  16.491   6.917 -0.0315 -0.1746 -0.4224
  953loPI   C4A13894   4.023  16.800   7.355  0.2024 -0.1742 -0.3346
  953loPI   C5A13895   4.487  16.896   7.301 -0.0300  0.0510 -0.3472
  953loPI   C6A13896   4.892  17.052   7.303  0.0610  0.0844  0.0954
  953loPI   C1B13897   2.987  16.463   6.450 -0.2058 -0.1334 -0.3838
  953loPI   C2B13898   2.988  16.531   6.935  0.2286  0.5168 -0.0498
  953loPI   C3B13899   2.743  16.598   7.281 -0.2603 -0.1474 -0.1133
  953loPI   C4B13900   2.646  16.783   7.611  0.0108 -0.2978 -0.0925
  954loPI    C113901  17.498  11.175   6.048  0.1422 -0.0203 -0.1310
  954loPI    C213902  17.657  11.473   6.262 -0.0958  0.0668 -0.0723
  954loPI    C313903  17.731  11.446   5.869  0.0537  0.1115 -0.0477
  954loPI   PO413904  17.530  10.961   6.164  0.0898  0.2741 -0.1663
  954loPI   GL113905  17.761  11.004   6.520  0.1881 -0.2531  0.1321
  954loPI   GL213906  18.046  10.784   6.543  0.1738 -0.1194  0.0876
  954loPI   C1A13907  17.573  11.012   6.891 -0.1995 -0.0842 -0.0510
  954loPI   C2A13908  17.441  10.913   7.291  0.3661  0.1403  0.2293
  954loPI   C3A13909  17.427  10.936   7.730  0.3093 -0.1006 -0.2064
  954loPI   C4A13910  17.661  10.907   7.987  0.0722 -0.0748 -0.0102
  954loPI   C5A13911  17.621  10.676   8.410  0.0435  0.0319 -0.0351
  954loPI   C6A13912  17.381  10.249   8.409 -0.0486 -0.1160 -0.1861
  954loPI   C1B13913  18.058  10.681   6.897 -0.1384  0.0999 -0.2621
  954loPI   C2B13914  17.812  10.651   7.187 -0.0061  0.2681 -0.1380
  954loPI   C3B13915  17.668  10.390   7.510 -0.0257  0.0439  0.3192
  954loPI   C4B13916  17.462  10.430   7.954  0.1512 -0.0801  0.2437
  955loPI    C113917  17.650  10.140   5.666  0.2791 -0.0075 -0.0944
  955loPI    C213918  17.829  10.459   5.503 -0.1738  0.1628 -0.2740
  955loPI    C313919  17.825  10.110   5.308  0.2599  0.0603 -0.1099
  955loPI   PO413920  17.743  10.231   5.926  0.2932 -0.0228 -0.2419
  955loPI   GL113921  17.611  10.475   6.362 -0.0677 -0.3920  0.0903
  955loPI   GL213922  17.341  10.255   6.318 -0.2605  0.0624 -0.2024
  955loPI   C1A13923  17.560  10.583   6.698  0.0195  0.2220 -0.2597
  955loPI   C2A13924  17.411  10.443   7.004 -0.0272  0.1243 -0.0390
  955loPI   C3A13925  17.195  10.501   7.442  0.1409 -0.0665 -0.0549
  955loPI   C4A13926  16.958  10.667   7.783 -0.1515  0.2019 -0.1724
  955loPI   C5A13927  16.658  10.793   8.131 -0.0391 -0.0827 -0.2271
  955loPI   C6A13928  16.460  10.882   8.452 -0.2634  0.0345 -0.1430
  955loPI   C1B13929  17.382  10.030   6.721  0.3700 -0.0023  0.2596
  955loPI   C2B13930  17.339   9.979   7.248  0.4238  0.0677 -0.2629
  955loPI   C3B13931  17.470   9.972   7.678 -0.0292 -0.0610  0.1382
  955loPI   C4B13932  17.216   9.996   7.995  0.1798 -0.1673 -0.0299
  956loPI    C113933   9.637   6.894   5.446 -0.0970  0.0790  0.0715
  956loPI    C213934   9.825   7.247   5.475 -0.2119  0.1568 -0.1154
  956loPI    C313935   9.821   7.049   5.127 -0.0530 -0.0840  0.0170
  956loPI   PO413936   9.481   6.929   5.654  0.0453 -0.1630  0.0548
  956loPI   GL113937   9.460   6.970   6.025 -0.0524  0.1031  0.0533
  956loPI   GL213938   9.509   7.265   6.121  0.0090  0.2185  0.3712
  956loPI   C1A13939   9.437   6.925   6.438 -0.1923  0.0235 -0.2578
  956loPI   C2A13940   9.421   6.831   6.828 -0.0453  0.1424 -0.0326
  956loPI   C3A13941   9.271   6.779   7.248  0.1567  0.0841 -0.1775
  956loPI   C4A13942   9.210   6.841   7.626 -0.0053 -0.0803 -0.0192
  956loPI   C5A13943   8.883   6.951   7.999 -0.0100  0.2070  0.1271
  956loPI   C6A13944   8.499   6.987   8.152  0.2346  0.1624  0.1218
  956loPI   C1B13945   9.240   7.386   6.487 -0.2051 -0.2599 -0.2857
  956loPI   C2B13946   9.144   7.266   6.852  0.0932  0.1903 -0.4447
  956loPI   C3B13947   9.059   7.253   7.294 -0.1234 -0.1330  0.1859
  956loPI   C4B13948   8.856   7.382   7.741  0.1046 -0.1039  0.0788
  957loPI    C113949  10.388   4.037   5.061 -0.2033  0.2252 -0.1718
  957loPI    C213950  10.424   3.760   4.775 -0.1060  0.2400 -0.1744
  957loPI    C313951  10.660   4.083   4.771  0.0110  0.1588  0.0150
  957loPI   PO413952  10.302   3.946   5.252  0.1097  0.3951  0.1332
  957loPI   GL113953  10.473   3.933   5.717  0.0154  0.1372 -0.0253
  957loPI   GL213954  10.251   3.852   5.972 -0.0573  0.0776 -0.0676
  957loPI   C1A13955  10.683   4.079   6.166 -0.0435 -0.3873  0.1415
  957loPI   C2A13956  10.578   4.160   6.591 -0.1449  0.2641  0.2133
  957loPI   C3A13957  10.509   3.742   6.742 -0.0564  0.4077 -0.1090
  957loPI   C4A13958  10.605   3.503   7.067 -0.1084 -0.1631  0.1253
  957loPI   C5A13959  10.632   3.233   7.511 -0.2642  0.0665  0.2184
  957loPI   C6A13960  10.558   3.013   7.794 -0.1879 -0.1097  0.2096
  957loPI   C1B13961  10.146   3.926   6.435  0.1796 -0.0132  0.0430
  957loPI   C2B13962  10.014   3.984   6.847 -0.0796 -0.3275  0.1625
  957loPI   C3B13963  10.303   4.021   7.119 -0.2245  0.1023 -0.0533
  957loPI   C4B13964  10.203   4.004   7.528  0.0290  0.1930  0.5061
  958loPI    C113965   5.229   2.807   4.995  0.2116 -0.0131 -0.1087
  958loPI    C213966   5.061   3.032   4.710 -0.3399 -0.2257  0.0364
  958loPI    C313967   4.980   2.640   4.729 -0.0515 -0.2762  0.2911
  958loPI   PO413968   5.267   2.992   5.207 -0.1154 -0.0118 -0.0018
  958loPI   GL113969   5.432   2.892   5.669  0.1096  0.0601 -0.2714
  958loPI   GL213970   5.252   3.224   5.723 -0.2697 -0.1111 -0.1414
  958loPI   C1A13971   5.463   2.960   6.040  0.2016 -0.1078 -0.2634
  958loPI   C2A13972   5.562   2.858   6.512 -0.2553 -0.1131  0.1385
  958loPI   C3A13973   5.615   2.549   6.802  0.0436 -0.2361 -0.2780
  958loPI   C4A13974   5.538   2.474   7.201 -0.1899 -0.1420  0.0193
  958loPI   C5A13975   5.453   2.252   7.577 -0.3742  0.4834 -0.1238
  958loPI   C6A13976   5.337   2.028   7.919 -0.0055 -0.0704  0.1048
  958loPI   C1B13977   5.071   3.310   6.111 -0.1050  0.0428  0.1703
  958loPI   C2B13978   5.208   3.245   6.528 -0.3984  0.0539 -0.1382
  958loPI   C3B13979   5.482   3.436   6.672  0.2870  0.2133  0.0744
  958loPI   C4B13980   5.459   3.429   7.052 -0.0728 -0.1567  0.4058
  959loPI    C113981  14.369   1.929   5.499  0.1345 -0.0645 -0.1105
  959loPI    C213982  14.186   1.823   5.159 -0.1024  0.2718 -0.0928
  959loPI    C313983  14.473   2.101   5.153  0.1351  0.0313 -0.0628
  959loPI   PO413984  14.214   2.065   5.650  0.1318  0.2028  0.0122
  959loPI   GL113985  14.023   2.042   6.040 -0.1911 -0.0511 -0.0880
  959loPI   GL213986  13.950   1.757   6.077 -0.0531  0.3443  0.2785
  959loPI   C1A13987  14.237   2.219   6.325  0.3831 -0.2669  0.1883
  959loPI   C2A13988  14.182   2.492   6.631 -0.0958  0.0068  0.2895
  959loPI   C3A13989  14.293   2.535   6.992  0.1610  0.0406 -0.0461
  959loPI   C4A13990  14.497   2.526   7.410 -0.2272 -0.1054  0.0101
  959loPI   C5A13991  14.586   2.713   7.830 -0.2992 -0.2544 -0.3218
  959loPI   C6A13992  14.890   2.550   8.112  0.0065  0.1627  0.1435
  959loPI   C1B13993  13.920   1.678   6.511 -0.1054  0.0625  0.0183
  959loPI   C2B13994  13.862   1.764   6.913 -0.1718  0.0697  0.1705
  959loPI   C3B13995  13.855   1.744   7.309 -0.2292 -0.1342 -0.1787
  959loPI   C4B13996  13.856   1.707   7.760 -0.1101 -0.0555  0.0450
  960loPI    C113997  14.822   3.889   5.019 -0.1928 -0.0910 -0.0546
  960loPI    C213998  15.121   4.120   4.890 -0.1954 -0.0502  0.0119
  960loPI    C313999  14.762   4.280   4.960 -0.2250 -0.0938 -0.0404
  960loPI   PO414000  14.908   3.854   5.248 -0.1363 -0.2564 -0.3331
  960loPI   GL114001  14.802   4.037   5.627 -0.2112 -0.2332  0.1711
  960loPI   GL214002  14.661   3.659   5.676  0.2874 -0.2416  0.3759
  960loPI   C1A14003  14.876   4.006   6.057  0.2617 -0.2454 -0.0577
  960loPI   C2A14004  14.884   3.879   6.469  0.2680 -0.0598 -0.1086
  960loPI   C3A14005  15.036   3.716   6.907 -0.1640  0.2177  0.4591
  960loPI   C4A14006  15.149   3.735   7.378  0.0609 -0.1696  0.1217
  960loPI   C5A14007  15.333   4.091   7.595 -0.1790 -0.0812 -0.1430
  960loPI   C6A14008  15.540   4.481   7.798  0.4787  0.1047  0.1182
  960loPI   C1B14009  14.541   3.589   6.095 -0.0501 -0.3496 -0.2344
  960loPI   C2B14010  14.316   3.635   6.461  0.1035 -0.2534  0.2254
  960loPI   C3B14011  14.068   3.586   6.934  0.0254 -0.3647 -0.0761
  960loPI   C4B14012  13.904   3.731   7.350  0.1655  0.1436  0.1833
  961loPI    C114013   1.403   8.344   5.148 -0.1473 -0.3975  0.0131
  961loPI    C214014   1.130   8.408   5.433 -0.4166 -0.0328 -0.3153
  961loPI    C314015   1.017   8.264   5.078 -0.1510 -0.0600 -0.3909
  961loPI   PO414016   1.706   8.132   5.302 -0.0736  0.0450 -0.1260
  961loPI   GL114017   1.683   7.941   5.732 -0.0345  0.0258  0.1110
  961loPI   GL214018   1.929   7.604   5.759  0.0560 -0.4222 -0.0501
  961loPI   C1A14019   1.655   7.860   6.233  0.0632 -0.0581  0.2465
  961loPI   C2A14020   1.606   7.878   6.716 -0.0684  0.2391  0.0065
  961loPI   C3A14021   1.621   7.848   7.096  0.2895 -0.1412  0.1773
  961loPI   C4A14022   1.516   7.807   7.477 -0.2919 -0.1348 -0.0298
  961loPI   C5A14023   1.611   7.680   7.818 -0.3415  0.0670 -0.2416
  961loPI   C6A14024   1.962   7.576   8.154  0.2833  0.0349  0.2288
  961loPI   C1B14025   1.955   7.359   6.128  0.1903  0.1351  0.0352
  961loPI   C2B14026   1.679   7.246   6.471 -0.0458  0.1353  0.1368
  961loPI   C3B14027   1.696   7.207   6.924 -0.2076  0.0525  0.2247
  961loPI   C4B14028   1.801   6.950   7.217  0.1409  0.3834  0.1391
  962loPI    C114029   1.982   0.219   5.613  0.0390  0.0377 -0.2416
  962loPI    C214030   2.314   0.370   5.779 -0.2265  0.1110  0.2405
  962loPI    C314031   2.265  -0.026   5.754  0.0859  0.0936 -0.2383
  962loPI   PO414032   1.793   0.368   5.830 -0.5164 -0.0798  0.0919
  962loPI   GL114033   1.678   0.186   6.186  0.1868  0.1606 -0.3605
  962loPI   GL214034   1.992   0.181   6.260 -0.2666 -0.0302  0.1354
  962loPI   C1A14035   1.647   0.305   6.684  0.0363  0.0508 -0.0150
  962loPI   C2A14036   1.794   0.309   7.180  0.3446 -0.0758  0.2990
  962loPI   C3A14037   2.042   0.498   7.499  0.0327 -0.0365  0.3105
  962loPI   C4A14038   2.077   0.654   7.806 -0.1165 -0.3233 -0.1784
  962loPI   C5A14039   2.267   0.939   7.996  0.0938 -0.0683 -0.0405
  962loPI   C6A14040   2.221   1.376   7.955 -0.3610  0.0521 -0.3783
  962loPI   C1B14041   2.113   0.456   6.650  0.1573 -0.1211  0.3769
  962loPI   C2B14042   2.240   0.607   6.975 -0.0071  0.1429 -0.2436
  962loPI   C3B14043   2.292   0.884   7.299 -0.1531  0.1883  0.4287
  962loPI   C4B14044   2.094   1.116   7.548 -0.3025  0.0004 -0.0087
  963loPI    C114045   0.033   8.243   5.201  0.0053 -0.1999  0.0455
  963loPI    C214046  -0.124   8.111   4.858 -0.0648  0.0393 -0.0163
  963loPI    C314047   0.271   8.090   4.919 -0.0696 -0.1520 -0.0442
  963loPI   PO414048  -0.181   8.087   5.360  0.3033  0.2148  0.0280
  963loPI   GL114049  -0.357   7.865   5.662 -0.1678  0.3570 -0.2645
  963loPI   GL214050  -0.157   7.572   5.595 -0.0824 -0.0817 -0.0012
  963loPI   C1A14051  -0.400   8.076   6.033  0.0043  0.0114 -0.1245
  963loPI   C2A14052  -0.489   8.092   6.494  0.1794 -0.2793 -0.0812
  963loPI   C3A14053  -0.532   8.103   6.906 -0.2138  0.1869  0.1987
  963loPI   C4A14054  -0.495   8.035   7.356 -0.0809  0.1963  0.0129
  963loPI   C5A14055  -0.632   7.984   7.771 -0.0800  0.2576  0.1565
  963loPI   C6A14056  -1.029   7.955   7.998 -0.1152 -0.0572 -0.0892
  963loPI   C1B14057  -0.386   7.474   6.000  0.1480  0.2674  0.0786
  963loPI   C2B14058  -0.286   7.329   6.435  0.1498 -0.1800  0.2613
  963loPI   C3B14059  -0.154   7.288   6.867 -0.1295  0.0115  0.1371
  963loPI   C4B14060  -0.146   7.170   7.284 -0.1406  0.0935  0.5088
  964loPI    C114061   3.763   7.735   5.631 -0.0646 -0.0459 -0.0546
  964loPI    C214062   3.760   8.042   5.375  0.0367 -0.1866 -0.2263
  964loPI    C314063   3.648   7.678   5.253 -0.0300 -0.2302 -0.0383
  964loPI   PO414064   3.620   7.749   5.793  0.0819  0.2563  0.1913
  964loPI   GL114065   3.236   7.767   5.986 -0.1193  0.0781 -0.1250
  964loPI   GL214066   3.232   7.530   6.102  0.1769 -0.1754  0.0223
  964loPI   C1A14067   3.129   7.962   6.302  0.1621  0.2379 -0.1548
  964loPI   C2A14068   3.035   7.862   6.627  0.0458  0.1313 -0.1568
  964loPI   C3A14069   2.883   7.802   7.030  0.1445 -0.1319  0.1033
  964loPI   C4A14070   2.570   7.723   7.333  0.1458  0.2858  0.0391
  964loPI   C5A14071   2.468   7.391   7.516 -0.4137  0.2416  0.0315
  964loPI   C6A14072   2.386   6.960   7.456  0.1925  0.2424 -0.1345
  964loPI   C1B14073   3.179   7.412   6.532 -0.1202 -0.1653 -0.1628
  964loPI   C2B14074   3.278   7.493   6.972 -0.0151  0.1276  0.1972
  964loPI   C3B14075   3.305   7.230   7.441 -0.1339 -0.2966  0.2560
  964loPI   C4B14076   3.283   7.049   7.846  0.0807 -0.1577  0.0309
  965loPI    C114077   9.958  13.759   5.525  0.0438  0.0690 -0.1500
  965loPI    C214078  10.190  13.467   5.380  0.1431  0.1302 -0.1150
  965loPI    C314079  10.022  13.732   5.131  0.0058  0.0092 -0.1522
  965loPI   PO414080   9.966  13.700   5.788 -0.0719  0.0453 -0.2796
  965loPI   GL114081  10.047  13.671   6.224 -0.0343 -0.1118  0.2216
  965loPI   GL214082  10.405  13.651   6.337 -0.2692 -0.2151  0.2699
  965loPI   C1A14083   9.869  13.703   6.553 -0.0371  0.0131 -0.1411
  965loPI   C2A14084   9.660  13.436   6.894  0.0300 -0.0127 -0.0774
  965loPI   C3A14085   9.517  13.482   7.319  0.1973 -0.0599 -0.2794
  965loPI   C4A14086   9.395  13.460   7.815 -0.2761 -0.2207  0.0454
  965loPI   C5A14087   9.075  13.244   8.071  0.0031 -0.3546  0.2270
  965loPI   C6A14088   9.142  12.866   8.069  0.0783  0.2749 -0.0445
  965loPI   C1B14089  10.397  13.619   6.768 -0.2158  0.3930  0.1685
  965loPI   C2B14090  10.488  13.437   7.230 -0.2715 -0.0294  0.2357
  965loPI   C3B14091  10.442  13.396   7.563  0.5088  0.1977 -0.0579
  965loPI   C4B14092  10.302  13.181   7.962 -0.3176 -0.1081  0.0004
  966loPI    C114093   0.345   2.739   5.456 -0.1062 -0.0589 -0.1682
  966loPI    C214094   0.623   2.479   5.577  0.0387  0.1215 -0.1093
  966loPI    C314095   0.454   2.438   5.217  0.0714 -0.0447 -0.1065
  966loPI   PO414096   0.342   2.864   5.677  0.0393 -0.1860  0.0050
  966loPI   GL114097   0.259   2.958   6.073  0.1767  0.1244  0.2719
  966loPI   GL214098  -0.105   3.069   6.073 -0.3538 -0.0923  0.1537
  966loPI   C1A14099   0.186   2.768   6.425  0.0185 -0.0363 -0.3076
  966loPI   C2A14100   0.066   2.397   6.672 -0.0578  0.0542 -0.0368
  966loPI   C3A14101   0.112   2.325   7.095  0.0132  0.1493  0.1768
  966loPI   C4A14102   0.150   2.182   7.569 -0.1843 -0.0054 -0.0102
  966loPI   C5A14103   0.304   1.949   7.843  0.2787 -0.3131  0.1000
  966loPI   C6A14104   0.408   1.503   7.857 -0.2391 -0.0436  0.0575
  966loPI   C1B14105  -0.197   3.152   6.553  0.1125 -0.1610  0.1323
  966loPI   C2B14106  -0.189   3.296   6.975 -0.1180  0.0002 -0.1561
  966loPI   C3B14107  -0.448   3.368   7.333  0.0095  0.3324 -0.2075
  966loPI   C4B14108  -0.556   3.735   7.636  0.0832  0.2322  0.1415
  967loPI    C114109  13.116   3.214   4.999 -0.1639  0.1320 -0.0685
  967loPI    C214110  12.963   3.073   4.658 -0.1571  0.0627 -0.0432
  967loPI    C314111  12.722   3.230   4.936 -0.2237 -0.3481  0.1382
  967loPI   PO414112  13.228   3.094   5.148 -0.0051  0.0936 -0.0004
  967loPI   GL114113  13.139   3.024   5.656 -0.1654  0.0190 -0.3369
  967loPI   GL214114  12.891   3.131   5.891  0.2325  0.0021  0.0676
  967loPI   C1A14115  13.368   3.216   5.943 -0.1939  0.0352 -0.2251
  967loPI   C2A14116  13.518   3.085   6.330 -0.1539 -0.0080 -0.0614
  967loPI   C3A14117  13.283   3.061   6.800  0.1345  0.1847  0.0254
  967loPI   C4A14118  13.247   2.999   7.282 -0.0841 -0.1503 -0.0365
  967loPI   C5A14119  13.333   3.007   7.720 -0.2879  0.1594 -0.4866
  967loPI   C6A14120  13.347   3.206   8.155  0.2179  0.1312 -0.1389
  967loPI   C1B14121  13.011   3.182   6.266  0.2039  0.0717 -0.0545
  967loPI   C2B14122  12.807   3.189   6.687 -0.0751 -0.0846  0.1286
  967loPI   C3B14123  12.754   3.271   7.134 -0.1550  0.0702  0.2230
  967loPI   C4B14124  12.848   3.339   7.546 -0.3520 -0.0592 -0.1633
  968loPI    C114125  14.289   5.703   5.258 -0.0734  0.0102 -0.2627
  968loPI    C214126  13.974   5.948   5.284 -0.1768 -0.1326 -0.1526
  968loPI    C314127  14.343   6.100   5.249 -0.2349  0.0393 -0.0341
  968loPI   PO414128  14.313   5.536   5.473 -0.0745 -0.1707  0.0882
  968loPI   GL114129  14.485   5.213   5.640 -0.2906 -0.0493  0.1180
  968loPI   GL214130  14.177   5.126   5.789  0.3211  0.1919  0.4353
  968loPI   C1A14131  14.642   5.167   6.026 -0.2654  0.0033  0.2859
  968loPI   C2A14132  14.946   5.210   6.400 -0.1278  0.1483 -0.2751
  968loPI   C3A14133  14.930   5.167   6.794  0.1685  0.3888 -0.1022
  968loPI   C4A14134  14.891   5.292   7.114  0.0187  0.2586 -0.0079
  968loPI   C5A14135  15.016   5.198   7.514 -0.1137  0.2181  0.3109
  968loPI   C6A14136  15.015   5.186   8.001  0.1123 -0.0463 -0.2582
  968loPI   C1B14137  14.175   5.027   6.200  0.5844 -0.0905  0.2164
  968loPI   C2B14138  14.097   4.936   6.681 -0.2463 -0.2410  0.0036
  968loPI   C3B14139  14.024   4.711   7.127 -0.3840  0.0403 -0.2235
  968loPI   C4B14140  14.297   4.557   7.462 -0.0602 -0.0370  0.0169
  969loPI    C114141   1.267   4.588   5.630  0.1191  0.0995  0.2503
  969loPI    C214142   1.520   4.890   5.698  0.1435  0.1248  0.0528
  969loPI    C314143   1.551   4.676   5.362 -0.0425  0.0720  0.0686
  969loPI   PO414144   1.233   4.402   5.809 -0.0271 -0.0045 -0.0054
  969loPI   GL114145   1.134   4.172   6.191 -0.3079 -0.3518  0.1963
  969loPI   GL214146   1.065   4.485   6.302 -0.1269  0.3521 -0.3034
  969loPI   C1A14147   1.141   3.981   6.582  0.0566  0.1062  0.0331
  969loPI   C2A14148   0.978   3.983   6.960 -0.1872 -0.2456 -0.0296
  969loPI   C3A14149   0.832   3.965   7.359 -0.2029  0.1951  0.2151
  969loPI   C4A14150   0.460   3.844   7.425  0.0370  0.0332 -0.2747
  969loPI   C5A14151   0.323   3.741   7.766  0.0206 -0.0477 -0.0723
  969loPI   C6A14152   0.218   3.625   8.237 -0.0039 -0.1664 -0.0103
  969loPI   C1B14153   1.145   4.426   6.772  0.0646  0.0574 -0.2872
  969loPI   C2B14154   1.087   4.437   7.196 -0.1349 -0.0233 -0.0168
  969loPI   C3B14155   1.034   4.639   7.557 -0.2198 -0.2460  0.0310
  969loPI   C4B14156   1.036   4.994   7.921 -0.2395  0.0886  0.1087
  970loPI    C114157   0.423   6.577   5.393 -0.1938  0.0213 -0.0551
  970loPI    C214158   0.122   6.604   5.131 -0.1270 -0.0595 -0.1411
  970loPI    C314159   0.479   6.759   5.042 -0.0445 -0.2729 -0.1875
  970loPI   PO414160   0.272   6.688   5.658  0.1638  0.0717 -0.0037
  970loPI   GL114161   0.348   7.009   5.832  0.1686  0.0168 -0.2515
  970loPI   GL214162   0.055   7.217   5.919 -0.0416 -0.0392  0.0939
  970loPI   C1A14163   0.369   6.811   6.262 -0.0075 -0.2469 -0.1990
  970loPI   C2A14164   0.058   6.871   6.603 -0.1223  0.0995 -0.1431
  970loPI   C3A14165  -0.190   6.767   6.969 -0.1394  0.1724 -0.0489
  970loPI   C4A14166  -0.420   6.726   7.245  0.7398 -0.0576 -0.2165
  970loPI   C5A14167  -0.651   6.502   7.633  0.2787  0.1407 -0.2227
  970loPI   C6A14168  -0.533   6.122   7.799 -0.1062 -0.0348  0.4099
  970loPI   C1B14169   0.161   7.308   6.291 -0.1791 -0.0461  0.0743
  970loPI   C2B14170   0.326   7.505   6.653 -0.1165  0.2759 -0.3159
  970loPI   C3B14171   0.231   7.599   7.078 -0.0278  0.2635  0.2794
  970loPI   C4B14172   0.388   7.621   7.557  0.2039  0.5181  0.0094
  971loPI    C114173   6.990  13.109   5.418 -0.1878  0.0610  0.1383
  971loPI    C214174   6.917  13.495   5.344  0.0751  0.0912  0.0251
  971loPI    C314175   7.081  13.265   5.061 -0.3979 -0.1918 -0.0296
  971loPI   PO414176   7.144  13.115   5.625  0.2843  0.0713 -0.1673
  971loPI   GL114177   7.037  13.141   6.010  0.0727 -0.1645 -0.1530
  971loPI   GL214178   6.791  13.369   6.143 -0.3484 -0.1446  0.3198
  971loPI   C1A14179   7.055  13.136   6.471 -0.0900 -0.1222  0.3315
  971loPI   C2A14180   7.316  13.227   6.867  0.1204 -0.0278  0.0317
  971loPI   C3A14181   7.327  13.398   7.199  0.2392  0.2131 -0.2269
  971loPI   C4A14182   7.035  13.310   7.623  0.1075 -0.1154  0.0493
  971loPI   C5A14183   7.041  13.542   7.946 -0.0053  0.1267 -0.2366
  971loPI   C6A14184   7.011  13.997   8.092  0.0010  0.1363  0.0859
  971loPI   C1B14185   6.494  13.682   6.435  0.1869  0.0149  0.0921
  971loPI   C2B14186   6.511  13.796   6.845  0.0062 -0.1595 -0.0311
  971loPI   C3B14187   6.531  13.901   7.310 -0.0256 -0.0549 -0.0682
  971loPI   C4B14188   6.700  13.913   7.710  0.1886 -0.0936  0.0842
  972loPI    C114189   5.861   3.529   5.086 -0.1221 -0.0439  0.1563
  972loPI    C214190   6.206   3.649   4.925 -0.0849  0.1177  0.3516
  972loPI    C314191   6.080   3.273   4.871  0.0419  0.1029  0.1466
  972loPI   PO414192   5.917   3.647   5.338  0.0008 -0.1687 -0.1106
  972loPI   GL114193   5.854   3.798   5.731 -0.0518  0.0296  0.0157
  972loPI   GL214194   5.500   3.754   5.765  0.2276  0.1853  0.1462
  972loPI   C1A14195   5.983   3.695   6.077 -0.1028  0.2843  0.0302
  972loPI   C2A14196   5.916   3.759   6.476 -0.1597 -0.0165 -0.2507
  972loPI   C3A14197   5.912   3.511   6.793  0.1513  0.0911  0.1110
  972loPI   C4A14198   5.921   3.468   7.275  0.2462  0.1097 -0.3975
  972loPI   C5A14199   6.115   3.212   7.485  0.1342 -0.2306  0.0026
  972loPI   C6A14200   6.499   3.089   7.417  0.1425 -0.2721  0.0741
  972loPI   C1B14201   5.533   3.472   6.191 -0.0492 -0.4970 -0.0355
  972loPI   C2B14202   5.793   3.244   6.297  0.0896 -0.2325  0.0169
  972loPI   C3B14203   6.194   3.306   6.430 -0.0078  0.1822  0.1182
  972loPI   C4B14204   6.452   3.501   6.316  0.0628  0.1878  0.0428
  973loPI    C114205  17.145  14.951   5.768  0.1988  0.4996  0.1402
  973loPI    C214206  17.507  14.906   5.605  0.0592  0.0858 -0.0710
  973loPI    C314207  17.194  14.998   5.374 -0.0240  0.1486  0.0652
  973loPI   PO414208  17.325  15.069   6.043  0.1032 -0.1385 -0.0091
  973loPI   GL114209  17.292  15.185   6.414  0.0453 -0.2238 -0.2346
  973loPI   GL214210  17.507  15.515   6.236 -0.3122 -0.3426  0.0464
  973loPI   C1A14211  17.287  15.214   6.849 -0.1356  0.0584 -0.0324
  973loPI   C2A14212  17.403  15.216   7.251 -0.2364  0.1511  0.0144
  973loPI   C3A14213  17.370  15.324   7.598 -0.0860  0.0884  0.2660
  973loPI   C4A14214  17.291  15.057   7.952  0.2100  0.0335  0.2659
  973loPI   C5A14215  17.160  14.836   8.259  0.1087  0.0741  0.1205
  973loPI   C6A14216  17.225  14.840   8.622 -0.2040  0.0926 -0.1273
  973loPI   C1B14217  17.614  15.480   6.602 -0.1034 -0.2100  0.0948
  973loPI   C2B14218  17.664  15.565   7.024 -0.1656 -0.0173 -0.3531
  973loPI   C3B14219  17.637  15.640   7.390  0.0843  0.0311 -0.0965
  973loPI   C4B14220  17.527  15.734   7.776  0.1494 -0.0553 -0.0072
  974loPI    C114221  11.872   8.902   5.723 -0.0909 -0.0300 -0.2575
  974loPI    C214222  11.623   9.085   5.977  0.0831  0.1293 -0.1998
  974loPI    C314223  11.482   8.924   5.639 -0.1352 -0.0011 -0.0488
  974loPI   PO414224  12.133   9.033   5.853  0.0008  0.0117 -0.1311
  974loPI   GL114225  12.281   9.202   6.070 -0.1704 -0.1508 -0.1512
  974loPI   GL214226  12.097   9.311   6.282  0.0549  0.1007 -0.0708
  974loPI   C1A14227  12.421   8.898   6.433  0.1526  0.2172  0.0188
  974loPI   C2A14228  12.297   8.867   6.885  0.0442 -0.2074  0.1384
  974loPI   C3A14229  12.339   8.735   7.343  0.0650 -0.2489  0.1707
  974loPI   C4A14230  12.198   8.928   7.721  0.1034  0.2287 -0.1224
  974loPI   C5A14231  12.192   9.230   8.052 -0.0538 -0.0055 -0.1998
  974loPI   C6A14232  12.464   9.551   8.152 -0.3301 -0.1409  0.3654
  974loPI   C1B14233  11.944   9.079   6.563 -0.3098 -0.1784 -0.2600
  974loPI   C2B14234  11.987   9.170   7.037  0.1321 -0.1576  0.0588
  974loPI   C3B14235  12.246   9.266   7.303 -0.1304  0.1224  0.3864
  974loPI   C4B14236  12.330   9.538   7.644 -0.0307 -0.0495 -0.0319
  975loPI    C114237   0.101   3.242   5.502  0.0981  0.0843 -0.1197
  975loPI    C214238  -0.109   3.492   5.271 -0.0789  0.1021  0.0580
  975loPI    C314239  -0.114   3.099   5.197 -0.0413  0.1197 -0.0389
  975loPI   PO414240   0.183   3.376   5.744 -0.0255 -0.2326  0.1582
  975loPI   GL114241   0.237   3.530   6.141 -0.0302 -0.2108  0.1105
  975loPI   GL214242  -0.047   3.545   6.149 -0.1626  0.2744  0.1058
  975loPI   C1A14243   0.286   3.225   6.488 -0.0322  0.0650 -0.0483
  975loPI   C2A14244   0.339   3.059   6.891 -0.1353 -0.1288 -0.2811
  975loPI   C3A14245   0.365   2.847   7.135 -0.1318 -0.1501 -0.0222
  975loPI   C4A14246   0.498   2.926   7.556 -0.0124  0.2643 -0.0742
  975loPI   C5A14247   0.631   3.222   7.835  0.1327  0.0545 -0.2025
  975loPI   C6A14248   0.758   3.490   8.181 -0.2645 -0.0142 -0.1690
  975loPI   C1B14249  -0.018   3.657   6.525 -0.0602 -0.1883 -0.0780
  975loPI   C2B14250  -0.161   3.818   6.998 -0.2591  0.2764 -0.1243
  975loPI   C3B14251  -0.331   4.197   7.243  0.0285  0.0694  0.0971
  975loPI   C4B14252  -0.433   4.247   7.654  0.3529 -0.0785 -0.1243
  976loPI    C114253  14.539   0.186   5.517 -0.0926 -0.0949  0.1229
  976loPI    C214254  14.269   0.475   5.455  0.1314  0.0860 -0.0255
  976loPI    C314255  14.321   0.187   5.182 -0.2449 -0.2253  0.2200
  976loPI   PO414256  14.736   0.324   5.598 -0.1950 -0.1437  0.0687
  976loPI   GL114257  14.801   0.405   6.007  0.0983  0.1626 -0.2238
  976loPI   GL214258  14.486   0.603   5.970  0.2336  0.2275 -0.0222
  976loPI   C1A14259  14.874   0.633   6.432  0.3586 -0.1631  0.0038
  976loPI   C2A14260  14.933   0.895   6.766  0.1212  0.1765  0.2609
  976loPI   C3A14261  15.140   0.976   7.223  0.3588 -0.0827  0.2738
  976loPI   C4A14262  15.223   1.192   7.608  0.3072 -0.1302 -0.2300
  976loPI   C5A14263  15.112   1.324   8.075 -0.2557 -0.2732  0.1837
  976loPI   C6A14264  15.127   1.121   8.470 -0.1892 -0.3206  0.4454
  976loPI   C1B14265  14.368   0.778   6.286 -0.3493 -0.0305  0.1332
  976loPI   C2B14266  14.291   0.685   6.628  0.0465  0.1769  0.0625
  976loPI   C3B14267  14.045   0.834   6.901 -0.0397  0.2086 -0.1579
  976loPI   C4B14268  14.002   0.938   7.346  0.2629  0.0414 -0.1434
  977loPI    C114269   1.275   8.849   5.119 -0.0221 -0.0454 -0.0745
  977loPI    C214270   1.605   9.016   4.967  0.0865 -0.0088  0.1955
  977loPI    C314271   1.470   8.669   4.820  0.0979  0.1038 -0.0872
  977loPI   PO414272   1.397   8.879   5.419  0.1104 -0.1224  0.0503
  977loPI   GL114273   1.240   8.748   5.851  0.5063  0.2137  0.0951
  977loPI   GL214274   1.216   9.096   5.859  0.1328  0.0548 -0.0489
  977loPI   C1A14275   1.157   8.785   6.272  0.4278  0.1372  0.3395
  977loPI   C2A14276   1.263   8.616   6.650 -0.1766 -0.0236 -0.2803
  977loPI   C3A14277   1.326   8.317   6.982 -0.0193  0.0899  0.2375
  977loPI   C4A14278   1.533   8.352   7.411 -0.1116 -0.1260  0.1267
  977loPI   C5A14279   1.302   8.200   7.839 -0.0250  0.2835  0.2361
  977loPI   C6A14280   1.245   7.856   8.157 -0.2166  0.3130 -0.4244
  977loPI   C1B14281   1.216   9.417   6.137 -0.0938  0.8185  0.0368
  977loPI   C2B14282   1.170   9.531   6.518 -0.0013 -0.3775 -0.1162
  977loPI   C3B14283   1.130   9.543   6.925  0.0160  0.0794  0.0549
  977loPI   C4B14284   1.186   9.282   7.233 -0.0820 -0.1493 -0.2080
  978loPI    C114285   8.322   8.319   5.460  0.1956  0.0353  0.0816
  978loPI    C214286   8.538   8.434   5.144  0.1479 -0.1157 -0.0072
  978loPI    C314287   8.379   8.067   5.154  0.1106 -0.0955  0.1721
  978loPI   PO414288   8.422   8.486   5.726  0.0036 -0.0781 -0.2652
  978loPI   GL114289   8.285   8.681   6.056  0.1469  0.0998 -0.0994
  978loPI   GL214290   8.048   8.914   6.025 -0.1899  0.1085 -0.0355
  978loPI   C1A14291   8.212   8.843   6.587 -0.0391  0.0630  0.1436
  978loPI   C2A14292   8.306   9.007   6.966  0.0953  0.3878 -0.2214
  978loPI   C3A14293   8.439   8.871   7.403 -0.2460  0.0519  0.2586
  978loPI   C4A14294   8.604   8.758   7.656 -0.1995 -0.2995  0.0085
  978loPI   C5A14295   8.609   8.719   8.055  0.0961 -0.2859 -0.0850
  978loPI   C6A14296   8.455   8.362   8.205  0.0679 -0.2605 -0.0407
  978loPI   C1B14297   7.773   9.005   6.358  0.1518 -0.1103  0.1861
  978loPI   C2B14298   7.523   8.764   6.677 -0.5316 -0.3585 -0.0934
  978loPI   C3B14299   7.434   8.754   7.053 -0.3223  0.0494 -0.0359
  978loPI   C4B14300   7.446   8.831   7.552 -0.3287 -0.0038  0.0802
  979loPI    C114301   2.881   8.044   5.430  0.0601 -0.1248  0.1710
  979loPI    C214302   3.249   7.889   5.456  0.0665 -0.1302  0.0543
  979loPI    C314303   3.006   7.778   5.158  0.0038 -0.0565  0.0777
  979loPI   PO414304   2.883   8.121   5.711  0.3737 -0.0810  0.3365
  979loPI   GL114305   2.833   8.479   5.929  0.2052  0.0248 -0.0998
  979loPI   GL214306   2.575   8.626   5.881 -0.1123 -0.0293 -0.0717
  979loPI   C1A14307   2.730   8.325   6.301  0.2555 -0.0140  0.0342
  979loPI   C2A14308   2.610   8.312   6.775 -0.3721  0.4840  0.1507
  979loPI   C3A14309   2.398   8.176   7.134  0.0745  0.1280  0.1402
  979loPI   C4A14310   2.121   8.159   7.457 -0.0977 -0.0710 -0.1193
  979loPI   C5A14311   2.187   7.846   7.766  0.1374 -0.0866 -0.0861
  979loPI   C6A14312   2.499   7.618   7.997  0.0197 -0.1992 -0.0274
  979loPI   C1B14313   2.328   8.589   6.183 -0.1422  0.0104 -0.0515
  979loPI   C2B14314   2.157   8.315   6.482  0.1694  0.0273  0.0570
  979loPI   C3B14315   1.774   8.291   6.544 -0.0035  0.0592  0.2340
  979loPI   C4B14316   1.454   8.298   6.179 -0.1044 -0.1053 -0.0486
  980loPI    C114317  13.767  12.740   5.940  0.1852  0.0381  0.3305
  980loPI    C214318  14.035  12.685   5.649 -0.1086 -0.1223  0.0852
  980loPI    C314319  13.937  13.056   5.763  0.0246 -0.0587 -0.0042
  980loPI   PO414320  13.829  12.615   6.111  0.0484  0.2668  0.1478
  980loPI   GL114321  13.956  12.277   6.313  0.0506  0.0416 -0.1708
  980loPI   GL214322  13.665  12.105   6.271 -0.1588  0.1808 -0.2255
  980loPI   C1A14323  13.813  12.160   6.731 -0.1605 -0.1373  0.0571
  980loPI   C2A14324  13.757  12.132   7.169  0.2347  0.1466  0.1972
  980loPI   C3A14325  13.780  11.986   7.648  0.1337 -0.0379  0.2839
  980loPI   C4A14326  14.038  11.993   8.098  0.1550  0.1434  0.1113
  980loPI   C5A14327  14.270  12.073   8.438  0.1290 -0.1909  0.0348
  980loPI   C6A14328  14.659  12.216   8.724  0.0488  0.2262 -0.0265
  980loPI   C1B14329  13.312  11.982   6.512 -0.1277  0.1750  0.0814
  980loPI   C2B14330  13.312  11.923   6.974  0.2385  0.0749  0.1213
  980loPI   C3B14331  13.032  11.967   7.391 -0.0628 -0.0323 -0.0135
  980loPI   C4B14332  13.033  12.072   7.797  0.0568  0.3296  0.2080
  981loPI    C114333   4.780   2.415   5.120 -0.1400  0.0839 -0.0984
  981loPI    C214334   5.043   2.133   5.227 -0.1380  0.2179  0.2631
  981loPI    C314335   4.849   2.104   4.878  0.1822 -0.0021  0.0983
  981loPI   PO414336   4.664   2.437   5.423 -0.1735 -0.0006 -0.0908
  981loPI   GL114337   4.915   2.240   5.697  0.0872 -0.2049  0.0652
  981loPI   GL214338   4.742   1.945   5.900 -0.2462 -0.3510 -0.1341
  981loPI   C1A14339   5.104   2.386   6.112  0.2863 -0.0171 -0.0046
  981loPI   C2A14340   5.038   2.758   6.324  0.2720  0.4075 -0.2026
  981loPI   C3A14341   5.060   2.815   6.733  0.0848 -0.1425 -0.1171
  981loPI   C4A14342   5.386   2.934   6.976 -0.0124  0.1265 -0.0043
  981loPI   C5A14343   5.779   2.969   7.211  0.0796  0.2801 -0.1115
  981loPI   C6A14344   5.871   2.760   7.609 -0.0945 -0.2457 -0.1260
  981loPI   C1B14345   4.747   1.979   6.280  0.3652 -0.2195 -0.1232
  981loPI   C2B14346   4.739   2.100   6.751  0.1830  0.1554 -0.0195
  981loPI   C3B14347   4.864   1.966   7.108 -0.0835  0.0554 -0.0913
  981loPI   C4B14348   5.178   1.843   7.463  0.0594  0.1225 -0.0223
  982loPI    C114349   3.077  12.171   5.333 -0.0769 -0.2155 -0.0707
  982loPI    C214350   3.360  12.453   5.349 -0.1891 -0.0936 -0.2029
  982loPI    C314351   3.285  12.265   5.004 -0.2079 -0.1900 -0.1468
  982loPI   PO414352   3.137  12.056   5.671  0.1966 -0.1723 -0.1974
  982loPI   GL114353   3.002  12.071   6.070 -0.5588 -0.1671  0.0412
  982loPI   GL214354   3.334  12.149   6.095  0.0758  0.0916 -0.1078
  982loPI   C1A14355   2.865  11.975   6.349  0.2803  0.3242  0.3459
  982loPI   C2A14356   2.628  12.208   6.680 -0.2792  0.2731  0.1716
  982loPI   C3A14357   2.381  12.073   6.962 -0.0557 -0.1346  0.2496
  982loPI   C4A14358   2.294  12.146   7.376 -0.2069 -0.0719  0.0866
  982loPI   C5A14359   2.080  11.978   7.707  0.1061  0.1440  0.1956
  982loPI   C6A14360   2.136  11.877   8.073  0.2113 -0.1364 -0.2167
  982loPI   C1B14361   3.203  12.281   6.502 -0.0163  0.0747 -0.0681
  982loPI   C2B14362   3.043  12.427   6.895 -0.2608 -0.4212  0.1381
  982loPI   C3B14363   3.131  12.651   7.357  0.0892  0.2416 -0.1064
  982loPI   C4B14364   3.171  12.565   7.811  0.0854  0.0194 -0.0424
  983loPI    C114365  11.143   3.487   5.493  0.2116 -0.2093  0.0033
  983loPI    C214366  11.262   3.121   5.384  0.3270 -0.1333 -0.1299
  983loPI    C314367  11.209   3.405   5.107  0.1395 -0.0771 -0.0380
  983loPI   PO414368  11.260   3.497   5.752 -0.0315  0.1078  0.2593
  983loPI   GL114369  11.277   3.223   6.046  0.0076  0.1843 -0.2114
  983loPI   GL214370  10.966   3.139   5.900  0.1151  0.0367 -0.0618
  983loPI   C1A14371  11.237   3.222   6.457 -0.0812 -0.2623 -0.1551
  983loPI   C2A14372  11.204   3.208   6.952  0.0331 -0.0430  0.1205
  983loPI   C3A14373  11.112   3.265   7.265  0.0317  0.0224 -0.2224
  983loPI   C4A14374  11.146   3.582   7.569 -0.1729 -0.2636  0.0902
  983loPI   C5A14375  11.038   3.718   7.993 -0.0210  0.0635  0.3115
  983loPI   C6A14376  11.018   3.969   8.321  0.1251  0.0521  0.1918
  983loPI   C1B14377  10.666   2.919   6.235 -0.1283  0.2811 -0.2451
  983loPI   C2B14378  10.331   2.948   6.395 -0.1611  0.1100 -0.1330
  983loPI   C3B14379  10.290   2.926   6.832  0.1673 -0.1859 -0.0298
  983loPI   C4B14380  10.317   2.932   7.274 -0.2462  0.0012 -0.2022
  984loPI    C114381  11.075   9.150   5.439  0.0596  0.1607  0.0859
  984loPI    C214382  11.298   9.187   5.109  0.0255  0.1067  0.0566
  984loPI    C314383  10.934   9.352   5.123  0.1366  0.3469  0.1692
  984loPI   PO414384  11.047   8.867   5.432 -0.2093 -0.0924  0.1703
  984loPI   GL114385  10.999   8.640   5.809 -0.2683  0.0324  0.1295
  984loPI   GL214386  10.730   8.488   5.689 -0.0648 -0.0982  0.0740
  984loPI   C1A14387  11.014   8.835   6.129 -0.1102  0.2413 -0.2122
  984loPI   C2A14388  11.073   9.121   6.557  0.0844  0.4767 -0.0540
  984loPI   C3A14389  10.845   9.099   6.813 -0.0100  0.2102  0.1686
  984loPI   C4A14390  10.839   9.164   7.225 -0.0682 -0.0522  0.0008
  984loPI   C5A14391  10.984   9.166   7.658  0.1049 -0.4307  0.1330
  984loPI   C6A14392  11.034   9.383   8.066  0.0239  0.0801 -0.0538
  984loPI   C1B14393  10.519   8.682   6.041  0.0329  0.0639 -0.0294
  984loPI   C2B14394  10.548   8.629   6.492 -0.1285  0.0351 -0.1797
  984loPI   C3B14395  10.456   8.689   6.981  0.0101 -0.3197 -0.1926
  984loPI   C4B14396  10.678   8.727   7.351  0.2820 -0.0454  0.1331
  985loPI    C114397   1.347   0.887   5.809  0.1049  0.0423 -0.1917
  985loPI    C214398   1.294   1.213   5.584  0.0058  0.0713 -0.1271
  985loPI    C314399   1.097   0.876   5.497 -0.0900  0.1042 -0.0405
  985loPI   PO414400   1.638   0.864   5.869 -0.1383 -0.1810 -0.1034
  985loPI   GL114401   1.929   0.707   6.233  0.1167  0.1099  0.0039
  985loPI   GL214402   2.290   0.662   6.203  0.4136  0.0643  0.1880
  985loPI   C1A14403   1.973   1.030   6.631  0.2242 -0.0043  0.0466
  985loPI   C2A14404   1.939   1.232   7.072 -0.0692  0.0189 -0.3769
  985loPI   C3A14405   1.720   1.445   7.459 -0.1437  0.5093  0.0138
  985loPI   C4A14406   1.772   1.728   7.829 -0.2277 -0.0878 -0.0524
  985loPI   C5A14407   1.675   2.056   8.120 -0.1782  0.2516 -0.0352
  985loPI   C6A14408   1.873   2.036   8.508 -0.1109 -0.3064  0.0587
  985loPI   C1B14409   2.410   0.872   6.539  0.0535  0.1768  0.0264
  985loPI   C2B14410   2.621   0.973   6.902 -0.1089 -0.0253 -0.1479
  985loPI   C3B14411   2.850   1.014   7.301  0.1789 -0.0157 -0.1510
  985loPI   C4B14412   2.609   1.050   7.652  0.2689 -0.0481 -0.0200
  986loPI    C114413  15.328   9.819   5.243 -0.0633  0.4569 -0.0244
  986loPI    C214414  15.571  10.071   5.049  0.3249 -0.0396 -0.2057
  986loPI    C314415  15.446   9.736   4.870 -0.0146 -0.0852  0.1038
  986loPI   PO414416  15.122   9.909   5.375 -0.2569 -0.0967 -0.1169
  986loPI   GL114417  14.912   9.631   5.785  0.2824  0.2387  0.1976
  986loPI   GL214418  15.105   9.453   5.915 -0.1980 -0.4903  0.0281
  986loPI   C1A14419  14.762   9.631   6.207  0.1043 -0.0716  0.1116
  986loPI   C2A14420  14.785   9.554   6.645 -0.0821  0.1485 -0.2028
  986loPI   C3A14421  14.824   9.639   7.064 -0.4650 -0.0074 -0.1744
  986loPI   C4A14422  14.699   9.659   7.429  0.1681 -0.1747 -0.0692
  986loPI   C5A14423  14.511   9.705   7.809 -0.1400 -0.3078 -0.0628
  986loPI   C6A14424  14.478   9.719   8.275 -0.1458  0.1586 -0.3831
  986loPI   C1B14425  15.173   9.414   6.345 -0.1956 -0.0579  0.0567
  986loPI   C2B14426  15.204   9.325   6.835  0.0040  0.0439 -0.1894
  986loPI   C3B14427  15.314   9.479   7.238 -0.0735  0.0616  0.1172
  986loPI   C4B14428  15.282   9.458   7.744 -0.0640 -0.1333 -0.0869
  987loPI    C114429  16.830  16.772   5.889 -0.0879 -0.0164 -0.0980
  987loPI    C214430  17.012  16.542   5.617 -0.0356  0.0244 -0.0978
  987loPI    C314431  16.733  16.805   5.502  0.0179  0.0728 -0.1173
  987loPI   PO414432  16.985  16.799   6.042  0.1633 -0.1065  0.1577
  987loPI   GL114433  17.145  16.845   6.363 -0.1510 -0.3477 -0.4136
  987loPI   GL214434  16.907  16.611   6.541  0.1237 -0.0377 -0.1864
  987loPI   C1A14435  17.372  17.086   6.603  0.2421 -0.0692 -0.1284
  987loPI   C2A14436  17.638  17.366   6.778  0.1447 -0.0249 -0.2440
  987loPI   C3A14437  17.701  17.554   7.011 -0.1185 -0.1151 -0.1187
  987loPI   C4A14438  17.775  17.577   7.445  0.2165 -0.1313  0.1069
  987loPI   C5A14439  17.556  17.585   7.772 -0.0255  0.0132  0.1396
  987loPI   C6A14440  17.710  17.633   8.187  0.0393 -0.0185  0.1227
  987loPI   C1B14441  17.076  16.811   6.864 -0.0437  0.1032 -0.1698
  987loPI   C2B14442  17.050  16.905   7.370 -0.1284 -0.2036 -0.0773
  987loPI   C3B14443  17.239  16.753   7.682  0.1640 -0.1051  0.0356
  987loPI   C4B14444  17.338  16.858   8.130 -0.0275 -0.1764  0.0869
  988loPI    C114445  10.716   7.707   5.562  0.0155  0.0842  0.1118
  988loPI    C214446  10.520   7.696   5.213  0.0770  0.2533  0.0709
  988loPI    C314447  10.352   7.542   5.542  0.1553 -0.2077 -0.0971
  988loPI   PO414448  10.891   7.907   5.598  0.1707  0.1600 -0.1226
  988loPI   GL114449  11.089   8.177   5.951  0.0441  0.1357  0.0113
  988loPI   GL214450  11.153   7.873   6.037 -0.1317  0.1302 -0.2187
  988loPI   C1A14451  11.089   8.358   6.350  0.1433  0.0535  0.0793
  988loPI   C2A14452  11.103   8.489   6.753 -0.1793 -0.0316 -0.2969
  988loPI   C3A14453  11.185   8.767   7.073  0.5192 -0.0035  0.1317
  988loPI   C4A14454  11.144   8.705   7.561  0.0164 -0.2299 -0.0211
  988loPI   C5A14455  11.094   8.492   7.922  0.2993  0.0000 -0.3012
  988loPI   C6A14456  11.008   8.102   8.066 -0.3486  0.0350  0.0538
  988loPI   C1B14457  11.235   7.875   6.486  0.2208 -0.1191  0.0373
  988loPI   C2B14458  11.212   8.019   6.884 -0.2955 -0.1785  0.1243
  988loPI   C3B14459  11.410   8.360   7.140  0.1747  0.1472 -0.0473
  988loPI   C4B14460  11.489   8.303   7.614  0.0465  0.3254  0.0640
  989loPI    C114461  16.024  11.518   5.737 -0.1032  0.0829  0.0569
  989loPI    C214462  16.147  11.541   5.357 -0.0878 -0.0194  0.0556
  989loPI    C314463  16.311  11.274   5.606 -0.1259  0.0200  0.1236
  989loPI   PO414464  16.036  11.725   5.840 -0.1441  0.2793  0.2196
  989loPI   GL114465  15.707  11.777   6.160 -0.0027  0.0425 -0.0061
  989loPI   GL214466  15.770  11.416   6.211  0.1317 -0.1691  0.0900
  989loPI   C1A14467  15.637  11.690   6.613  0.3096  0.0862 -0.0676
  989loPI   C2A14468  15.668  11.648   6.993 -0.1982 -0.0598  0.2419
  989loPI   C3A14469  15.754  11.620   7.390 -0.5484 -0.2137 -0.0374
  989loPI   C4A14470  15.935  11.552   7.825  0.0923  0.4538  0.0262
  989loPI   C5A14471  15.774  11.606   8.210  0.2721  0.1372  0.0949
  989loPI   C6A14472  15.399  11.498   8.388 -0.0147  0.1755 -0.1937
  989loPI   C1B14473  15.780  11.195   6.659  0.0471  0.2408 -0.3519
  989loPI   C2B14474  15.732  11.134   7.096 -0.0004 -0.1364 -0.0006
  989loPI   C3B14475  15.555  11.208   7.615  0.0202 -0.2403 -0.1095
  989loPI   C4B14476  15.483  11.194   8.018  0.2619  0.1223  0.1165
  990loPI    C114477   1.940  17.491   5.460 -0.1477 -0.0912  0.1278
  990loPI    C214478   1.591  17.347   5.329 -0.0595 -0.2146  0.0256
  990loPI    C314479   1.932  17.234   5.154  0.0437 -0.2118  0.2220
  990loPI   PO414480   1.866  17.744   5.514  0.0652 -0.0044 -0.0478
  990loPI   GL114481   1.850  17.896   5.995  0.2588  0.0752  0.0459
  990loPI   GL214482   1.673  17.820   6.227  0.4193  0.0828  0.1890
  990loPI   C1A14483   2.235  17.872   6.237 -0.0284 -0.1121  0.2100
  990loPI   C2A14484   2.327  17.763   6.687 -0.1065  0.0574  0.1329
  990loPI   C3A14485   2.546  17.855   7.087 -0.0357  0.1390 -0.3318
  990loPI   C4A14486   2.714  18.131   7.380 -0.1608  0.4334 -0.2958
  990loPI   C5A14487   3.103  18.414   7.296 -0.1267 -0.0601 -0.1176
  990loPI   C6A14488   3.401  18.530   7.592 -0.1227 -0.0606 -0.1642
  990loPI   C1B14489   1.848  17.981   6.577 -0.0163  0.2790  0.0539
  990loPI   C2B14490   2.030  18.036   6.920  0.1332 -0.0200 -0.0031
  990loPI   C3B14491   2.255  18.230   7.246 -0.2337  0.0165 -0.3449
  990loPI   C4B14492   2.336  18.304   7.728 -0.1582  0.1101 -0.1090
  991loPI    C114493  13.091  11.466   5.468 -0.0979  0.4029 -0.1651
  991loPI    C214494  12.795  11.304   5.254  0.0617  0.0430 -0.1197
  991loPI    C314495  13.095  11.075   5.386  0.2888  0.3774 -0.0439
  991loPI   PO414496  12.974  11.643   5.721 -0.0221  0.1482 -0.2791
  991loPI   GL114497  12.923  11.479   6.091 -0.0417  0.0932 -0.1296
  991loPI   GL214498  13.078  11.138   5.900  0.0249 -0.0524  0.0034
  991loPI   C1A14499  12.645  11.483   6.450 -0.0881  0.1660 -0.1676
  991loPI   C2A14500  12.447  11.527   6.713 -0.0552 -0.0707  0.3973
  991loPI   C3A14501  12.209  11.459   7.059  0.0073 -0.0121 -0.2796
  991loPI   C4A14502  12.253  11.731   7.533  0.0747  0.0211 -0.4897
  991loPI   C5A14503  12.200  11.868   8.042  0.0697 -0.0869 -0.4120
  991loPI   C6A14504  12.198  12.317   8.198  0.1056  0.0711  0.2013
  991loPI   C1B14505  12.955  11.033   6.358 -0.1168 -0.0354  0.2230
  991loPI   C2B14506  12.802  11.149   6.810 -0.0716  0.1140  0.2513
  991loPI   C3B14507  12.798  11.075   7.237  0.0680  0.0849  0.1020
  991loPI   C4B14508  12.506  11.306   7.499  0.2726 -0.0083 -0.0151
  992loPI    C114509  10.578   4.800   5.312  0.0359 -0.0248  0.0208
  992loPI    C214510  10.874   4.719   5.056 -0.0644  0.0901 -0.1329
  992loPI    C314511  10.530   4.517   5.033  0.0738 -0.1915  0.1805
  992loPI   PO414512  10.724   4.863   5.565  0.1900  0.4137 -0.0285
  992loPI   GL114513  10.702   4.998   5.934 -0.0128  0.0021  0.0963
  992loPI   GL214514  10.485   5.217   6.011  0.1104  0.0577 -0.0803
  992loPI   C1A14515  10.664   4.748   6.241 -0.0827 -0.0365  0.2445
  992loPI   C2A14516  10.623   4.732   6.662 -0.2462  0.1286 -0.0079
  992loPI   C3A14517  10.592   4.462   7.055  0.1876 -0.3087  0.1419
  992loPI   C4A14518  10.648   4.335   7.488  0.0673  0.2096 -0.2940
  992loPI   C5A14519  10.287   4.416   7.840 -0.2698  0.0045  0.0480
  992loPI   C6A14520  10.129   4.563   8.204 -0.0362 -0.1620 -0.0958
  992loPI   C1B14521  10.337   5.085   6.497  0.1177  0.0267  0.2191
  992loPI   C2B14522  10.324   4.957   7.015 -0.3735 -0.1888 -0.2559
  992loPI   C3B14523  10.401   4.786   7.478  0.0777  0.0485  0.0468
  992loPI   C4B14524  10.724   4.838   7.734 -0.1004  0.1583  0.0643
  993loPI    C114525   4.019   2.503   5.190  0.0893  0.0391 -0.0906
  993loPI    C214526   4.320   2.262   5.081 -0.0556 -0.1968  0.0218
  993loPI    C314527   4.055   2.387   4.809  0.0198 -0.1637 -0.0368
  993loPI   PO414528   4.051   2.529   5.417  0.1046  0.1377  0.0533
  993loPI   GL114529   3.824   2.618   5.783  0.2372  0.0425  0.0056
  993loPI   GL214530   3.527   2.522   5.743  0.1281 -0.2063 -0.0608
  993loPI   C1A14531   4.105   2.799   6.091 -0.1527  0.1603  0.1522
  993loPI   C2A14532   4.265   3.019   6.496 -0.0919  0.1379  0.2475
  993loPI   C3A14533   4.417   2.981   6.931  0.0210 -0.0953 -0.2520
  993loPI   C4A14534   4.557   3.211   7.280 -0.0218  0.1277  0.0437
  993loPI   C5A14535   4.733   3.179   7.665  0.2731  0.1035 -0.0869
  993loPI   C6A14536   4.805   2.916   7.992  0.0870 -0.2353 -0.0577
  993loPI   C1B14537   3.418   2.201   5.887  0.1137 -0.1133  0.2818
  993loPI   C2B14538   3.179   1.864   6.000  0.5182  0.0173  0.0012
  993loPI   C3B14539   2.770   1.644   6.101 -0.0382 -0.1822 -0.0923
  993loPI   C4B14540   2.414   1.410   6.303  0.0256  0.0493  0.1651
  994loPI    C114541   5.066  16.685   5.376 -0.0772 -0.0380  0.1036
  994loPI    C214542   5.255  16.825   5.053 -0.1142 -0.0016  0.0976
  994loPI    C314543   4.868  16.729   5.031 -0.0213 -0.3764  0.0245
  994loPI   PO414544   5.196  16.377   5.476  0.2069  0.0510  0.1314
  994loPI   GL114545   5.212  16.462   5.869 -0.0951  0.0671 -0.1984
  994loPI   GL214546   5.377  16.359   6.085  0.2009 -0.2602  0.2668
  994loPI   C1A14547   5.036  16.752   6.135  0.2186  0.1749 -0.0416
  994loPI   C2A14548   4.985  17.102   6.284  0.0377 -0.2812 -0.1901
  994loPI   C3A14549   4.972  17.448   6.449 -0.1938 -0.0676  0.0910
  994loPI   C4A14550   5.015  17.477   6.939  0.1100 -0.2271 -0.0781
  994loPI   C5A14551   5.147  17.517   7.400  0.1462 -0.0732 -0.1629
  994loPI   C6A14552   4.972  17.282   7.708  0.0057 -0.2142  0.0588
  994loPI   C1B14553   5.631  16.203   6.485  0.2134 -0.1072  0.0108
  994loPI   C2B14554   5.778  16.216   6.904 -0.1874 -0.1122 -0.1298
  994loPI   C3B14555   5.923  16.131   7.335  0.2716  0.4558 -0.0923
  994loPI   C4B14556   6.264  16.057   7.654 -0.1804 -0.0456  0.0095
  995loPI    C114557   3.916   0.215   5.427 -0.1513 -0.2818 -0.0014
  995loPI    C214558   3.529   0.223   5.526 -0.1720  0.1860 -0.0936
  995loPI    C314559   3.648   0.374   5.176  0.0742 -0.1344 -0.1526
  995loPI   PO414560   4.097   0.089   5.671 -0.3248 -0.0613  0.2607
  995loPI   GL114561   4.018  -0.238   6.048  0.1871 -0.0206  0.0136
  995loPI   GL214562   4.202  -0.023   6.147  0.0563  0.0815  0.1923
  995loPI   C1A14563   4.131  -0.328   6.512 -0.0460 -0.3484 -0.1781
  995loPI   C2A14564   4.207  -0.348   6.908  0.1494  0.1706  0.1713
  995loPI   C3A14565   4.227  -0.362   7.287  0.2540  0.2321 -0.0813
  995loPI   C4A14566   3.892  -0.524   7.591  0.2548 -0.0379  0.1852
  995loPI   C5A14567   3.633  -0.761   7.878 -0.2562  0.1389  0.1891
  995loPI   C6A14568   3.533  -1.201   7.854 -0.2732  0.0623 -0.1360
  995loPI   C1B14569   4.408   0.139   6.525 -0.1848  0.3711 -0.1560
  995loPI   C2B14570   4.356   0.175   6.851 -0.0615 -0.1060 -0.1694
  995loPI   C3B14571   4.407   0.139   7.338 -0.0811 -0.5157 -0.0439
  995loPI   C4B14572   4.305   0.000   7.717 -0.1835 -0.0610  0.1842
  996loPI    C114573   9.942  15.388   5.278 -0.0928 -0.0746 -0.0429
  996loPI    C214574  10.170  15.105   5.111  0.0050  0.0425 -0.1095
  996loPI    C314575   9.775  15.108   5.045 -0.0280 -0.2015  0.0623
  996loPI   PO414576  10.041  15.385   5.565 -0.0348  0.2889 -0.0659
  996loPI   GL114577  10.158  15.567   6.054  0.3806  0.3108 -0.1062
  996loPI   GL214578  10.374  15.711   6.118  0.2083  0.2878 -0.0313
  996loPI   C1A14579   9.762  15.714   6.274  0.0297 -0.1652 -0.1003
  996loPI   C2A14580   9.709  15.921   6.571 -0.1656  0.2208  0.0706
  996loPI   C3A14581   9.802  16.058   6.963  0.3324  0.0039  0.0329
  996loPI   C4A14582   9.510  16.107   7.254 -0.2266  0.0644  0.0155
  996loPI   C5A14583   9.349  16.154   7.754 -0.0025  0.2732  0.1530
  996loPI   C6A14584   9.209  15.849   8.088 -0.3970  0.1897 -0.1340
  996loPI   C1B14585  10.247  15.756   6.550 -0.0596 -0.0099 -0.1643
  996loPI   C2B14586  10.238  15.804   6.977 -0.2834  0.2237  0.2498
  996loPI   C3B14587  10.234  15.874   7.434 -0.0135 -0.0197 -0.1486
  996loPI   C4B14588   9.789  15.761   7.824  0.1844 -0.0966  0.0216
  997loPI    C114589   6.218  17.784   5.217  0.0061 -0.0040  0.0231
  997loPI    C214590   6.523  17.536   5.144  0.0565  0.0615  0.0103
  997loPI    C314591   6.219  17.561   4.885  0.1429  0.1528 -0.0835
  997loPI   PO414592   6.146  17.767   5.486  0.0151  0.3566 -0.3600
  997loPI   GL114593   6.443  17.900   5.907  0.1658 -0.0373 -0.1013
  997loPI   GL214594   6.149  17.796   5.973 -0.0547  0.1768 -0.2037
  997loPI   C1A14595   6.612  17.656   6.232 -0.0695 -0.1761 -0.2145
  997loPI   C2A14596   6.728  17.611   6.597 -0.1844  0.0055 -0.3316
  997loPI   C3A14597   6.829  17.626   7.021  0.2616 -0.0257 -0.1886
  997loPI   C4A14598   6.926  17.555   7.493 -0.2048 -0.2552  0.1039
  997loPI   C5A14599   7.110  17.718   7.777  0.2300 -0.0428 -0.0197
  997loPI   C6A14600   7.383  17.984   8.032 -0.0725 -0.1915 -0.2494
  997loPI   C1B14601   6.137  17.854   6.384  0.1602  0.1074  0.1778
  997loPI   C2B14602   6.112  17.943   6.811 -0.1742  0.0396  0.1002
  997loPI   C3B14603   5.969  17.776   7.169 -0.0045  0.0675  0.0089
  997loPI   C4B14604   5.935  17.602   7.679 -0.0181  0.1585  0.5704
  998loPI    C114605  13.895   3.689   5.148 -0.0617 -0.0627 -0.0783
  998loPI    C214606  13.748   3.331   5.044 -0.0939 -0.0283 -0.1520
  998loPI    C314607  14.138   3.407   5.001 -0.0721 -0.0835 -0.0557
  998loPI   PO414608  13.820   3.804   5.448 -0.0906  0.0930 -0.1278
  998loPI   GL114609  13.955   3.898   5.789  0.1956 -0.2232 -0.0233
  998loPI   GL214610  14.244   3.885   5.745  0.2979  0.1071  0.2341
  998loPI   C1A14611  13.955   3.758   6.194  0.0103 -0.1290  0.2285
  998loPI   C2A14612  13.927   3.934   6.567  0.1984 -0.2512  0.1978
  998loPI   C3A14613  13.750   3.963   6.927  0.0106  0.0288 -0.1809
  998loPI   C4A14614  13.848   4.201   7.224  0.2752  0.0726  0.2000
  998loPI   C5A14615  14.038   4.116   7.614  0.3141  0.3587  0.1125
  998loPI   C6A14616  14.212   3.720   7.875  0.4373 -0.5120  0.1010
  998loPI   C1B14617  14.312   4.105   6.088 -0.1341  0.1425 -0.1300
  998loPI   C2B14618  14.533   4.246   6.467  0.0474  0.1328 -0.2540
  998loPI   C3B14619  14.595   3.931   6.865 -0.0636 -0.1024  0.0096
  998loPI   C4B14620  14.343   3.897   7.198 -0.2265 -0.1513 -0.0864
  999loPI    C114621   9.394  17.268   5.296  0.4460 -0.3428 -0.0064
  999loPI    C214622   9.219  16.970   5.094 -0.1720  0.1156 -0.1784
  999loPI    C314623   9.507  17.187   4.921 -0.1348 -0.0048 -0.2688
  999loPI   PO414624   9.537  17.175   5.483 -0.2907 -0.2865  0.2283
  999loPI   GL114625   9.560  17.246   5.891  0.1508  0.2107 -0.0562
  999loPI   GL214626   9.507  17.629   5.939  0.0474  0.0477  0.0036
  999loPI   C1A14627   9.347  17.210   6.207  0.0584  0.4850  0.2161
  999loPI   C2A14628   8.980  17.251   6.481 -0.3091  0.3693  0.1334
  999loPI   C3A14629   8.940  17.346   6.857 -0.1698  0.1684  0.1548
  999loPI   C4A14630   8.809  17.363   7.238 -0.0846  0.4181 -0.0157
  999loPI   C5A14631   9.051  17.398   7.662 -0.0199  0.1060 -0.0941
  999loPI   C6A14632   9.142  17.160   8.011  0.0106  0.0841 -0.1264
  999loPI   C1B14633   9.465  17.992   6.284  0.1449 -0.1246  0.0730
  999loPI   C2B14634   9.491  18.029   6.700 -0.0656  0.0545 -0.1715
  999loPI   C3B14635   9.679  18.083   7.002 -0.2280  0.0439  0.0538
  999loPI   C4B14636   9.618  18.141   7.493  0.0796 -0.2152  0.0054
 1000loPI    C114637  17.541  13.289   6.019 -0.0732  0.0231  0.0998
 1000loPI    C214638  17.736  12.942   5.979 -0.1869 -0.0292 -0.0076
 1000loPI    C314639  17.805  13.241   5.723 -0.0252  0.0589  0.1369
 1000loPI   PO414640  17.569  13.313   6.303 -0.1088 -0.1963 -0.0210
 1000loPI   GL114641  17.556  13.632   6.629  0.0931 -0.2721  0.0388
 1000loPI   GL214642  17.218  13.472   6.651  0.0846  0.0029 -0.0441
 1000loPI   C1A14643  17.649  13.753   7.028  0.1467  0.0384  0.2077
 1000loPI   C2A14644  17.825  13.821   7.588 -0.1452 -0.0811  0.1284
 1000loPI   C3A14645  18.040  13.796   8.019  0.3030 -0.0468  0.1970
 1000loPI   C4A14646  18.102  13.884   8.484 -0.1000 -0.2755 -0.1521
 1000loPI   C5A14647  17.975  14.313   8.751 -0.0173 -0.0054  0.3195
 1000loPI   C6A14648  17.714  14.675   8.777  0.0389  0.2179  0.3940
 1000loPI   C1B14649  17.448  13.287   7.068  0.0190  0.4829 -0.1327
 1000loPI   C2B14650  17.591  13.439   7.484  0.0638  0.1218 -0.0471
 1000loPI   C3B14651  17.887  13.333   7.718  0.0406  0.1855  0.2000
 1000loPI   C4B14652  17.861  13.144   8.113  0.2221  0.0436 -0.2073
 1001loPI    C114653   3.303   4.388   5.337  0.0745 -0.1067 -0.0176
 1001loPI    C214654   3.682   4.274   5.279 -0.0004 -0.3399 -0.0565
 1001loPI    C314655   3.577   4.655   5.219  0.1917 -0.3098 -0.2136
 1001loPI   PO414656   3.255   4.319   5.604 -0.2368 -0.1280 -0.2940
 1001loPI   GL114657   3.249   4.189   6.051  0.0592 -0.2510 -0.1863
 1001loPI   GL214658   2.963   4.272   6.022 -0.1054 -0.0690  0.0658
 1001loPI   C1A14659   3.343   3.935   6.299  0.2146 -0.1947 -0.0913
 1001loPI   C2A14660   3.540   3.737   6.719  0.2316 -0.0529  0.0128
 1001loPI   C3A14661   3.684   3.520   7.024  0.1325  0.2332 -0.2299
 1001loPI   C4A14662   3.724   3.357   7.423 -0.0740 -0.2632 -0.0572
 1001loPI   C5A14663   3.992   3.404   7.713  0.0351 -0.2226  0.0383
 1001loPI   C6A14664   4.386   3.606   7.642  0.1687 -0.0877  0.1776
 1001loPI   C1B14665   3.077   4.348   6.519 -0.0344 -0.0107 -0.0794
 1001loPI   C2B14666   3.253   4.295   6.954 -0.0571 -0.1379  0.1782
 1001loPI   C3B14667   3.271   4.212   7.353 -0.0499 -0.0770  0.2767
 1001loPI   C4B14668   3.299   4.326   7.829  0.0792  0.3129 -0.2369
 1002loPI    C114669   8.986   6.265   5.221  0.1042 -0.2151 -0.0227
 1002loPI    C214670   8.711   6.112   4.974 -0.2236 -0.0804  0.2514
 1002loPI    C314671   8.694   6.498   5.078  0.1925 -0.0194  0.1114
 1002loPI   PO414672   8.999   6.063   5.559 -0.1884  0.0178 -0.2034
 1002loPI   GL114673   9.001   5.725   5.798 -0.0499  0.0070  0.0083
 1002loPI   GL214674   9.105   5.807   5.992  0.2407 -0.2278 -0.2806
 1002loPI   C1A14675   8.717   5.915   6.229 -0.1676  0.0319  0.0758
 1002loPI   C2A14676   8.645   5.964   6.609 -0.2393 -0.2371 -0.3005
 1002loPI   C3A14677   8.727   5.924   7.073  0.2138  0.0752  0.3743
 1002loPI   C4A14678   8.730   5.688   7.485  0.0247 -0.0216  0.1172
 1002loPI   C5A14679   8.681   5.887   7.911  0.0723 -0.0565 -0.1155
 1002loPI   C6A14680   8.667   6.079   8.284  0.0717 -0.1263  0.0751
 1002loPI   C1B14681   9.215   5.871   6.412 -0.0539  0.0485 -0.0098
 1002loPI   C2B14682   9.143   6.000   6.765 -0.1897  0.1964 -0.0643
 1002loPI   C3B14683   9.276   5.849   7.107  0.2929 -0.1008  0.0744
 1002loPI   C4B14684   9.323   5.816   7.566 -0.1396  0.1357  0.4126
 1003loPI    C114685  11.765   4.165   5.378  0.0879  0.0467 -0.0257
 1003loPI    C214686  12.050   4.220   5.104  0.1180  0.0441  0.0049
 1003loPI    C314687  11.672   4.323   5.023  0.1165 -0.0119 -0.0593
 1003loPI   PO414688  11.912   4.197   5.605 -0.0360 -0.0743 -0.3177
 1003loPI   GL114689  11.757   4.357   6.010 -0.2094  0.1808  0.2785
 1003loPI   GL214690  11.907   4.021   6.058  0.0216  0.1263 -0.0853
 1003loPI   C1A14691  11.682   4.564   6.371  0.0376 -0.1716 -0.0678
 1003loPI   C2A14692  11.707   4.559   6.818 -0.0282 -0.0104  0.1196
 1003loPI   C3A14693  11.785   4.611   7.292 -0.0295  0.0905 -0.1060
 1003loPI   C4A14694  11.591   4.944   7.545 -0.0204 -0.2356 -0.1813
 1003loPI   C5A14695  11.091   5.064   7.471 -0.1532  0.1670  0.2263
 1003loPI   C6A14696  10.893   4.801   7.243 -0.2479 -0.1109 -0.1608
 1003loPI   C1B14697  11.942   4.173   6.488  0.2886 -0.0875  0.0444
 1003loPI   C2B14698  12.088   4.140   6.929  0.1022  0.0259  0.1125
 1003loPI   C3B14699  12.016   4.013   7.385 -0.0820  0.2018  0.1454
 1003loPI   C4B14700  12.122   4.064   7.812  0.0520  0.0956  0.1141
 1004loPI    C114701   5.988  11.997   5.412 -0.0935 -0.1359 -0.1093
 1004loPI    C214702   5.917  12.221   5.088  0.0979  0.0729 -0.0095
 1004loPI    C314703   6.286  12.084   5.159  0.0208 -0.1163  0.0310
 1004loPI   PO414704   5.895  12.159   5.583  0.0296 -0.0863 -0.0967
 1004loPI   GL114705   5.966  12.145   6.009  0.0516  0.1827  0.1080
 1004loPI   GL214706   5.832  11.865   6.180  0.0782  0.0075  0.4593
 1004loPI   C1A14707   6.159  12.535   6.203 -0.2201  0.1406 -0.0369
 1004loPI   C2A14708   6.242  12.823   6.652  0.0815 -0.0843 -0.4275
 1004loPI   C3A14709   6.417  12.827   7.117  0.1367  0.0242 -0.1463
 1004loPI   C4A14710   6.753  12.805   7.457 -0.0562  0.0681 -0.1108
 1004loPI   C5A14711   6.791  12.984   7.942  0.0285  0.2651 -0.1111
 1004loPI   C6A14712   6.837  13.286   8.294  0.1711  0.2283 -0.1506
 1004loPI   C1B14713   6.062  12.039   6.563 -0.1505  0.2217  0.1092
 1004loPI   C2B14714   6.199  11.951   6.966 -0.1999  0.2086  0.0406
 1004loPI   C3B14715   6.261  11.957   7.303 -0.2321  0.2943  0.0424
 1004loPI   C4B14716   6.270  12.123   7.745 -0.0974  0.2320  0.1808
 1005loPI    C114717   0.664   6.301   5.806 -0.0833 -0.1264 -0.0683
 1005loPI    C214718   0.680   6.681   5.930 -0.0105 -0.0940 -0.1761
 1005loPI    C314719   0.935   6.550   5.651 -0.2894 -0.1172 -0.4250
 1005loPI   PO414720   0.413   6.260   5.820 -0.2406  0.1601  0.1942
 1005loPI   GL114721   0.243   6.308   6.188  0.0878 -0.0407 -0.0680
 1005loPI   GL214722   0.534   6.345   6.319  0.0829  0.2204  0.1541
 1005loPI   C1A14723   0.016   6.343   6.624 -0.0139  0.0998  0.1963
 1005loPI   C2A14724  -0.065   6.241   6.993  0.0930 -0.0543 -0.1137
 1005loPI   C3A14725  -0.198   6.292   7.495  0.2684  0.1063  0.2527
 1005loPI   C4A14726  -0.212   6.515   7.881 -0.0531  0.0975  0.1136
 1005loPI   C5A14727  -0.469   6.745   8.175 -0.1778 -0.0422 -0.1248
 1005loPI   C6A14728  -0.634   7.119   8.061  0.2836  0.0850  0.2310
 1005loPI   C1B14729   0.480   6.560   6.738  0.2442  0.2006  0.2707
 1005loPI   C2B14730   0.279   6.596   7.073  0.1080 -0.1893 -0.0400
 1005loPI   C3B14731   0.107   6.743   7.483 -0.0626  0.2076  0.1864
 1005loPI   C4B14732  -0.283   6.951   7.698  0.1204  0.1051 -0.0551
 1006loPI    C114733   1.152  13.748   5.756 -0.2404 -0.1748  0.0550
 1006loPI    C214734   1.028  13.489   5.477 -0.1036  0.1014 -0.2697
 1006loPI    C314735   0.858  13.850   5.505 -0.1708  0.0476  0.0618
 1006loPI   PO414736   1.319  13.651   6.001  0.1275 -0.1936  0.0235
 1006loPI   GL114737   1.332  13.735   6.451 -0.0948 -0.1057  0.0560
 1006loPI   GL214738   1.077  13.528   6.451  0.1308 -0.4249  0.0324
 1006loPI   C1A14739   1.238  13.604   6.929  0.3744  0.1299 -0.0287
 1006loPI   C2A14740   1.303  13.474   7.325 -0.0336 -0.3645 -0.0919
 1006loPI   C3A14741   1.615  13.413   7.653 -0.5719  0.1554 -0.0024
 1006loPI   C4A14742   1.663  13.249   8.016 -0.0138  0.3211 -0.2218
 1006loPI   C5A14743   1.963  13.031   8.284  0.3352  0.1663  0.3872
 1006loPI   C6A14744   2.395  13.187   8.507  0.2642 -0.3129  0.3518
 1006loPI   C1B14745   0.798  13.338   6.713  0.2285  0.0059  0.3797
 1006loPI   C2B14746   0.914  13.193   7.130 -0.0823 -0.0610 -0.0923
 1006loPI   C3B14747   1.085  13.104   7.495 -0.0026 -0.3555 -0.0909
 1006loPI   C4B14748   1.152  13.363   7.882  0.1726 -0.2813  0.3585
 1007loPI    C114749  13.724   1.898   5.378 -0.0282  0.3736  0.2324
 1007loPI    C214750  13.481   2.209   5.317 -0.2771  0.1233 -0.0905
 1007loPI    C314751  13.608   1.991   5.007 -0.2350 -0.1941  0.1447
 1007loPI   PO414752  13.620   1.882   5.669 -0.2809 -0.2524  0.0321
 1007loPI   GL114753  13.507   2.022   6.008  0.1206  0.1692 -0.2399
 1007loPI   GL214754  13.522   2.345   5.943  0.1210  0.1341 -0.1750
 1007loPI   C1A14755  13.622   2.061   6.418  0.1035 -0.0439  0.2024
 1007loPI   C2A14756  13.832   2.277   6.848  0.6603 -0.0911  0.1249
 1007loPI   C3A14757  14.021   2.220   7.250 -0.0736  0.0994  0.2155
 1007loPI   C4A14758  13.997   2.228   7.721  0.2284 -0.0821 -0.1169
 1007loPI   C5A14759  13.622   2.142   7.945  0.1861  0.0004 -0.2593
 1007loPI   C6A14760  13.376   1.896   8.283 -0.2771  0.2392 -0.1449
 1007loPI   C1B14761  13.726   2.518   6.271 -0.1995 -0.2033  0.1708
 1007loPI   C2B14762  13.789   2.787   6.713  0.1143 -0.0547  0.1920
 1007loPI   C3B14763  13.739   2.729   7.086 -0.2531  0.1077 -0.3932
 1007loPI   C4B14764  13.731   2.637   7.560  0.2786  0.0481 -0.1226
 1008loPI    C114765   0.068  10.824   5.633 -0.0737 -0.0769  0.2646
 1008loPI    C214766  -0.172  10.889   5.321  0.0106 -0.0316  0.2089
 1008loPI    C314767  -0.297  10.976   5.691 -0.0129  0.1080  0.1689
 1008loPI   PO414768   0.180  10.688   5.620  0.2190 -0.2109 -0.0351
 1008loPI   GL114769   0.294  10.469   6.030 -0.0756 -0.6538  0.1204
 1008loPI   GL214770   0.383  10.197   6.014 -0.2400  0.1878 -0.1263
 1008loPI   C1A14771   0.339  10.541   6.472 -0.1980 -0.0137 -0.2848
 1008loPI   C2A14772   0.343  10.463   6.871 -0.0030 -0.0947  0.0558
 1008loPI   C3A14773   0.276  10.662   7.300 -0.0874 -0.0692  0.1689
 1008loPI   C4A14774  -0.100  10.660   7.653  0.1750 -0.2196  0.0373
 1008loPI   C5A14775  -0.158  10.376   8.009 -0.0308 -0.2039  0.0324
 1008loPI   C6A14776  -0.331  10.148   8.233 -0.0836  0.1333  0.1806
 1008loPI   C1B14777   0.382   9.943   6.270  0.3665 -0.0379  0.0570
 1008loPI   C2B14778   0.413   9.991   6.682  0.2957  0.1655 -0.0585
 1008loPI   C3B14779   0.369   9.964   7.066  0.0108  0.3334 -0.1844
 1008loPI   C4B14780   0.298   9.780   7.503 -0.2959  0.4203 -0.0329
 1009loPI    C114781   8.988  10.267   5.784 -0.1784 -0.1744 -0.0756
 1009loPI    C214782   8.891  10.571   5.543  0.1962  0.0120  0.0022
 1009loPI    C314783   8.803  10.196   5.436 -0.1489  0.1345 -0.1572
 1009loPI   PO414784   9.040  10.326   5.989 -0.0419  0.1700 -0.0829
 1009loPI   GL114785   9.189  10.656   6.317 -0.2427 -0.3115 -0.1281
 1009loPI   GL214786   8.894  10.560   6.438  0.1980 -0.0154  0.0997
 1009loPI   C1A14787   9.193  10.756   6.754 -0.2548  0.0400 -0.0981
 1009loPI   C2A14788   9.118  10.684   7.158 -0.0387  0.1578 -0.1031
 1009loPI   C3A14789   9.197  10.814   7.657  0.0165  0.1578  0.1682
 1009loPI   C4A14790   9.209  10.926   8.021 -0.2920  0.0987  0.2118
 1009loPI   C5A14791   8.922  11.081   8.283 -0.2657  0.3254  0.2014
 1009loPI   C6A14792   8.578  11.136   8.198  0.0066  0.0042 -0.0096
 1009loPI   C1B14793   8.673  10.648   6.812 -0.0533 -0.1286  0.0643
 1009loPI   C2B14794   8.642  10.621   7.237  0.1596 -0.1669 -0.2092
 1009loPI   C3B14795   8.516  10.349   7.580  0.1629 -0.0083 -0.1096
 1009loPI   C4B14796   8.456  10.207   7.990  0.1056 -0.1314 -0.2838
 1010loPI    C114797  12.721   9.926   5.584  0.2027 -0.1984 -0.0906
 1010loPI    C214798  12.988  10.064   5.848 -0.0178 -0.1609  0.1167
 1010loPI    C314799  12.624  10.227   5.828 -0.0193 -0.1942 -0.1818
 1010loPI   PO414800  12.737   9.658   5.645  0.0257  0.3572 -0.0649
 1010loPI   GL114801  12.769   9.468   5.971  0.1936 -0.0468  0.0248
 1010loPI   GL214802  12.919   9.726   6.152  0.0362  0.1213  0.0020
 1010loPI   C1A14803  12.535   9.503   6.424 -0.3248 -0.0921  0.1412
 1010loPI   C2A14804  12.385   9.361   6.827  0.1142  0.0948  0.3196
 1010loPI   C3A14805  12.311   9.678   7.147 -0.0673  0.0122 -0.2444
 1010loPI   C4A14806  12.134   9.956   7.420 -0.2431 -0.0265  0.0969
 1010loPI   C5A14807  12.269  10.009   7.909  0.0996 -0.3101 -0.3002
 1010loPI   C6A14808  12.394  10.050   8.307 -0.1402 -0.0794 -0.2276
 1010loPI   C1B14809  13.005   9.693   6.618 -0.2834  0.2064  0.0296
 1010loPI   C2B14810  12.880   9.512   6.992  0.1837  0.1969  0.0737
 1010loPI   C3B14811  12.790   9.480   7.354 -0.0275  0.0712 -0.1103
 1010loPI   C4B14812  12.811   9.558   7.791 -0.0620 -0.0077 -0.0425
 1011loPI    C114813   5.176   8.345   5.546 -0.2577  0.0919  0.0130
 1011loPI    C214814   5.110   7.968   5.660  0.1445  0.0175  0.0141
 1011loPI    C314815   5.158   8.054   5.272  0.1336  0.0549  0.0210
 1011loPI   PO414816   5.038   8.497   5.677 -0.0225 -0.3428  0.0219
 1011loPI   GL114817   4.861   8.417   6.075 -0.2385  0.4163 -0.0908
 1011loPI   GL214818   5.102   8.482   6.417 -0.0969 -0.1980  0.3406
 1011loPI   C1A14819   4.622   8.366   6.475 -0.2111  0.1426 -0.1551
 1011loPI   C2A14820   4.387   8.145   6.725 -0.2048  0.0064 -0.1081
 1011loPI   C3A14821   4.156   7.810   7.004  0.1274 -0.0455 -0.2059
 1011loPI   C4A14822   3.877   7.843   7.383 -0.4151 -0.1184  0.0100
 1011loPI   C5A14823   3.718   7.514   7.565 -0.0209  0.0561 -0.1872
 1011loPI   C6A14824   3.776   7.287   7.871  0.0209  0.0362  0.1834
 1011loPI   C1B14825   4.945   8.464   6.896  0.1605  0.2359  0.2962
 1011loPI   C2B14826   4.955   8.451   7.360  0.1838  0.0392  0.0843
 1011loPI   C3B14827   5.148   8.708   7.775 -0.1162 -0.0557  0.3457
 1011loPI   C4B14828   5.352   8.731   8.156 -0.1496 -0.0600 -0.0456
 1012loPI    C114829   9.165   4.900   4.946  0.1237  0.0002 -0.0581
 1012loPI    C214830   9.308   4.647   4.671 -0.3901 -0.1708 -0.1794
 1012loPI    C314831   9.115   4.979   4.557 -0.2864 -0.0541 -0.0207
 1012loPI   PO414832   9.147   4.658   5.112  0.1068  0.1896 -0.1182
 1012loPI   GL114833   9.192   4.753   5.554 -0.0492  0.1168 -0.0120
 1012loPI   GL214834   9.409   4.911   5.830  0.3418  0.3279  0.4113
 1012loPI   C1A14835   8.969   4.662   5.912  0.0591 -0.1351  0.2737
 1012loPI   C2A14836   8.908   4.829   6.314  0.0811  0.0132  0.0824
 1012loPI   C3A14837   8.645   4.498   6.425  0.2267  0.2562 -0.0695
 1012loPI   C4A14838   8.739   4.222   6.670 -0.0385  0.0616 -0.1429
 1012loPI   C5A14839   8.732   4.071   7.043  0.0553  0.0574 -0.2250
 1012loPI   C6A14840   8.472   4.003   7.255 -0.1413 -0.0116 -0.1787
 1012loPI   C1B14841   9.325   5.027   6.194 -0.0731 -0.0544  0.2752
 1012loPI   C2B14842   9.323   4.991   6.605  0.1317  0.0875  0.0224
 1012loPI   C3B14843   9.214   4.968   7.073  0.0476  0.4533  0.0502
 1012loPI   C4B14844   9.091   4.847   7.527  0.3244 -0.0026  0.0554
 1013loPI    C114845  17.382   8.168   5.285  0.1080 -0.0041 -0.0916
 1013loPI    C214846  17.085   8.360   5.097  0.0989  0.1120  0.0395
 1013loPI    C314847  17.391   8.210   4.887 -0.0410  0.0098 -0.0941
 1013loPI   PO414848  17.229   7.969   5.480 -0.2570  0.0046 -0.1404
 1013loPI   GL114849  16.989   8.149   5.898  0.3984 -0.0011 -0.0992
 1013loPI   GL214850  17.127   8.384   5.806 -0.3373  0.0794  0.0703
 1013loPI   C1A14851  16.747   8.195   6.352  0.4106 -0.1016 -0.4220
 1013loPI   C2A14852  16.611   8.236   6.834  0.0521  0.0190 -0.1964
 1013loPI   C3A14853  16.562   8.312   7.306 -0.0394  0.3397 -0.1789
 1013loPI   C4A14854  16.732   8.490   7.717  0.3046 -0.0906  0.3053
 1013loPI   C5A14855  17.197   8.568   7.922 -0.0556 -0.2289  0.0066
 1013loPI   C6A14856  17.589   8.718   8.196 -0.1447 -0.0075 -0.2339
 1013loPI   C1B14857  17.230   8.346   6.260 -0.0885 -0.4020 -0.1389
 1013loPI   C2B14858  17.112   8.224   6.718  0.0973  0.1831  0.3291
 1013loPI   C3B14859  17.107   8.177   7.149 -0.1689 -0.1142 -0.1323
 1013loPI   C4B14860  17.024   8.133   7.560  0.1295 -0.0519 -0.4380
 1014loPI    C114861   6.348   6.854   5.226  0.1829  0.1641  0.2937
 1014loPI    C214862   6.285   7.034   5.578 -0.0306  0.0997  0.2892
 1014loPI    C314863   6.022   7.080   5.279  0.1611  0.1726  0.1299
 1014loPI   PO414864   6.651   6.808   5.231 -0.0654  0.0357 -0.0424
 1014loPI   GL114865   6.806   6.557   5.533 -0.1866 -0.1204 -0.1073
 1014loPI   GL214866   7.168   6.559   5.640  0.2176 -0.3426 -0.0700
 1014loPI   C1A14867   6.564   6.783   5.990 -0.1043 -0.1966  0.0072
 1014loPI   C2A14868   6.521   6.899   6.450  0.0982  0.0403 -0.0591
 1014loPI   C3A14869   6.705   7.005   6.684  0.0435  0.1165  0.1658
 1014loPI   C4A14870   6.896   7.244   6.964  0.0853  0.1057  0.1240
 1014loPI   C5A14871   6.879   7.592   7.217 -0.1996 -0.1397 -0.4210
 1014loPI   C6A14872   6.975   7.610   7.668 -0.2322 -0.2694  0.0979
 1014loPI   C1B14873   7.025   6.616   6.107  0.0986  0.2976 -0.0146
 1014loPI   C2B14874   6.961   6.377   6.569  0.1455 -0.0521  0.3538
 1014loPI   C3B14875   6.895   6.455   6.960 -0.1184  0.2261 -0.4737
 1014loPI   C4B14876   7.050   6.411   7.406 -0.3324 -0.0066 -0.0904
 1015loPI    C114877  15.006   9.073   5.047  0.0812  0.0503  0.1325
 1015loPI    C214878  15.056   8.745   4.824 -0.3977 -0.0743  0.1970
 1015loPI    C314879  14.991   9.099   4.648 -0.1747 -0.0637  0.1328
 1015loPI   PO414880  14.918   8.901   5.334  0.3083  0.1587  0.1113
 1015loPI   GL114881  14.969   8.982   5.785 -0.0611  0.3794  0.1069
 1015loPI   GL214882  14.909   8.699   5.987 -0.1176 -0.2009 -0.0526
 1015loPI   C1A14883  14.804   9.149   6.142 -0.0244 -0.5517  0.1374
 1015loPI   C2A14884  14.802   9.096   6.554 -0.2418 -0.0179 -0.0517
 1015loPI   C3A14885  14.792   9.116   7.027  0.0162  0.2651  0.0234
 1015loPI   C4A14886  14.749   9.174   7.358  0.0846  0.0029  0.0500
 1015loPI   C5A14887  14.731   9.271   7.742  0.0923  0.2456  0.2983
 1015loPI   C6A14888  14.754   9.039   8.210 -0.1282 -0.1409  0.1161
 1015loPI   C1B14889  14.907   8.516   6.358 -0.0574 -0.0576  0.1626
 1015loPI   C2B14890  14.845   8.439   6.824  0.0038 -0.1763 -0.2261
 1015loPI   C3B14891  14.736   8.549   7.160  0.2193 -0.0508  0.0392
 1015loPI   C4B14892  14.733   8.701   7.576  0.0429  0.2550 -0.2853
 1016loPI    C114893  16.752  12.453   5.580 -0.0032 -0.1443 -0.0265
 1016loPI    C214894  17.033  12.567   5.319 -0.2050  0.1599 -0.1155
 1016loPI    C314895  16.847  12.840   5.545 -0.4388 -0.0359 -0.0667
 1016loPI   PO414896  16.928  12.210   5.739 -0.0088  0.3351  0.0441
 1016loPI   GL114897  16.912  11.889   6.158 -0.1367 -0.3972  0.0521
 1016loPI   GL214898  17.172  11.829   6.396 -0.2132 -0.1557 -0.0322
 1016loPI   C1A14899  16.685  11.609   6.526  0.0352 -0.0405 -0.3320
 1016loPI   C2A14900  16.698  11.493   7.014  0.3015  0.0829 -0.0748
 1016loPI   C3A14901  16.953  11.624   7.394 -0.2614  0.0081 -0.0440
 1016loPI   C4A14902  16.971  11.676   7.856  0.0681 -0.0586  0.0553
 1016loPI   C5A14903  16.517  11.761   7.974  0.1144 -0.1554  0.2773
 1016loPI   C6A14904  16.114  11.979   8.138  0.2564 -0.1543  0.1204
 1016loPI   C1B14905  17.074  11.831   6.769  0.1385 -0.0844 -0.1965
 1016loPI   C2B14906  16.992  12.074   7.041 -0.0798 -0.0552 -0.1127
 1016loPI   C3B14907  16.929  12.170   7.401 -0.1416 -0.0556  0.0030
 1016loPI   C4B14908  16.522  12.166   7.559  0.0073  0.2185 -0.0820
 1017loPI    C114909  17.899  13.697   6.057 -0.1472  0.4340 -0.1629
 1017loPI    C214910  18.220  13.923   5.979  0.2299 -0.0711 -0.1238
 1017loPI    C314911  18.103  13.645   5.716 -0.0219 -0.0638 -0.0215
 1017loPI   PO414912  17.966  13.615   6.343 -0.1352  0.1730  0.1402
 1017loPI   GL114913  18.015  13.304   6.546  0.1002  0.2639  0.0335
 1017loPI   GL214914  18.344  13.290   6.493 -0.0674  0.1200 -0.0247
 1017loPI   C1A14915  18.020  13.331   7.010 -0.2125  0.0432 -0.0924
 1017loPI   C2A14916  17.899  13.082   7.329 -0.1577  0.0512  0.3507
 1017loPI   C3A14917  17.823  12.788   7.607  0.2366  0.1874  0.0226
 1017loPI   C4A14918  17.709  12.698   8.085  0.4464 -0.2359 -0.2430
 1017loPI   C5A14919  17.621  12.347   8.391 -0.1034  0.4032 -0.3058
 1017loPI   C6A14920  17.533  11.936   8.574  0.1911 -0.0148 -0.1687
 1017loPI   C1B14921  18.513  13.267   6.900 -0.0101  0.3915 -0.1615
 1017loPI   C2B14922  18.568  13.094   7.318 -0.1552  0.3353 -0.1182
 1017loPI   C3B14923  18.262  13.010   7.638  0.3441  0.0337  0.0991
 1017loPI   C4B14924  18.173  12.772   7.993 -0.1160 -0.2236  0.1781
 1018loPI    C114925   1.009   3.305   5.425 -0.0398  0.1153  0.0530
 1018loPI    C214926   0.869   2.936   5.491  0.0080  0.0803 -0.0389
 1018loPI    C314927   0.615   3.240   5.437 -0.0317  0.0814  0.1460
 1018loPI   PO414928   1.265   3.318   5.705 -0.1115  0.3706  0.1058
 1018loPI   GL114929   1.341   3.098   6.066 -0.1115 -0.1846 -0.0999
 1018loPI   GL214930   1.092   3.127   6.193  0.3685 -0.0969 -0.0343
 1018loPI   C1A14931   1.637   3.204   6.242  0.3800  0.3036  0.1350
 1018loPI   C2A14932   1.773   3.180   6.677  0.1363 -0.1859  0.0961
 1018loPI   C3A14933   1.706   3.428   7.081  0.1327  0.0534 -0.1155
 1018loPI   C4A14934   1.597   3.622   7.437  0.0615 -0.1858  0.0651
 1018loPI   C5A14935   1.846   3.953   7.673  0.1927 -0.1710 -0.1200
 1018loPI   C6A14936   1.569   4.238   7.950  0.1399  0.2044 -0.1775
 1018loPI   C1B14937   1.284   3.127   6.676 -0.1259 -0.2296  0.3203
 1018loPI   C2B14938   1.309   2.962   7.063 -0.0435 -0.1895  0.1823
 1018loPI   C3B14939   1.245   3.138   7.458  0.0461 -0.1871 -0.0832
 1018loPI   C4B14940   1.256   3.204   7.934 -0.2011  0.0519  0.0478
 1019loPI    C114941   3.285  13.887   5.463  0.0113  0.0694 -0.1296
 1019loPI    C214942   3.659  14.003   5.546  0.1281 -0.3088 -0.1080
 1019loPI    C314943   3.470  14.151   5.226  0.2393 -0.0039 -0.0362
 1019loPI   PO414944   3.072  13.945   5.713  0.0643 -0.0778  0.0688
 1019loPI   GL114945   3.067  13.782   6.054  0.1345  0.3452 -0.0320
 1019loPI   GL214946   3.088  13.551   6.090 -0.0773 -0.2864 -0.0165
 1019loPI   C1A14947   3.012  14.021   6.419 -0.1836  0.0777  0.1939
 1019loPI   C2A14948   3.155  14.105   6.828 -0.1306 -0.0126 -0.2120
 1019loPI   C3A14949   3.284  14.230   7.227  0.3252 -0.2004 -0.2697
 1019loPI   C4A14950   3.358  14.529   7.561 -0.2246  0.0438 -0.1283
 1019loPI   C5A14951   3.607  14.774   7.885 -0.0801 -0.0467 -0.2592
 1019loPI   C6A14952   3.567  14.664   8.336 -0.2217 -0.4158  0.1975
 1019loPI   C1B14953   3.234  13.633   6.553  0.2145 -0.0531  0.0108
 1019loPI   C2B14954   3.347  13.621   6.969 -0.1198 -0.2718  0.0048
 1019loPI   C3B14955   3.100  13.748   7.371 -0.1751  0.1410  0.0910
 1019loPI   C4B14956   2.973  13.683   7.709 -0.1194 -0.1961 -0.2311
 1020loPI    C114957   7.750  16.854   5.183 -0.3285 -0.0837  0.2746
 1020loPI    C214958   7.457  16.806   4.915 -0.0523  0.0061 -0.0500
 1020loPI    C314959   7.812  16.951   4.800  0.0296  0.1715  0.3914
 1020loPI   PO414960   7.655  16.898   5.387  0.0406 -0.1169 -0.1509
 1020loPI   GL114961   7.699  17.096   5.831  0.1558 -0.0928 -0.0795
 1020loPI   GL214962   7.996  17.207   5.811  0.1485 -0.2052  0.4933
 1020loPI   C1A14963   7.664  17.210   6.294 -0.0321  0.0364 -0.1170
 1020loPI   C2A14964   7.675  17.273   6.677 -0.1225 -0.0104 -0.0439
 1020loPI   C3A14965   7.805  17.268   7.155 -0.1565  0.3761  0.0887
 1020loPI   C4A14966   8.062  17.116   7.535  0.0008  0.2875  0.1158
 1020loPI   C5A14967   8.186  16.772   7.704 -0.0254 -0.0052 -0.0674
 1020loPI   C6A14968   8.438  16.494   7.786  0.0149 -0.1119 -0.2687
 1020loPI   C1B14969   8.129  17.427   6.173 -0.1011  0.3853 -0.0342
 1020loPI   C2B14970   8.186  17.456   6.604 -0.2369 -0.2141  0.2013
 1020loPI   C3B14971   8.299  17.574   7.033  0.1346  0.2301  0.0197
 1020loPI   C4B14972   8.412  17.480   7.511 -0.0493  0.0231 -0.0529
 1021loPI    C114973  16.732   7.218   5.162  0.2025 -0.0353  0.0244
 1021loPI    C214974  16.809   7.014   4.827  0.0290 -0.0221 -0.0242
 1021loPI    C314975  16.464   7.214   4.865 -0.0074 -0.1271  0.2121
 1021loPI   PO414976  17.029   7.069   5.389  0.1975  0.1243 -0.1381
 1021loPI   GL114977  17.053   7.240   5.851  0.2232  0.0969 -0.0820
 1021loPI   GL214978  16.841   7.098   6.085  0.0780 -0.0660  0.0611
 1021loPI   C1A14979  17.390   7.082   6.095  0.1827 -0.2284 -0.0189
 1021loPI   C2A14980  17.428   7.134   6.506 -0.2561  0.1995 -0.2022
 1021loPI   C3A14981  17.532   7.102   6.957 -0.0964 -0.0081 -0.0164
 1021loPI   C4A14982  17.495   7.205   7.378  0.1238 -0.0607 -0.0828
 1021loPI   C5A14983  17.204   6.974   7.712  0.1547  0.1978 -0.3352
 1021loPI   C6A14984  16.879   7.099   8.054  0.1580  0.1369  0.0445
 1021loPI   C1B14985  16.956   7.257   6.380 -0.0663  0.0259 -0.3730
 1021loPI   C2B14986  17.028   7.183   6.748 -0.1349  0.1886  0.0587
 1021loPI   C3B14987  17.044   7.200   7.141 -0.2151  0.1516  0.0862
 1021loPI   C4B14988  16.733   7.095   7.391 -0.1639 -0.2602 -0.1525
 1022loPI    C114989  17.134  10.389   5.586 -0.1665  0.0636 -0.0442
 1022loPI    C214990  17.382  10.562   5.848 -0.1082 -0.1888  0.0701
 1022loPI    C314991  17.372  10.688   5.469  0.2746 -0.2460  0.0369
 1022loPI   PO414992  16.916  10.440   5.735  0.0192  0.0565 -0.1411
 1022loPI   GL114993  16.928  10.402   6.192  0.0470  0.1299  0.2203
 1022loPI   GL214994  17.081  10.687   6.205 -0.2883 -0.2980  0.0517
 1022loPI   C1A14995  16.919  10.129   6.528  0.0452  0.0350 -0.0888
 1022loPI   C2A14996  16.988  10.229   6.920  0.3344 -0.0164  0.0047
 1022loPI   C3A14997  16.810  10.015   7.297 -0.4214 -0.0169  0.2786
 1022loPI   C4A14998  16.785   9.915   7.728  0.2268 -0.5672 -0.1325
 1022loPI   C5A14999  16.790   9.722   8.170 -0.0794 -0.3178 -0.0969
 1022loPI   C6A15000  17.018   9.865   8.481 -0.1251  0.1572  0.2298
 1022loPI   C1B15001  17.132  10.812   6.641 -0.1600 -0.1585  0.1156
 1022loPI   C2B15002  17.024  10.758   7.020  0.2000  0.4912  0.0351
 1022loPI   C3B15003  16.653  10.510   7.282  0.0795 -0.2230  0.0317
 1022loPI   C4B15004  16.507  10.331   7.610 -0.1018 -0.2117  0.0419
 1023loPI    C115005   5.965  15.585   5.179  0.1850  0.1331 -0.0180
 1023loPI    C215006   6.280  15.501   5.411  0.1761  0.0313 -0.0424
 1023loPI    C315007   6.201  15.275   5.091  0.0166 -0.0086  0.0242
 1023loPI   PO415008   5.840  15.732   5.422  0.1678 -0.2937  0.0245
 1023loPI   GL115009   5.806  15.591   5.828 -0.0442 -0.0787  0.1636
 1023loPI   GL215010   5.856  15.953   6.010  0.1047  0.2844 -0.1381
 1023loPI   C1A15011   5.991  15.513   6.264 -0.1503  0.0914  0.3670
 1023loPI   C2A15012   6.017  15.637   6.663  0.0968 -0.1339  0.1886
 1023loPI   C3A15013   5.936  15.523   7.065 -0.4442  0.0162  0.0548
 1023loPI   C4A15014   5.956  15.150   7.294  0.4281  0.3558  0.0924
 1023loPI   C5A15015   5.563  14.906   7.536  0.0340 -0.1033  0.3487
 1023loPI   C6A15016   5.213  14.706   7.399 -0.0593 -0.2223  0.2667
 1023loPI   C1B15017   6.257  15.939   6.385  0.3464 -0.3962 -0.1575
 1023loPI   C2B15018   6.365  15.962   6.785  0.0533 -0.0301  0.1996
 1023loPI   C3B15019   6.320  15.826   7.154  0.0803 -0.1345  0.0716
 1023loPI   C4B15020   6.301  15.566   7.386  0.0348 -0.0285  0.2128
 1024loPI    C115021  17.226  13.973   5.755  0.0508 -0.2935  0.1382
 1024loPI    C215022  17.447  13.979   5.422 -0.0139  0.0066  0.0975
 1024loPI    C315023  17.495  13.685   5.689  0.2192 -0.0956 -0.0541
 1024loPI   PO415024  17.242  14.219   5.919 -0.2144  0.3220  0.1549
 1024loPI   GL115025  17.189  14.628   6.165  0.1892  0.0290  0.1270
 1024loPI   GL215026  16.908  14.356   6.296 -0.2259  0.0233  0.0791
 1024loPI   C1A15027  17.358  14.737   6.651 -0.0858  0.1787 -0.3254
 1024loPI   C2A15028  17.449  14.675   7.143 -0.1625  0.3415  0.2974
 1024loPI   C3A15029  17.536  14.840   7.503 -0.4132 -0.1230 -0.1436
 1024loPI   C4A15030  17.813  14.751   7.821  0.2176  0.0530  0.0471
 1024loPI   C5A15031  18.253  14.846   7.939  0.2499  0.1625 -0.3720
 1024loPI   C6A15032  18.597  14.731   8.195  0.0798  0.1305 -0.0302
 1024loPI   C1B15033  16.994  14.410   6.749 -0.0063  0.0037 -0.0990
 1024loPI   C2B15034  17.082  14.380   7.127 -0.1118 -0.0131 -0.3974
 1024loPI   C3B15035  17.177  14.460   7.528  0.0170 -0.4452  0.1501
 1024loPI   C4B15036  17.372  14.561   7.878 -0.1220  0.1138 -0.0790
 1025loPI    C115037   2.196  16.863   5.234 -0.3484 -0.0060 -0.1981
 1025loPI    C215038   2.340  16.491   5.263  0.2848  0.2320 -0.1374
 1025loPI    C315039   1.945  16.553   5.272  0.1748 -0.4149  0.0587
 1025loPI   PO415040   2.343  17.053   5.378  0.2615  0.0905  0.0716
 1025loPI   GL115041   2.252  17.136   5.934  0.2656  0.4177  0.1669
 1025loPI   GL215042   2.523  17.234   5.909  0.0581 -0.0744 -0.1178
 1025loPI   C1A15043   2.117  17.256   6.272 -0.1215  0.1247 -0.0499
 1025loPI   C2A15044   1.825  17.460   6.520 -0.2672  0.1490 -0.0735
 1025loPI   C3A15045   1.573  17.566   6.855  0.0073 -0.1087 -0.0401
 1025loPI   C4A15046   1.433  17.655   7.264  0.1463  0.0608 -0.1334
 1025loPI   C5A15047   1.405  17.419   7.566  0.2386 -0.0862  0.1991
 1025loPI   C6A15048   1.436  17.362   7.987 -0.4198  0.1869  0.0017
 1025loPI   C1B15049   2.537  17.486   6.242  0.0093  0.1846 -0.2050
 1025loPI   C2B15050   2.703  17.756   6.397  0.0467  0.1666 -0.1242
 1025loPI   C3B15051   2.906  17.879   6.672 -0.1030  0.0586 -0.0713
 1025loPI   C4B15052   3.245  17.879   6.940  0.4477 -0.2148 -0.2167
 1026loPI    C115053  15.131   4.691   5.052  0.0056  0.1273  0.1000
 1026loPI    C215054  15.180   4.560   4.677  0.0422  0.1099  0.1107
 1026loPI    C315055  14.991   4.906   4.745  0.1237  0.1627  0.0702
 1026loPI   PO415056  15.309   4.615   5.172 -0.0758 -0.2226 -0.1534
 1026loPI   GL115057  15.341   4.640   5.586 -0.5944  0.1352  0.0833
 1026loPI   GL215058  15.621   4.592   5.724  0.0899 -0.0714  0.3921
 1026loPI   C1A15059  15.146   4.423   5.897  0.2286 -0.0380  0.0049
 1026loPI   C2A15060  15.123   4.331   6.333  0.1664  0.1289  0.1396
 1026loPI   C3A15061  15.002   4.276   6.727  0.0435 -0.0823  0.0243
 1026loPI   C4A15062  15.078   4.195   7.139 -0.2146 -0.2827  0.2955
 1026loPI   C5A15063  14.951   4.430   7.525  0.0907 -0.2082 -0.0798
 1026loPI   C6A15064  14.684   4.801   7.723 -0.2478 -0.1177  0.1475
 1026loPI   C1B15065  15.605   4.513   6.229 -0.1385 -0.0424 -0.2308
 1026loPI   C2B15066  15.572   4.396   6.696  0.0851 -0.1961  0.2932
 1026loPI   C3B15067  15.704   4.436   7.094 -0.0333  0.0379  0.0527
 1026loPI   C4B15068  15.888   4.367   7.504  0.1700 -0.0860  0.1127
 1027loPI    C115069   2.778   9.920   5.384  0.0570  0.0281  0.1447
 1027loPI    C215070   2.702  10.244   5.163  0.3286  0.1363  0.2053
 1027loPI    C315071   2.769   9.892   4.985 -0.0035  0.1017  0.1406
 1027loPI   PO415072   2.918   9.938   5.582  0.3297  0.0608 -0.1969
 1027loPI   GL115073   2.759  10.098   6.012 -0.3994  0.0554  0.1740
 1027loPI   GL215074   3.018   9.915   6.148  0.0873  0.1410 -0.0779
 1027loPI   C1A15075   2.605   9.989   6.475 -0.0425 -0.3043  0.0865
 1027loPI   C2A15076   2.309   9.825   6.713 -0.2338  0.0885  0.4608
 1027loPI   C3A15077   2.292   9.694   7.163  0.0006 -0.0129  0.1172
 1027loPI   C4A15078   2.458   9.436   7.513 -0.0286  0.1647 -0.0267
 1027loPI   C5A15079   2.541   9.204   7.878 -0.4893  0.0394 -0.1501
 1027loPI   C6A15080   2.499   9.441   8.229  0.1195 -0.0313  0.0351
 1027loPI   C1B15081   3.064   9.959   6.554 -0.0964  0.2431 -0.0090
 1027loPI   C2B15082   3.179   9.962   6.978 -0.3623  0.0216 -0.2285
 1027loPI   C3B15083   3.554   9.919   7.222  0.0756 -0.1633 -0.0126
 1027loPI   C4B15084   3.733  10.322   7.465 -0.0388 -0.2960 -0.1603
 1028loPI    C115085   7.526  14.461   5.396 -0.0329  0.3116  0.0367
 1028loPI    C215086   7.785  14.630   5.142 -0.0018  0.1435 -0.0446
 1028loPI    C315087   7.427  14.508   5.012  0.0154  0.0539 -0.0088
 1028loPI   PO415088   7.597  14.410   5.556  0.3023  0.0726  0.1455
 1028loPI   GL115089   7.665  14.536   5.951 -0.0649  0.2316 -0.0124
 1028loPI   GL215090   7.393  14.334   5.988  0.0538 -0.0615  0.2411
 1028loPI   C1A15091   7.569  14.725   6.337 -0.3533  0.1116 -0.4406
 1028loPI   C2A15092   7.492  14.879   6.709 -0.0218  0.0846 -0.3617
 1028loPI   C3A15093   7.604  14.968   7.100  0.2632 -0.0292  0.2265
 1028loPI   C4A15094   7.621  14.965   7.512  0.4108  0.3904 -0.1964
 1028loPI   C5A15095   7.388  15.261   7.856  0.2001 -0.0772  0.0132
 1028loPI   C6A15096   7.270  15.320   8.319 -0.1345 -0.3228 -0.1996
 1028loPI   C1B15097   7.445  14.241   6.461 -0.3911  0.1368  0.0727
 1028loPI   C2B15098   7.660  14.436   6.752 -0.2619 -0.0189  0.0133
 1028loPI   C3B15099   7.854  14.539   7.102  0.2440  0.0398  0.1095
 1028loPI   C4B15100   8.061  14.878   7.245 -0.0205  0.0668 -0.2361
 1029loPI    C115101   0.536   1.745   5.412 -0.1402  0.1510 -0.1581
 1029loPI    C215102   0.345   1.484   5.178 -0.0665  0.2004 -0.2740
 1029loPI    C315103   0.722   1.588   5.095  0.0664 -0.0152  0.0423
 1029loPI   PO415104   0.389   1.949   5.461 -0.0006  0.0129  0.0774
 1029loPI   GL115105   0.081   1.963   5.796 -0.1166  0.2125 -0.1120
 1029loPI   GL215106   0.120   1.690   6.021 -0.1060 -0.4292 -0.0802
 1029loPI   C1A15107   0.110   2.197   6.178  0.1301  0.0001 -0.0862
 1029loPI   C2A15108   0.116   1.932   6.609  0.4875 -0.0918 -0.1157
 1029loPI   C3A15109   0.152   1.799   7.109  0.1130  0.0915 -0.4403
 1029loPI   C4A15110   0.082   1.656   7.477 -0.1103  0.1212  0.5839
 1029loPI   C5A15111  -0.093   1.613   7.842 -0.1871 -0.0072 -0.1923
 1029loPI   C6A15112  -0.276   1.247   8.072 -0.0065 -0.2313 -0.1475
 1029loPI   C1B15113   0.146   1.507   6.382 -0.0482 -0.0275  0.4723
 1029loPI   C2B15114  -0.015   1.421   6.646 -0.0619 -0.3326 -0.1984
 1029loPI   C3B15115  -0.146   1.385   7.031 -0.0060 -0.2542 -0.1193
 1029loPI   C4B15116  -0.363   1.330   7.481  0.1041 -0.2521 -0.3320
 1030loPI    C115117  16.043   7.177   5.555  0.0514  0.0116  0.1631
 1030loPI    C215118  15.884   6.991   5.238 -0.0282  0.0968  0.1527
 1030loPI    C315119  16.281   7.017   5.276 -0.0041 -0.4370  0.3625
 1030loPI   PO415120  15.839   7.419   5.661 -0.2637  0.1703  0.0728
 1030loPI   GL115121  15.699   7.568   6.063 -0.5100 -0.0953  0.2041
 1030loPI   GL215122  15.405   7.578   5.904 -0.2219  0.3711 -0.1967
 1030loPI   C1A15123  15.854   7.617   6.493 -0.1736 -0.2407  0.1878
 1030loPI   C2A15124  15.853   7.561   6.974  0.1646  0.1627  0.0767
 1030loPI   C3A15125  15.812   7.638   7.337  0.1327  0.1584 -0.2427
 1030loPI   C4A15126  15.695   7.614   7.787 -0.2740 -0.0189 -0.1023
 1030loPI   C5A15127  15.224   7.616   7.901  0.0230 -0.0608 -0.3833
 1030loPI   C6A15128  14.806   7.488   8.186  0.2515  0.3639  0.0394
 1030loPI   C1B15129  15.333   7.853   6.249  0.1916  0.0529 -0.0507
 1030loPI   C2B15130  15.354   7.757   6.667 -0.0565 -0.2027  0.1960
 1030loPI   C3B15131  15.352   7.650   7.104  0.0579 -0.1284 -0.2056
 1030loPI   C4B15132  15.323   7.839   7.480 -0.0940 -0.0056  0.2235
 1031loPI    C115133  12.564   0.635   5.391 -0.0797 -0.0639 -0.2803
 1031loPI    C215134  12.198   0.553   5.254 -0.2240  0.2371 -0.0864
 1031loPI    C315135  12.436   0.803   5.052 -0.0278 -0.1439 -0.3400
 1031loPI   PO415136  12.510   0.718   5.620 -0.1580 -0.1145 -0.2059
 1031loPI   GL115137  12.412   0.561   6.067  0.1132 -0.0401  0.1436
 1031loPI   GL215138  12.340   0.322   5.889 -0.0233 -0.2353  0.1621
 1031loPI   C1A15139  12.361   0.532   6.460 -0.1118 -0.3039 -0.0517
 1031loPI   C2A15140  12.211   0.621   6.802 -0.0280 -0.2382 -0.0608
 1031loPI   C3A15141  12.276   0.525   7.200  0.1105  0.2302  0.3639
 1031loPI   C4A15142  12.086   0.424   7.591 -0.0963  0.1136 -0.0427
 1031loPI   C5A15143  12.049   0.481   7.993  0.3686 -0.0791  0.0831
 1031loPI   C6A15144  12.119   0.100   8.337 -0.1338  0.0985 -0.0151
 1031loPI   C1B15145  12.134   0.091   6.214 -0.3702 -0.2375 -0.2118
 1031loPI   C2B15146  12.045  -0.271   6.631 -0.0137 -0.0361  0.1887
 1031loPI   C3B15147  12.044  -0.430   7.075 -0.4368  0.4506 -0.0775
 1031loPI   C4B15148  12.316  -0.499   7.420  0.3191  0.1194 -0.0015
 1032loPI    C115149  12.096  11.646   5.916  0.0197 -0.1263  0.0153
 1032loPI    C215150  12.049  11.946   5.657 -0.1453 -0.1843 -0.0234
 1032loPI    C315151  11.812  11.921   5.978 -0.0541 -0.2080  0.0425
 1032loPI   PO415152  12.120  11.412   5.771 -0.1323  0.0195 -0.2147
 1032loPI   GL115153  12.193  11.061   6.024  0.3478 -0.0063  0.1048
 1032loPI   GL215154  12.170  11.337   6.324 -0.0419  0.5535  0.2254
 1032loPI   C1A15155  12.445  10.902   6.417 -0.1659 -0.3673 -0.0474
 1032loPI   C2A15156  12.363  11.022   6.839 -0.1758  0.1253  0.0449
 1032loPI   C3A15157  12.345  10.859   7.189 -0.1337 -0.2927  0.1125
 1032loPI   C4A15158  12.532  10.857   7.704  0.3372 -0.0702  0.1417
 1032loPI   C5A15159  12.435  11.077   8.030 -0.1449  0.1623  0.0170
 1032loPI   C6A15160  12.112  11.421   7.909 -0.0207  0.1330 -0.4303
 1032loPI   C1B15161  11.801  11.534   6.520 -0.0022 -0.2666 -0.0702
 1032loPI   C2B15162  11.714  11.648   6.941 -0.1350 -0.2570  0.0241
 1032loPI   C3B15163  11.764  11.624   7.442  0.2786 -0.2280  0.1163
 1032loPI   C4B15164  11.578  11.281   7.665  0.2821  0.1570  0.3380
 1033loPI    C115165   4.397  12.392   5.457  0.0222 -0.0754  0.0781
 1033loPI    C215166   4.246  12.120   5.205 -0.0978  0.0840 -0.0246
 1033loPI    C315167   4.413  12.454   5.062 -0.0954  0.1391  0.1051
 1033loPI   PO415168   4.509  12.276   5.691  0.0438 -0.0692 -0.1133
 1033loPI   GL115169   4.419  12.008   6.009 -0.0336  0.1260  0.4104
 1033loPI   GL215170   4.576  11.782   6.165  0.0217  0.1451  0.1231
 1033loPI   C1A15171   4.314  12.008   6.527  0.1541 -0.0193 -0.0222
 1033loPI   C2A15172   4.176  12.090   6.928 -0.2051  0.0080  0.1009
 1033loPI   C3A15173   4.014  12.308   7.219  0.1556 -0.0007 -0.2828
 1033loPI   C4A15174   3.883  12.501   7.568 -0.1481  0.1486 -0.0649
 1033loPI   C5A15175   4.119  12.921   7.751 -0.1093  0.1808  0.0233
 1033loPI   C6A15176   4.426  13.041   8.044 -0.0517  0.1027 -0.1109
 1033loPI   C1B15177   4.611  11.618   6.670 -0.0283  0.0669 -0.2676
 1033loPI   C2B15178   4.510  11.743   7.026  0.2410 -0.0469  0.0414
 1033loPI   C3B15179   4.355  11.970   7.435 -0.1857  0.0027 -0.1886
 1033loPI   C4B15180   4.415  11.968   7.880 -0.2727 -0.0883 -0.2787
 1034loPI    C115181  13.114  14.321   6.061  0.0713 -0.0575  0.0576
 1034loPI    C215182  13.159  14.684   6.224 -0.2253 -0.0139  0.0499
 1034loPI    C315183  13.069  14.649   5.836  0.0886 -0.1066 -0.0177
 1034loPI   PO415184  13.258  14.222   6.155  0.2211 -0.1255 -0.0487
 1034loPI   GL115185  13.309  14.228   6.593  0.1134  0.0674 -0.2194
 1034loPI   GL215186  13.217  13.872   6.528 -0.0478 -0.4189  0.1237
 1034loPI   C1A15187  13.265  14.109   7.051 -0.0535 -0.0772 -0.0692
 1034loPI   C2A15188  13.260  14.185   7.427  0.1101 -0.1389  0.2546
 1034loPI   C3A15189  13.452  14.113   7.911 -0.1983 -0.1406  0.2323
 1034loPI   C4A15190  13.558  13.779   8.261 -0.0828  0.0055  0.0986
 1034loPI   C5A15191  13.867  13.976   8.605  0.0307  0.3929 -0.1255
 1034loPI   C6A15192  14.283  14.243   8.575  0.0729 -0.2374  0.2232
 1034loPI   C1B15193  13.356  13.604   6.772  0.0525  0.1562 -0.2880
 1034loPI   C2B15194  13.448  13.533   7.121  0.0914 -0.1270 -0.0221
 1034loPI   C3B15195  13.516  13.288   7.460  0.0204  0.0885 -0.0438
 1034loPI   C4B15196  13.242  13.358   7.825  0.1740  0.2599  0.0185
 1035loPI    C115197  13.204   5.933   5.667 -0.2828 -0.0419  0.3386
 1035loPI    C215198  13.019   5.705   5.396  0.0486  0.0836 -0.0013
 1035loPI    C315199  12.984   6.103   5.380  0.1233  0.0946  0.0989
 1035loPI   PO415200  13.242   5.772   5.840  0.0425  0.0632 -0.1669
 1035loPI   GL115201  13.505   5.602   6.051 -0.0347 -0.0696 -0.1216
 1035loPI   GL215202  13.687   5.199   6.035  0.3680 -0.0651 -0.2332
 1035loPI   C1A15203  13.426   5.719   6.514 -0.0602 -0.3341  0.0773
 1035loPI   C2A15204  13.582   5.612   6.909  0.1358 -0.0488 -0.0593
 1035loPI   C3A15205  13.639   5.535   7.344  0.2568  0.2174 -0.1402
 1035loPI   C4A15206  13.513   5.430   7.701  0.0581  0.2196  0.1326
 1035loPI   C5A15207  13.497   5.569   8.072 -0.0750  0.0975  0.2088
 1035loPI   C6A15208  13.721   5.483   8.507 -0.2474  0.1562  0.1460
 1035loPI   C1B15209  13.749   5.315   6.460  0.0250 -0.1494 -0.1205
 1035loPI   C2B15210  13.612   5.121   6.956  0.0588 -0.0642 -0.2049
 1035loPI   C3B15211  13.615   5.037   7.356  0.5816 -0.0316 -0.2308
 1035loPI   C4B15212  13.723   5.011   7.859 -0.0792  0.0130 -0.1434
 1036loPI    C115213   5.834   2.760   4.891  0.0530  0.0510  0.1033
 1036loPI    C215214   5.812   2.989   5.218  0.0036  0.2015 -0.0040
 1036loPI    C315215   5.670   2.615   5.226 -0.1305  0.2538  0.1036
 1036loPI   PO415216   6.057   2.705   4.850 -0.0475 -0.0201  0.3004
 1036loPI   GL115217   6.365   2.805   5.238  0.0718  0.1960 -0.0101
 1036loPI   GL215218   6.666   2.810   5.514 -0.0328  0.1386 -0.0207
 1036loPI   C1A15219   6.036   2.782   5.566  0.1211  0.1840 -0.2899
 1036loPI   C2A15220   5.963   2.737   5.988 -0.2783 -0.0929  0.0656
 1036loPI   C3A15221   6.019   2.742   6.414  0.0346 -0.1952  0.2939
 1036loPI   C4A15222   5.954   3.001   6.744  0.0504  0.2610  0.0586
 1036loPI   C5A15223   6.262   3.102   6.961 -0.0642 -0.0522  0.3056
 1036loPI   C6A15224   6.615   2.834   7.042 -0.0387  0.2850 -0.1010
 1036loPI   C1B15225   6.477   2.576   5.740  0.0563  0.0239 -0.0889
 1036loPI   C2B15226   6.286   2.383   6.076 -0.0499 -0.0275  0.2653
 1036loPI   C3B15227   6.340   2.354   6.472  0.2247 -0.0587 -0.0503
 1036loPI   C4B15228   6.335   2.063   6.776  0.2577 -0.1439 -0.0762
 1037loPI    C115229  14.761   4.997   5.238 -0.3177  0.1508  0.0043
 1037loPI    C215230  14.436   4.823   5.394 -0.2031 -0.2273 -0.1679
 1037loPI    C315231  14.561   4.722   5.027  0.1844 -0.1835 -0.0520
 1037loPI   PO415232  14.931   4.976   5.422  0.1997 -0.0095 -0.2507
 1037loPI   GL115233  15.100   5.072   5.748 -0.0749 -0.1970 -0.0821
 1037loPI   GL215234  14.982   5.410   5.766  0.1699  0.0400 -0.3229
 1037loPI   C1A15235  15.256   4.895   6.136  0.2155  0.2194 -0.1421
 1037loPI   C2A15236  15.295   4.825   6.572  0.1836 -0.0511 -0.2402
 1037loPI   C3A15237  15.140   4.681   7.007 -0.0794 -0.0878  0.1028
 1037loPI   C4A15238  15.320   4.759   7.378 -0.1288 -0.0174 -0.1581
 1037loPI   C5A15239  15.451   4.997   7.684  0.2765  0.1187 -0.1231
 1037loPI   C6A15240  15.773   4.992   7.954  0.1038  0.2304  0.1518
 1037loPI   C1B15241  15.126   5.665   6.055  0.3252  0.1273 -0.1474
 1037loPI   C2B15242  15.200   5.762   6.490  0.1973 -0.1260 -0.0207
 1037loPI   C3B15243  15.165   5.807   6.898 -0.1066  0.0972 -0.0616
 1037loPI   C4B15244  15.090   5.726   7.302 -0.2647  0.1221  0.1781
 1038loPI    C115245  11.037   2.571   5.507 -0.0818  0.0783  0.0154
 1038loPI    C215246  10.718   2.392   5.670 -0.1136  0.0525 -0.0749
 1038loPI    C315247  10.836   2.293   5.301 -0.0218  0.0869 -0.0549
 1038loPI   PO415248  11.161   2.690   5.632  0.1150  0.1218 -0.2809
 1038loPI   GL115249  11.042   2.595   6.086 -0.0344 -0.0453  0.3075
 1038loPI   GL215250  11.091   2.307   6.009  0.1858  0.0329 -0.0458
 1038loPI   C1A15251  10.944   2.583   6.571  0.1694  0.0267  0.1558
 1038loPI   C2A15252  10.888   2.329   6.988  0.1987 -0.3086 -0.2740
 1038loPI   C3A15253  10.790   2.297   7.445  0.2392 -0.2104  0.3318
 1038loPI   C4A15254  10.820   1.922   7.723 -0.0439  0.0964  0.4799
 1038loPI   C5A15255  10.530   1.634   8.023 -0.1026 -0.4191  0.4887
 1038loPI   C6A15256  10.198   1.523   8.321 -0.2384  0.0343 -0.0206
 1038loPI   C1B15257  10.963   2.091   6.360  0.2341 -0.0018  0.1878
 1038loPI   C2B15258  10.995   1.870   6.846 -0.2886 -0.0619  0.0138
 1038loPI   C3B15259  11.300   1.856   7.142 -0.1808  0.1644  0.2101
 1038loPI   C4B15260  11.591   1.858   7.538  0.3097 -0.1518 -0.0038
 1039loPI    C115261   1.779   4.172   5.353 -0.0121  0.0471 -0.2404
 1039loPI    C215262   1.527   3.883   5.238  0.0236 -0.0354 -0.1127
 1039loPI    C315263   1.803   4.020   4.983 -0.1279  0.0319 -0.2419
 1039loPI   PO415264   1.630   4.256   5.636 -0.2886  0.2014  0.1584
 1039loPI   GL115265   1.600   4.046   6.009  0.1825 -0.2700 -0.1726
 1039loPI   GL215266   1.731   4.136   6.205  0.1914  0.0395 -0.1480
 1039loPI   C1A15267   1.464   3.697   6.226 -0.0046 -0.0244 -0.2598
 1039loPI   C2A15268   1.443   3.606   6.688 -0.1532 -0.1147  0.0998
 1039loPI   C3A15269   1.218   3.527   7.086 -0.2947 -0.3361 -0.0450
 1039loPI   C4A15270   1.136   3.647   7.599  0.1897 -0.2685  0.1756
 1039loPI   C5A15271   0.820   3.865   7.833  0.0285  0.2416  0.1248
 1039loPI   C6A15272   0.530   4.031   8.155 -0.0750  0.0624  0.0140
 1039loPI   C1B15273   1.633   4.053   6.558 -0.2271  0.1635  0.0972
 1039loPI   C2B15274   1.579   4.042   7.043 -0.2254 -0.3911 -0.2642
 1039loPI   C3B15275   1.367   4.042   7.294  0.2130 -0.1064 -0.0948
 1039loPI   C4B15276   1.162   4.171   7.689  0.0062  0.0196  0.2857
 1040loPI    C115277   7.756   8.558   5.680 -0.1586  0.0117 -0.0929
 1040loPI    C215278   7.849   8.328   5.366 -0.1037  0.1311 -0.1650
 1040loPI    C315279   7.480   8.478   5.401 -0.1514 -0.0002 -0.0966
 1040loPI   PO415280   7.875   8.422   5.876  0.1707 -0.1656 -0.1851
 1040loPI   GL115281   8.136   8.151   6.149  0.0615 -0.1200  0.1821
 1040loPI   GL215282   8.474   8.097   6.030  0.1430 -0.3772  0.1132
 1040loPI   C1A15283   7.984   8.108   6.512 -0.0868  0.1050 -0.2531
 1040loPI   C2A15284   8.105   8.113   6.924  0.1081 -0.3440  0.0763
 1040loPI   C3A15285   8.221   8.238   7.332 -0.1471  0.1649  0.1390
 1040loPI   C4A15286   8.502   8.149   7.691  0.3874  0.1301  0.1622
 1040loPI   C5A15287   8.880   8.209   7.944 -0.0101 -0.3115 -0.0277
 1040loPI   C6A15288   9.137   8.360   8.023  0.2444 -0.3902 -0.0546
 1040loPI   C1B15289   8.480   8.017   6.464 -0.1434  0.1717 -0.0291
 1040loPI   C2B15290   8.591   8.043   6.804  0.2112  0.2632 -0.1275
 1040loPI   C3B15291   8.731   8.181   7.183 -0.1104 -0.0395  0.0486
 1040loPI   C4B15292   8.934   8.377   7.507  0.0951  0.2005  0.0026
 1041loPI    C115293  13.020   0.325   5.568  0.3977  0.0860 -0.1741
 1041loPI    C215294  13.172   0.229   5.926  0.2933 -0.2299 -0.2115
 1041loPI    C315295  13.401   0.412   5.654  0.4471 -0.2172 -0.0749
 1041loPI   PO415296  12.745   0.232   5.614 -0.0555 -0.3297 -0.0536
 1041loPI   GL115297  12.668  -0.088   5.824  0.3106 -0.3962 -0.1299
 1041loPI   GL215298  12.896  -0.230   6.048  0.0346  0.1120  0.3080
 1041loPI   C1A15299  12.659   0.185   6.226  0.0019 -0.2465 -0.1836
 1041loPI   C2A15300  12.897   0.288   6.635  0.1472  0.1633 -0.2173
 1041loPI   C3A15301  13.177   0.538   6.865  0.1499  0.2489 -0.1699
 1041loPI   C4A15302  13.154   0.654   7.241 -0.1066  0.2156  0.0445
 1041loPI   C5A15303  13.040   0.638   7.729 -0.3269 -0.3171  0.0250
 1041loPI   C6A15304  13.019   0.588   8.188 -0.1617  0.0040 -0.0374
 1041loPI   C1B15305  13.051  -0.151   6.460  0.0449  0.0327 -0.1544
 1041loPI   C2B15306  12.970  -0.195   6.977  0.4034  0.4429  0.2815
 1041loPI   C3B15307  13.125   0.152   7.292  0.0219 -0.0611 -0.0834
 1041loPI   C4B15308  13.438   0.261   7.550  0.1688  0.0187 -0.1026
 1042loPI    C115309  13.108   9.072   5.431  0.0866 -0.1682  0.2963
 1042loPI    C215310  13.501   9.117   5.368  0.0574 -0.2334  0.0596
 1042loPI    C315311  13.320   8.776   5.264 -0.0918 -0.1434  0.0212
 1042loPI   PO415312  13.090   9.239   5.581 -0.1773 -0.3789 -0.1607
 1042loPI   GL115313  13.219   9.095   5.919  0.1431 -0.0885  0.2611
 1042loPI   GL215314  13.583   8.923   5.861 -0.1432  0.0185  0.1388
 1042loPI   C1A15315  13.106   9.211   6.339 -0.3368 -0.2080  0.1266
 1042loPI   C2A15316  12.808   9.083   6.689  0.0506  0.2071 -0.0404
 1042loPI   C3A15317  12.800   8.995   7.135  0.0360 -0.2679  0.1089
 1042loPI   C4A15318  12.638   9.093   7.615  0.0833  0.1408  0.0887
 1042loPI   C5A15319  12.677   8.943   7.998  0.1455  0.4343 -0.0726
 1042loPI   C6A15320  12.674   8.786   8.445 -0.2674 -0.0614 -0.0367
 1042loPI   C1B15321  13.367   8.802   6.264  0.0668  0.5045  0.1482
 1042loPI   C2B15322  13.340   8.812   6.719 -0.4990 -0.0044  0.2618
 1042loPI   C3B15323  13.347   8.828   7.184  0.2045  0.3600  0.0319
 1042loPI   C4B15324  13.176   8.699   7.547  0.1724  0.2208  0.1990
 1043loPI    C115325   9.888  17.627   5.574  0.1830 -0.1290  0.0860
 1043loPI    C215326   9.804  17.645   5.183 -0.0553  0.0929  0.1448
 1043loPI    C315327  10.026  17.345   5.326  0.1778  0.1029 -0.1857
 1043loPI   PO415328   9.793  17.940   5.655 -0.3831 -0.3068 -0.1339
 1043loPI   GL115329   9.857  18.096   6.018 -0.3503  0.1651  0.0525
 1043loPI   GL215330  10.027  18.314   6.027 -0.0976  0.0135 -0.0863
 1043loPI   C1A15331   9.900  18.157   6.478 -0.2006  0.1110 -0.0257
 1043loPI   C2A15332  10.156  18.354   6.743  0.3470 -0.0942  0.5929
 1043loPI   C3A15333  10.085  18.328   7.093  0.1067 -0.0987  0.4700
 1043loPI   C4A15334  10.094  18.302   7.576  0.1522  0.2673  0.0028
 1043loPI   C5A15335  10.280  18.454   7.921 -0.0894  0.0891  0.3942
 1043loPI   C6A15336  10.637  18.558   8.109  0.0278  0.5637  0.2321
 1043loPI   C1B15337  10.344  18.692   6.035 -0.1660  0.0312 -0.1118
 1043loPI   C2B15338  10.346  19.052   6.285  0.1030 -0.0255  0.0391
 1043loPI   C3B15339  10.364  19.132   6.693  0.0568  0.1752  0.1144
 1043loPI   C4B15340  10.401  19.181   7.089  0.3571 -0.1947  0.2266
 1044loPI    C115341   9.340  10.388   5.397 -0.1150  0.1617  0.1442
 1044loPI    C215342   9.277  10.763   5.271 -0.2205  0.0832 -0.0428
 1044loPI    C315343   9.399  10.483   5.013  0.2010  0.0648  0.1659
 1044loPI   PO415344   9.496  10.420   5.576  0.1139 -0.1297  0.0879
 1044loPI   GL115345   9.623  10.552   6.057 -0.1651  0.3043  0.1067
 1044loPI   GL215346   9.882  10.614   6.175 -0.0468 -0.3883  0.0026
 1044loPI   C1A15347   9.535  10.440   6.564 -0.0683  0.0415  0.2564
 1044loPI   C2A15348   9.561  10.170   6.833 -0.2627  0.1728 -0.1917
 1044loPI   C3A15349   9.569  10.332   7.242  0.0630  0.1911 -0.1028
 1044loPI   C4A15350   9.540  10.394   7.573  0.1994 -0.2483 -0.0090
 1044loPI   C5A15351   9.468  10.502   7.973 -0.3043 -0.1266 -0.0067
 1044loPI   C6A15352   9.630  10.937   8.236  0.0559 -0.3228  0.1998
 1044loPI   C1B15353  10.090  10.541   6.521  0.0937 -0.1462  0.1917
 1044loPI   C2B15354  10.057  10.367   6.973 -0.0397 -0.4972  0.2281
 1044loPI   C3B15355  10.097  10.251   7.380  0.2787 -0.0305 -0.3370
 1044loPI   C4B15356  10.261  10.158   7.766  0.0244  0.1550  0.0236
 1045loPI    C115357   9.693   0.531   5.214  0.1809  0.0933 -0.2448
 1045loPI    C215358   9.303   0.447   5.186  0.1096  0.2394  0.2305
 1045loPI    C315359   9.519   0.505   4.855 -0.1912 -0.1899 -0.0508
 1045loPI   PO415360   9.702   0.675   5.362  0.1315 -0.0885 -0.0851
 1045loPI   GL115361   9.381   0.851   5.547 -0.1946 -0.1184  0.1091
 1045loPI   GL215362   9.579   1.011   5.754 -0.1757 -0.0976  0.2068
 1045loPI   C1A15363   9.182   0.818   6.009 -0.3504 -0.1439 -0.0691
 1045loPI   C2A15364   9.201   0.799   6.446  0.0743  0.3710  0.2432
 1045loPI   C3A15365   9.387   0.930   6.852  0.0343  0.0986 -0.2125
 1045loPI   C4A15366   9.430   0.982   7.300  0.1278  0.1521  0.0289
 1045loPI   C5A15367   9.153   0.868   7.719 -0.1047  0.0656 -0.1786
 1045loPI   C6A15368   9.402   0.622   7.961 -0.0978  0.0331 -0.2343
 1045loPI   C1B15369   9.918   1.124   6.077  0.0848 -0.0780 -0.0997
 1045loPI   C2B15370   9.916   1.229   6.573 -0.0504  0.0685 -0.0035
 1045loPI   C3B15371   9.794   1.164   7.038 -0.1749  0.1417  0.2269
 1045loPI   C4B15372   9.624   1.414   7.394  0.3961 -0.1450  0.0636
 1046loPI    C115373  15.196  17.022   5.832  0.0756  0.1427  0.1978
 1046loPI    C215374  14.900  16.834   5.639  0.0049  0.1637  0.2850
 1046loPI    C315375  15.033  17.187   5.506  0.0860  0.0890  0.1653
 1046loPI   PO415376  15.119  16.981   6.101  0.2038 -0.0434  0.2336
 1046loPI   GL115377  14.963  16.900   6.506  0.2317  0.1779  0.1163
 1046loPI   GL215378  15.257  17.010   6.644  0.0203  0.1321  0.1750
 1046loPI   C1A15379  14.931  16.682   6.905  0.0764  0.3776  0.3957
 1046loPI   C2A15380  14.785  16.743   7.283  0.0081  0.1106  0.0949
 1046loPI   C3A15381  14.642  16.639   7.675 -0.1723 -0.1416 -0.0240
 1046loPI   C4A15382  14.443  16.836   7.953  0.2163  0.0879 -0.0385
 1046loPI   C5A15383  14.207  16.888   8.327  0.0784  0.2897 -0.0002
 1046loPI   C6A15384  13.811  16.711   8.440  0.1107  0.1158 -0.2509
 1046loPI   C1B15385  15.260  16.991   7.135 -0.1683 -0.0583 -0.2195
 1046loPI   C2B15386  15.339  17.025   7.512 -0.1182 -0.1788  0.1131
 1046loPI   C3B15387  15.394  17.079   7.900 -0.1374  0.1885  0.3040
 1046loPI   C4B15388  15.604  16.828   8.247 -0.1121 -0.0823  0.1904
 1047loPI    C115389   0.386   9.746   5.712 -0.1070 -0.3398  0.1200
 1047loPI    C215390   0.473   9.610   5.346 -0.0712  0.0322 -0.0140
 1047loPI    C315391   0.098   9.716   5.436  0.0073  0.3951 -0.0995
 1047loPI   PO415392   0.637   9.901   5.737  0.0123 -0.0648  0.1438
 1047loPI   GL115393   0.854  10.091   6.057  0.4244 -0.0824 -0.0724
 1047loPI   GL215394   0.816  10.471   6.165 -0.2667 -0.0876  0.0840
 1047loPI   C1A15395   0.953   9.972   6.456  0.0986  0.1784  0.1542
 1047loPI   C2A15396   0.869   9.919   6.818  0.1511 -0.0389 -0.0421
 1047loPI   C3A15397   0.829   9.845   7.257 -0.1227 -0.2757  0.1302
 1047loPI   C4A15398   0.856   9.775   7.628  0.0313 -0.3450 -0.1605
 1047loPI   C5A15399   0.751   9.987   7.923 -0.1958 -0.0656 -0.3149
 1047loPI   C6A15400   0.685  10.125   8.411 -0.4427 -0.1689  0.0244
 1047loPI   C1B15401   0.774  10.382   6.622  0.0878  0.1901  0.1095
 1047loPI   C2B15402   0.745  10.319   7.098 -0.1202 -0.1523  0.2139
 1047loPI   C3B15403   0.609  10.269   7.471 -0.1063  0.0207  0.1568
 1047loPI   C4B15404   0.368  10.303   7.809 -0.2523 -0.1313  0.0098
 1048loPI    C115405   7.692   2.450   5.163 -0.2026  0.3696  0.0830
 1048loPI    C215406   7.728   2.294   4.797 -0.0083  0.1118  0.2088
 1048loPI    C315407   7.661   2.686   4.842 -0.3196  0.0994 -0.1073
 1048loPI   PO415408   7.470   2.311   5.278  0.2441 -0.1797 -0.1398
 1048loPI   GL115409   7.264   2.260   5.685  0.2320  0.1998 -0.1659
 1048loPI   GL215410   6.954   2.419   5.693 -0.1895  0.1738 -0.2632
 1048loPI   C1A15411   7.163   1.989   6.005  0.1401 -0.3867 -0.3395
 1048loPI   C2A15412   7.070   2.218   6.381 -0.1563  0.2568  0.3226
 1048loPI   C3A15413   7.159   2.172   6.719 -0.0052 -0.0023 -0.0645
 1048loPI   C4A15414   7.337   2.239   7.116 -0.0376 -0.0594  0.1933
 1048loPI   C5A15415   7.647   2.153   7.523 -0.0771 -0.3175  0.1511
 1048loPI   C6A15416   8.067   1.992   7.547  0.0606  0.3335 -0.2064
 1048loPI   C1B15417   6.890   2.650   6.090 -0.1022  0.0573  0.1697
 1048loPI   C2B15418   6.843   2.616   6.558  0.1278  0.2203  0.2465
 1048loPI   C3B15419   6.719   2.353   6.917  0.2064 -0.1858  0.1479
 1048loPI   C4B15420   6.489   2.186   7.254 -0.1684 -0.3820 -0.1167
 1049loPI    C115421   8.650   3.427   4.909 -0.3196 -0.0264 -0.0253
 1049loPI    C215422   8.529   3.522   4.540 -0.0091  0.0196 -0.1182
 1049loPI    C315423   8.848   3.286   4.591  0.1878  0.3286  0.1202
 1049loPI   PO415424   8.446   3.354   5.024  0.3439  0.1804 -0.1332
 1049loPI   GL115425   8.418   3.434   5.477 -0.1020 -0.1726 -0.1772
 1049loPI   GL215426   8.294   3.104   5.623  0.1960  0.0207  0.0796
 1049loPI   C1A15427   8.426   3.544   5.828 -0.2416  0.0958  0.1312
 1049loPI   C2A15428   8.321   3.522   6.340 -0.1874 -0.3091 -0.3634
 1049loPI   C3A15429   8.436   3.290   6.781 -0.1402  0.0674  0.2149
 1049loPI   C4A15430   8.333   3.393   7.301 -0.2452 -0.2543 -0.3433
 1049loPI   C5A15431   8.442   3.349   7.762  0.1405 -0.1222  0.0672
 1049loPI   C6A15432   8.774   3.532   8.064  0.2999 -0.1256 -0.1730
 1049loPI   C1B15433   8.473   3.018   5.954 -0.0398  0.0607  0.0654
 1049loPI   C2B15434   8.394   2.993   6.387 -0.3942  0.2090 -0.0739
 1049loPI   C3B15435   8.146   2.899   6.797  0.2960  0.0258  0.1821
 1049loPI   C4B15436   7.974   3.029   7.226 -0.3569  0.2353  0.4247
 1050loPI    C115437   0.021  14.799   5.862 -0.0445 -0.0777  0.1484
 1050loPI    C215438   0.072  14.405   5.909  0.0951 -0.0775  0.0094
 1050loPI    C315439   0.149  14.576   5.556  0.1022  0.0857  0.0886
 1050loPI   PO415440   0.068  14.902   6.081  0.0731 -0.1660  0.1702
 1050loPI   GL115441   0.306  14.983   6.406  0.4543 -0.0800 -0.1949
 1050loPI   GL215442   0.435  14.659   6.483 -0.3751  0.0394 -0.0569
 1050loPI   C1A15443   0.104  15.081   6.771 -0.0314  0.1710 -0.4046
 1050loPI   C2A15444   0.261  15.187   7.015  0.0521  0.0126  0.1171
 1050loPI   C3A15445   0.327  15.188   7.445 -0.0849 -0.1030  0.0090
 1050loPI   C4A15446   0.570  15.203   7.857  0.1269  0.0265  0.2013
 1050loPI   C5A15447   0.868  15.003   8.151  0.1576 -0.1841  0.0119
 1050loPI   C6A15448   0.965  14.667   8.317  0.0384 -0.0450  0.0841
 1050loPI   C1B15449   0.456  14.683   6.925  0.0447  0.0594  0.2936
 1050loPI   C2B15450   0.505  14.686   7.392  0.1915  0.1154  0.1847
 1050loPI   C3B15451   0.692  14.623   7.786 -0.2974 -0.1768  0.0649
 1050loPI   C4B15452   0.657  14.332   8.053 -0.2416 -0.2604 -0.0151
 1051loPI    C115453  11.827   1.303   5.680 -0.2524 -0.2115  0.0788
 1051loPI    C215454  11.714   1.307   5.296  0.0365 -0.2359 -0.0083
 1051loPI    C315455  11.448   1.220   5.582 -0.1255 -0.4538 -0.2217
 1051loPI   PO415456  11.927   1.645   5.793  0.3006  0.0696 -0.1958
 1051loPI   GL115457  11.964   1.617   6.277 -0.1200 -0.3171  0.2151
 1051loPI   GL215458  12.222   1.420   6.226 -0.4308  0.0220  0.1088
 1051loPI   C1A15459  11.519   1.695   6.494 -0.0728 -0.0804 -0.5231
 1051loPI   C2A15460  11.613   1.613   6.849  0.3387  0.0856 -0.2625
 1051loPI   C3A15461  11.609   1.439   7.171  0.1968  0.0201 -0.0545
 1051loPI   C4A15462  11.779   1.017   7.417  0.0621  0.2998  0.2512
 1051loPI   C5A15463  11.655   0.653   7.681 -0.2355 -0.0005  0.1054
 1051loPI   C6A15464  11.361   0.617   7.961 -0.1149  0.1705  0.3726
 1051loPI   C1B15465  12.132   1.508   6.700  0.0906 -0.1423 -0.0159
 1051loPI   C2B15466  12.185   1.535   7.131 -0.0065 -0.2841 -0.0612
 1051loPI   C3B15467  12.213   1.365   7.519  0.0335  0.0905 -0.1984
 1051loPI   C4B15468  12.348   1.277   7.951 -0.0313  0.4557  0.0266
 1052loPI    C115469   8.002  17.796   4.986 -0.1091 -0.2369  0.0423
 1052loPI    C215470   8.314  17.783   4.735 -0.2926  0.0738 -0.2090
 1052loPI    C315471   8.002  17.538   4.681 -0.2812  0.0609 -0.2153
 1052loPI   PO415472   8.087  17.855   5.215  0.2433  0.1774  0.3359
 1052loPI   GL115473   8.096  17.682   5.546 -0.0997  0.2305 -0.0488
 1052loPI   GL215474   7.753  17.647   5.567  0.2284 -0.2792 -0.0037
 1052loPI   C1A15475   8.304  17.800   5.829  0.1162 -0.1604  0.0704
 1052loPI   C2A15476   8.153  17.889   6.306 -0.1138 -0.3287  0.1504
 1052loPI   C3A15477   8.216  17.983   6.786 -0.0231 -0.3804  0.2526
 1052loPI   C4A15478   8.232  18.143   7.178 -0.0012  0.1163  0.0096
 1052loPI   C5A15479   8.297  18.128   7.615 -0.0111  0.0259  0.1253
 1052loPI   C6A15480   8.480  18.294   7.876 -0.1198 -0.2285  0.0067
 1052loPI   C1B15481   7.777  17.684   6.007  0.1074  0.2449  0.0898
 1052loPI   C2B15482   7.769  17.762   6.482  0.1933  0.0820  0.3959
 1052loPI   C3B15483   7.782  17.749   6.949  0.1614  0.1064 -0.2763
 1052loPI   C4B15484   7.984  17.710   7.377  0.1201  0.1568 -0.0223
 1053loPI    C115485  16.578  14.161   5.824 -0.1451 -0.0522  0.1135
 1053loPI    C215486  16.599  14.365   5.481 -0.2241 -0.1885  0.0268
 1053loPI    C315487  16.755  14.519   5.815 -0.0096 -0.1230 -0.1021
 1053loPI   PO415488  16.738  13.920   5.904 -0.2397  0.0699  0.0988
 1053loPI   GL115489  16.813  13.776   6.295 -0.0295  0.0160 -0.0686
 1053loPI   GL215490  17.032  13.907   6.492  0.0243  0.3971  0.0258
 1053loPI   C1A15491  16.749  13.563   6.744 -0.4821  0.0638 -0.3944
 1053loPI   C2A15492  16.648  13.543   7.188 -0.3583 -0.0538  0.3984
 1053loPI   C3A15493  16.682  13.564   7.603 -0.2285  0.1731  0.0529
 1053loPI   C4A15494  16.419  13.425   8.022  0.0564 -0.3200  0.1705
 1053loPI   C5A15495  16.126  13.614   8.319 -0.0891  0.3453  0.1086
 1053loPI   C6A15496  15.703  13.764   8.252 -0.1373  0.2783  0.2075
 1053loPI   C1B15497  17.068  13.852   7.018  0.1687 -0.0991  0.2266
 1053loPI   C2B15498  17.151  13.544   7.366  0.1051 -0.5012 -0.1017
 1053loPI   C3B15499  17.125  13.475   7.770 -0.1788 -0.0288  0.2618
 1053loPI   C4B15500  17.588  13.541   7.988 -0.1375  0.0802  0.0416
 1054loPI    C115501   8.552   0.688   5.196  0.0486 -0.2906 -0.0695
 1054loPI    C215502   8.826   0.429   5.064  0.4726  0.1116 -0.0020
 1054loPI    C315503   8.941   0.767   5.245 -0.0740  0.2536  0.0960
 1054loPI   PO415504   8.389   0.586   5.301  0.0022  0.2393  0.1248
 1054loPI   GL115505   8.127   0.207   5.488  0.0540 -0.0273 -0.1127
 1054loPI   GL215506   8.417   0.089   5.467 -0.1715  0.1422 -0.1507
 1054loPI   C1A15507   7.925   0.020   5.879  0.1679  0.2274  0.1978
 1054loPI   C2A15508   7.819   0.106   6.301  0.0208  0.0831  0.0528
 1054loPI   C3A15509   7.641   0.069   6.742  0.1607 -0.2159 -0.2483
 1054loPI   C4A15510   7.515  -0.016   7.244 -0.2192 -0.0745 -0.2196
 1054loPI   C5A15511   7.574  -0.266   7.629 -0.1201  0.1498  0.0598
 1054loPI   C6A15512   7.710  -0.571   7.815 -0.0738 -0.1887  0.1971
 1054loPI   C1B15513   8.396   0.224   5.899 -0.4250 -0.0541  0.1372
 1054loPI   C2B15514   8.317   0.302   6.325  0.0902 -0.1926  0.5562
 1054loPI   C3B15515   8.496   0.297   6.798 -0.0059  0.2103 -0.2408
 1054loPI   C4B15516   8.679   0.299   7.183  0.1527  0.1260 -0.0554
 1055loPI    C115517  13.906  17.747   5.961 -0.1018 -0.0006 -0.0007
 1055loPI    C215518  13.925  17.509   5.640  0.0618  0.0841 -0.0551
 1055loPI    C315519  13.648  17.444   5.921 -0.0915  0.0178 -0.2200
 1055loPI   PO415520  14.138  17.731   6.041 -0.2350  0.4613 -0.1333
 1055loPI   GL115521  14.277  17.850   6.341  0.0713 -0.1833  0.2683
 1055loPI   GL215522  13.919  18.023   6.422 -0.2602 -0.1338  0.0121
 1055loPI   C1A15523  14.345  17.950   6.701  0.0695  0.1464 -0.4572
 1055loPI   C2A15524  14.506  18.124   7.015 -0.0886  0.0563  0.0577
 1055loPI   C3A15525  14.418  18.158   7.457 -0.0892  0.1437  0.1760
 1055loPI   C4A15526  14.446  18.311   7.794 -0.0586  0.1978 -0.2422
 1055loPI   C5A15527  14.175  18.464   8.006  0.0194 -0.0346 -0.2994
 1055loPI   C6A15528  14.031  18.327   8.416 -0.1468  0.3744  0.0054
 1055loPI   C1B15529  14.027  18.382   6.644  0.1497 -0.0104  0.0383
 1055loPI   C2B15530  14.246  18.581   7.102  0.1653  0.0705  0.1678
 1055loPI   C3B15531  14.305  18.723   7.505  0.1777  0.0427 -0.2133
 1055loPI   C4B15532  14.338  19.008   7.778 -0.0131 -0.0099  0.0835
 1056loPI    C115533  11.817   8.364   5.682  0.1658  0.2468  0.1541
 1056loPI    C215534  12.064   8.531   5.416 -0.0233  0.1059 -0.1145
 1056loPI    C315535  12.003   8.136   5.411  0.0061  0.0957  0.1695
 1056loPI   PO415536  11.576   8.428   5.732 -0.0028 -0.0230  0.1540
 1056loPI   GL115537  11.666   8.619   6.097  0.0435  0.0196  0.3501
 1056loPI   GL215538  11.993   8.616   6.100 -0.2656  0.1918  0.1072
 1056loPI   C1A15539  11.507   8.836   6.483  0.0138  0.3199  0.0877
 1056loPI   C2A15540  11.517   9.179   6.863  0.2734 -0.0410  0.1933
 1056loPI   C3A15541  11.500   9.124   7.302 -0.0122 -0.0671 -0.0103
 1056loPI   C4A15542  11.587   8.925   7.692  0.0697 -0.2879 -0.1186
 1056loPI   C5A15543  11.656   9.108   8.058  0.1087 -0.0315 -0.2618
 1056loPI   C6A15544  11.803   9.336   8.449 -0.0858  0.0717  0.0700
 1056loPI   C1B15545  11.923   8.600   6.540 -0.2106  0.2595  0.1538
 1056loPI   C2B15546  11.794   8.764   6.978  0.0714  0.1145 -0.1141
 1056loPI   C3B15547  11.807   8.645   7.391 -0.2665  0.1987  0.2115
 1056loPI   C4B15548  11.998   8.458   7.684 -0.0291  0.2475 -0.0515
 1057loPI    C115549   6.203   4.801   5.076  0.2344  0.1895 -0.0961
 1057loPI    C215550   6.368   4.439   5.033  0.1987  0.1369  0.1894
 1057loPI    C315551   6.140   4.591   4.742  0.3754  0.0158 -0.0150
 1057loPI   PO415552   6.102   4.767   5.383 -0.0496 -0.1580 -0.0850
 1057loPI   GL115553   5.958   4.953   5.771  0.1260 -0.1656  0.1870
 1057loPI   GL215554   5.763   4.707   5.927  0.1469 -0.2680  0.0779
 1057loPI   C1A15555   6.113   4.950   6.207 -0.0035 -0.0211 -0.2199
 1057loPI   C2A15556   6.096   4.766   6.619 -0.2348  0.0551 -0.1847
 1057loPI   C3A15557   6.188   4.884   7.056  0.0447 -0.0584  0.0257
 1057loPI   C4A15558   6.293   5.173   7.403 -0.0800 -0.1627  0.1568
 1057loPI   C5A15559   6.332   5.566   7.624  0.1014 -0.1503  0.2838
 1057loPI   C6A15560   6.149   6.090   7.627  0.4881  0.0819 -0.1303
 1057loPI   C1B15561   5.772   4.594   6.282 -0.1292  0.1721 -0.1977
 1057loPI   C2B15562   5.536   4.353   6.466 -0.1304 -0.4975  0.1116
 1057loPI   C3B15563   5.384   4.438   6.896 -0.1202  0.0616 -0.1994
 1057loPI   C4B15564   5.498   4.200   7.323  0.1027 -0.1580 -0.2641
 1058loPI    C115565  14.992   1.081   5.276 -0.0632 -0.0013  0.1156
 1058loPI    C215566  15.199   0.753   5.180 -0.1760  0.0044 -0.1560
 1058loPI    C315567  15.317   1.110   5.045  0.0202  0.0959  0.2443
 1058loPI   PO415568  15.010   1.207   5.573 -0.2395 -0.2305 -0.1782
 1058loPI   GL115569  15.217   1.129   5.989  0.1680 -0.1973  0.0338
 1058loPI   GL215570  15.440   1.359   5.909  0.1566  0.1021 -0.4069
 1058loPI   C1A15571  15.280   0.952   6.385  0.1608 -0.0184  0.2064
 1058loPI   C2A15572  15.583   0.953   6.795 -0.1120  0.0674 -0.1002
 1058loPI   C3A15573  15.606   0.892   7.154 -0.1738 -0.0019 -0.2319
 1058loPI   C4A15574  15.562   0.743   7.472  0.0691  0.1937 -0.0115
 1058loPI   C5A15575  15.458   0.725   7.854  0.1034 -0.2439  0.0204
 1058loPI   C6A15576  15.065   0.833   8.092 -0.1624 -0.2056  0.0714
 1058loPI   C1B15577  15.423   1.413   6.340 -0.0430 -0.2522  0.0444
 1058loPI   C2B15578  15.367   1.373   6.826  0.0614 -0.0712  0.0501
 1058loPI   C3B15579  15.516   1.349   7.262  0.3915 -0.0360 -0.1235
 1058loPI   C4B15580  15.589   1.595   7.591  0.1940  0.0263  0.1548
 1059loPI    C115581   9.053  18.011   5.226  0.1355  0.0877 -0.1641
 1059loPI    C215582   9.251  18.191   4.928  0.1655  0.0243 -0.1824
 1059loPI    C315583   9.327  17.808   5.017  0.1635  0.0459 -0.0870
 1059loPI   PO415584   9.056  18.200   5.400  0.2413  0.5010  0.3874
 1059loPI   GL115585   9.093  18.504   5.680 -0.0460 -0.1952 -0.2055
 1059loPI   GL215586   8.774  18.546   5.592 -0.3043 -0.2233  0.4631
 1059loPI   C1A15587   9.213  18.461   6.124  0.0880 -0.2309  0.1875
 1059loPI   C2A15588   9.380  18.449   6.488 -0.1274 -0.1972 -0.4470
 1059loPI   C3A15589   9.557  18.522   6.789  0.3847 -0.1163  0.2362
 1059loPI   C4A15590   9.591  18.566   7.217  0.2651  0.2352  0.0672
 1059loPI   C5A15591   9.288  18.508   7.600 -0.1754 -0.0903  0.1243
 1059loPI   C6A15592   8.880  18.443   7.634  0.0114  0.0851  0.1438
 1059loPI   C1B15593   8.758  18.704   6.056 -0.0819 -0.0755 -0.2798
 1059loPI   C2B15594   8.774  18.729   6.478 -0.0475 -0.0439  0.1283
 1059loPI   C3B15595   9.019  18.675   6.858  0.2370  0.3076  0.3393
 1059loPI   C4B15596   9.108  18.764   7.241  0.1079  0.2812 -0.1184
 1060loPI    C115597  14.853  15.021   5.819  0.0294  0.0018  0.1507
 1060loPI    C215598  14.562  15.182   5.596  0.0511  0.0887  0.1848
 1060loPI    C315599  14.556  14.791   5.682 -0.1069  0.1082  0.2653
 1060loPI   PO415600  14.862  15.094   6.005  0.1880 -0.0402 -0.0015
 1060loPI   GL115601  14.743  15.168   6.484 -0.0303  0.1278  0.0763
 1060loPI   GL215602  14.445  15.130   6.654  0.0019  0.1657 -0.1412
 1060loPI   C1A15603  15.059  15.068   6.779  0.1140 -0.5040 -0.0478
 1060loPI   C2A15604  15.190  15.055   7.175 -0.1449  0.0284  0.2147
 1060loPI   C3A15605  15.211  14.783   7.537 -0.0646  0.1364 -0.0223
 1060loPI   C4A15606  15.091  14.784   7.958 -0.3349 -0.0876 -0.2831
 1060loPI   C5A15607  14.809  14.566   8.363  0.2788  0.1615 -0.1202
 1060loPI   C6A15608  14.736  14.101   8.528  0.0886  0.0251  0.1189
 1060loPI   C1B15609  14.628  14.947   7.006  0.0486  0.0446 -0.1175
 1060loPI   C2B15610  14.782  14.805   7.345 -0.1377 -0.1120 -0.0237
 1060loPI   C3B15611  14.745  14.515   7.766 -0.3415 -0.1592  0.0753
 1060loPI   C4B15612  14.391  14.347   8.049  0.0612 -0.2524 -0.3968
 1061loPI    C115613   1.808  14.195   5.727  0.0287  0.0490 -0.1477
 1061loPI    C215614   1.663  13.831   5.647  0.0174  0.0342 -0.0619
 1061loPI    C315615   1.842  14.043   5.359  0.1096 -0.0783 -0.0884
 1061loPI   PO415616   1.965  14.128   5.916 -0.0596  0.0582  0.0781
 1061loPI   GL115617   2.184  14.283   6.224  0.0603 -0.0217  0.0849
 1061loPI   GL215618   2.501  14.165   6.365  0.0567  0.1345  0.0453
 1061loPI   C1A15619   2.159  14.412   6.702  0.1250 -0.0860 -0.0424
 1061loPI   C2A15620   2.162  14.374   7.086 -0.0220 -0.0751  0.3041
 1061loPI   C3A15621   2.157  14.448   7.580  0.1553  0.1620 -0.1323
 1061loPI   C4A15622   2.149  14.462   8.004  0.0181  0.0801 -0.1695
 1061loPI   C5A15623   2.364  14.379   8.304  0.2514  0.3200 -0.2098
 1061loPI   C6A15624   2.782  14.404   8.393 -0.1514  0.0154 -0.1689
 1061loPI   C1B15625   2.714  14.280   6.793  0.2372 -0.0970 -0.0415
 1061loPI   C2B15626   2.762  14.194   7.156  0.3963 -0.3165 -0.1147
 1061loPI   C3B15627   2.959  14.176   7.576  0.0708  0.3982  0.1853
 1061loPI   C4B15628   3.353  13.991   7.764 -0.0087  0.1448  0.3151
 1062loPI    C115629   8.849   5.681   5.239  0.4968  0.2295  0.0135
 1062loPI    C215630   8.752   5.615   4.857 -0.1881 -0.0735  0.2234
 1062loPI    C315631   8.989   5.357   5.051 -0.2087 -0.1632  0.1301
 1062loPI   PO415632   8.659   5.667   5.414  0.1692 -0.0167  0.1584
 1062loPI   GL115633   8.534   5.428   5.821 -0.1004  0.2496  0.1538
 1062loPI   GL215634   8.491   5.741   5.868  0.3632  0.0025  0.2678
 1062loPI   C1A15635   8.324   5.223   6.153 -0.1283 -0.1235  0.1631
 1062loPI   C2A15636   8.327   5.374   6.513  0.3721  0.2252 -0.1393
 1062loPI   C3A15637   8.484   5.279   6.987 -0.0979 -0.0147 -0.1450
 1062loPI   C4A15638   8.650   5.073   7.289  0.1639 -0.0602 -0.3180
 1062loPI   C5A15639   8.664   5.214   7.736  0.3707  0.1466  0.0045
 1062loPI   C6A15640   8.443   5.514   8.095 -0.0959  0.0708  0.2108
 1062loPI   C1B15641   8.163   5.755   6.228  0.3488 -0.1069 -0.2458
 1062loPI   C2B15642   8.160   5.939   6.545 -0.2137  0.0702 -0.0469
 1062loPI   C3B15643   8.226   6.070   6.960 -0.0553  0.0871  0.4449
 1062loPI   C4B15644   7.987   6.097   7.403 -0.2029 -0.1314  0.1959
 1063loPI    C115645   4.366   9.573   5.839 -0.1938 -0.0070 -0.1322
 1063loPI    C215646   4.669   9.314   5.812 -0.3234 -0.1548 -0.1857
 1063loPI    C315647   4.663   9.639   5.580 -0.0072  0.0577  0.0952
 1063loPI   PO415648   4.364   9.631   6.045 -0.1341  0.1508  0.0876
 1063loPI   GL115649   4.166   9.512   6.356 -0.4112 -0.0975  0.1416
 1063loPI   GL215650   3.918   9.569   6.425 -0.0446  0.1985 -0.0074
 1063loPI   C1A15651   4.431   9.319   6.682  0.2922  0.1752  0.0790
 1063loPI   C2A15652   4.546   9.364   7.170  0.2309  0.0156  0.2318
 1063loPI   C3A15653   4.969   9.660   7.269 -0.2405 -0.0088  0.0944
 1063loPI   C4A15654   5.083   9.999   7.594  0.2461  0.2120  0.1931
 1063loPI   C5A15655   5.030  10.500   7.734  0.1209 -0.1367 -0.1220
 1063loPI   C6A15656   5.121  10.758   8.050 -0.0420  0.0112  0.5212
 1063loPI   C1B15657   3.797   9.191   6.676 -0.0098 -0.1839  0.0953
 1063loPI   C2B15658   4.124   9.134   6.964  0.3794 -0.1007  0.3648
 1063loPI   C3B15659   4.250   9.019   7.393  0.1249 -0.2453 -0.1314
 1063loPI   C4B15660   4.028   9.099   7.778 -0.0225 -0.0139 -0.0984
 1064loPI    C115661  10.707   9.739   5.408  0.1630  0.0321 -0.0819
 1064loPI    C215662  10.436   9.516   5.217  0.1048  0.0057  0.0304
 1064loPI    C315663  10.663   9.775   5.012  0.0327 -0.0111 -0.0715
 1064loPI   PO415664  10.822   9.562   5.658 -0.1160  0.1815  0.0849
 1064loPI   GL115665  10.695   9.503   6.054 -0.0050  0.3713 -0.2226
 1064loPI   GL215666  10.759   9.756   6.142 -0.1570  0.2605  0.2948
 1064loPI   C1A15667  10.526   9.144   6.300 -0.0714 -0.2616  0.0835
 1064loPI   C2A15668  10.356   9.109   6.695  0.0176  0.0540 -0.0874
 1064loPI   C3A15669  10.265   9.129   7.248 -0.1138  0.1373  0.1045
 1064loPI   C4A15670  10.445   9.145   7.726  0.0974 -0.2129 -0.0940
 1064loPI   C5A15671  10.508   9.395   8.087 -0.1172 -0.2006  0.1019
 1064loPI   C6A15672  10.257   9.478   8.479 -0.2889 -0.0690 -0.0184
 1064loPI   C1B15673  11.074   9.619   6.519 -0.1430  0.0009 -0.3671
 1064loPI   C2B15674  11.206   9.605   6.967 -0.1705 -0.1823  0.3080
 1064loPI   C3B15675  11.182   9.506   7.329 -0.0550 -0.2386 -0.0759
 1064loPI   C4B15676  11.454   9.475   7.696  0.1257  0.2141  0.3061
 1065loPI    C115677  10.842  12.667   5.222  0.2763 -0.0105 -0.2576
 1065loPI    C215678  10.674  12.718   4.862 -0.1148  0.0304 -0.0752
 1065loPI    C315679  11.020  12.519   4.896 -0.1528 -0.1081 -0.4543
 1065loPI   PO415680  10.616  12.583   5.381 -0.0253 -0.1416 -0.0936
 1065loPI   GL115681  10.444  12.432   5.916 -0.3085 -0.0274  0.3056
 1065loPI   GL215682  10.324  12.658   5.899  0.0599  0.2022  0.0558
 1065loPI   C1A15683  10.607  12.315   6.383 -0.1278 -0.1575  0.5398
 1065loPI   C2A15684  10.761  12.176   6.781 -0.1142 -0.3211 -0.0508
 1065loPI   C3A15685  10.911  12.178   7.248 -0.0016 -0.2218  0.0264
 1065loPI   C4A15686  11.015  12.167   7.622 -0.0704 -0.1808  0.0928
 1065loPI   C5A15687  11.219  12.414   7.974 -0.1064 -0.2019  0.0986
 1065loPI   C6A15688  11.398  12.787   8.216  0.2200 -0.0826  0.1017
 1065loPI   C1B15689  10.252  12.690   6.304  0.2345  0.0497  0.2669
 1065loPI   C2B15690  10.188  12.735   6.753 -0.1405 -0.1148  0.1065
 1065loPI   C3B15691  10.229  12.487   7.147 -0.5191 -0.0623  0.1687
 1065loPI   C4B15692  10.049  12.301   7.456  0.1765  0.1375  0.0282
 1066loPI    C115693   8.771   9.451   5.639 -0.0554 -0.2612 -0.4466
 1066loPI    C215694   8.524   9.765   5.614  0.0346 -0.1299  0.1569
 1066loPI    C315695   8.784   9.691   5.320 -0.0910  0.2711 -0.0618
 1066loPI   PO415696   8.918   9.414   5.848  0.1670 -0.1424 -0.1891
 1066loPI   GL115697   8.892   9.323   6.219 -0.0795  0.4267  0.0059
 1066loPI   GL215698   8.764   9.060   6.153  0.0232  0.0831 -0.0209
 1066loPI   C1A15699   9.034   9.337   6.683  0.0567  0.0955  0.1838
 1066loPI   C2A15700   9.190   9.372   7.101  0.0748 -0.0591  0.1945
 1066loPI   C3A15701   9.360   9.388   7.519 -0.3037  0.2441 -0.0547
 1066loPI   C4A15702   9.548   9.589   7.863 -0.1706 -0.1765  0.1776
 1066loPI   C5A15703   9.649   9.577   8.293  0.2452  0.1109  0.0992
 1066loPI   C6A15704   9.557   9.370   8.682  0.0695  0.0802  0.1079
 1066loPI   C1B15705   8.705   8.934   6.665 -0.1664  0.1525  0.0579
 1066loPI   C2B15706   8.833   8.946   7.094  0.3115  0.2514  0.2126
 1066loPI   C3B15707   8.998   9.039   7.486 -0.0830  0.0559  0.1083
 1066loPI   C4B15708   9.050   8.845   7.883 -0.0173 -0.0251 -0.0720
 1067loPI    C115709  17.155  15.779   5.694 -0.0748 -0.1047 -0.0942
 1067loPI    C215710  17.427  15.486   5.701  0.0562  0.0189  0.0811
 1067loPI    C315711  17.422  15.747   5.398 -0.0603 -0.1624 -0.0750
 1067loPI   PO415712  17.209  15.886   5.958 -0.1773 -0.2034  0.1386
 1067loPI   GL115713  17.084  15.757   6.331 -0.2530 -0.0458 -0.1572
 1067loPI   GL215714  17.054  16.072   6.549 -0.1147 -0.0680 -0.1167
 1067loPI   C1A15715  17.185  15.643   6.634 -0.1334  0.0637  0.0838
 1067loPI   C2A15716  17.172  15.660   7.071 -0.1499 -0.1368  0.1312
 1067loPI   C3A15717  17.205  15.887   7.431 -0.2164  0.1470 -0.1282
 1067loPI   C4A15718  17.084  15.973   7.842 -0.0118 -0.2170  0.4257
 1067loPI   C5A15719  16.936  15.807   8.236  0.0045 -0.1677 -0.1479
 1067loPI   C6A15720  16.808  15.591   8.675  0.0561 -0.1517 -0.0418
 1067loPI   C1B15721  17.091  16.342   6.891 -0.2373  0.4155  0.1957
 1067loPI   C2B15722  17.167  16.399   7.237 -0.0648  0.1426  0.0934
 1067loPI   C3B15723  17.409  16.299   7.608 -0.3176  0.0702  0.1173
 1067loPI   C4B15724  17.458  16.180   8.053  0.0144 -0.1668  0.0013
 1068loPI    C115725   7.983   9.268   5.649  0.1405  0.1218 -0.0116
 1068loPI    C215726   7.771   9.424   5.348  0.1430  0.0537 -0.0490
 1068loPI    C315727   7.720   9.041   5.451  0.0008  0.1284  0.1649
 1068loPI   PO415728   8.045   9.478   5.783 -0.0985  0.3116  0.1295
 1068loPI   GL115729   7.996   9.483   6.246 -0.0162  0.1269  0.0170
 1068loPI   GL215730   8.440   9.481   6.115 -0.0062 -0.0037  0.1009
 1068loPI   C1A15731   8.045   9.364   6.655  0.3705 -0.2630 -0.1543
 1068loPI   C2A15732   7.783   9.174   6.958 -0.0548 -0.0966  0.4139
 1068loPI   C3A15733   7.797   9.164   7.376  0.2528 -0.2883 -0.0040
 1068loPI   C4A15734   8.078   9.207   7.717 -0.0118 -0.3407  0.2203
 1068loPI   C5A15735   8.236   9.237   8.148  0.0373 -0.0761  0.2758
 1068loPI   C6A15736   8.301   9.543   8.484 -0.0510  0.0536  0.1530
 1068loPI   C1B15737   8.549   9.448   6.563 -0.2276  0.0894  0.3896
 1068loPI   C2B15738   8.638   9.390   7.048  0.3567  0.0229  0.0105
 1068loPI   C3B15739   8.532   9.314   7.352  0.2173 -0.2512  0.1268
 1068loPI   C4B15740   8.609   9.309   7.745 -0.1503 -0.0460  0.0019
 1069loPI    C115741  16.429   8.621   5.495 -0.0549  0.0404 -0.1808
 1069loPI    C215742  16.826   8.598   5.534 -0.0339  0.3561 -0.1803
 1069loPI    C315743  16.655   8.522   5.180 -0.0193 -0.2402 -0.0699
 1069loPI   PO415744  16.462   8.947   5.702 -0.1401 -0.0251  0.0308
 1069loPI   GL115745  16.510   9.179   6.040 -0.3305 -0.1199 -0.0036
 1069loPI   GL215746  16.684   9.318   6.336 -0.1529  0.0883  0.0106
 1069loPI   C1A15747  16.181   8.970   6.369 -0.2887 -0.0720 -0.1466
 1069loPI   C2A15748  16.157   8.863   6.865  0.0030  0.1262 -0.0815
 1069loPI   C3A15749  16.373   8.767   7.291  0.1675 -0.1375 -0.0482
 1069loPI   C4A15750  16.489   8.894   7.697  0.1328  0.1530  0.3507
 1069loPI   C5A15751  16.233   9.091   8.061 -0.0514  0.3581 -0.0988
 1069loPI   C6A15752  16.293   9.169   8.480 -0.2415  0.2720 -0.0886
 1069loPI   C1B15753  16.509   9.213   6.682  0.1482 -0.0592  0.2204
 1069loPI   C2B15754  16.679   9.192   7.067  0.2208  0.1764  0.1567
 1069loPI   C3B15755  16.842   9.100   7.381 -0.0440  0.2657  0.1753
 1069loPI   C4B15756  16.952   8.987   7.777 -0.0668 -0.1785 -0.0986
 1070loPI    C115757  10.295  14.072   5.950  0.1055 -0.2123 -0.0806
 1070loPI    C215758  10.512  14.289   5.693 -0.2768 -0.0492 -0.2748
 1070loPI    C315759  10.373  13.930   5.584 -0.0545 -0.1832 -0.1268
 1070loPI   PO415760  10.197  14.218   6.109  0.1049 -0.0208 -0.2632
 1070loPI   GL115761  10.085  14.092   6.504  0.1667  0.0589 -0.0641
 1070loPI   GL215762  10.409  14.151   6.548  0.1095  0.1046 -0.2039
 1070loPI   C1A15763   9.920  13.898   6.982 -0.0667  0.2567 -0.0422
 1070loPI   C2A15764   9.949  13.730   7.266  0.0982 -0.4761 -0.0904
 1070loPI   C3A15765  10.028  13.629   7.703 -0.2115 -0.1576  0.0627
 1070loPI   C4A15766   9.853  13.534   8.097 -0.1837  0.1609 -0.0708
 1070loPI   C5A15767   9.434  13.645   8.272  0.2158 -0.2330 -0.3512
 1070loPI   C6A15768   9.155  13.675   8.642 -0.2577  0.3440 -0.0141
 1070loPI   C1B15769  10.431  14.042   7.005 -0.1449 -0.1730 -0.2274
 1070loPI   C2B15770  10.359  13.930   7.429  0.2510  0.0903 -0.0359
 1070loPI   C3B15771  10.282  14.062   7.774 -0.2353 -0.0202  0.0336
 1070loPI   C4B15772  10.578  14.211   8.055 -0.1296 -0.1393 -0.0945
 1071loPI    C115773  15.790  11.057   5.218 -0.1699 -0.0766 -0.0917
 1071loPI    C215774  16.175  11.101   5.119 -0.1651  0.0856 -0.0042
 1071loPI    C315775  15.972  10.781   4.993  0.0339 -0.0680  0.0602
 1071loPI   PO415776  15.799  11.144   5.528 -0.2144 -0.1735  0.0990
 1071loPI   GL115777  15.972  11.059   5.930 -0.1882 -0.0006 -0.1751
 1071loPI   GL215778  15.726  10.973   5.979 -0.0602  0.0804  0.1403
 1071loPI   C1A15779  16.128  11.097   6.303 -0.3203  0.1693 -0.1426
 1071loPI   C2A15780  16.235  10.925   6.669 -0.0078  0.1186  0.1922
 1071loPI   C3A15781  16.133  10.727   7.103 -0.0423 -0.1914 -0.0355
 1071loPI   C4A15782  16.076  10.537   7.364 -0.0192 -0.0102  0.0836
 1071loPI   C5A15783  15.911  10.243   7.786  0.2864 -0.2482 -0.1609
 1071loPI   C6A15784  15.922   9.911   8.127 -0.2576 -0.0403 -0.1924
 1071loPI   C1B15785  15.662  10.814   6.380  0.2398  0.0488 -0.2418
 1071loPI   C2B15786  15.674  10.702   6.837 -0.2156  0.0917  0.2733
 1071loPI   C3B15787  15.586  10.626   7.254  0.1344  0.0273  0.0731
 1071loPI   C4B15788  15.604  10.606   7.673  0.4623 -0.1146 -0.1800
 1072loPI    C115789   9.028   6.824   5.304 -0.0042  0.1308  0.1614
 1072loPI    C215790   8.797   7.130   5.189  0.0000  0.1373  0.1701
 1072loPI    C315791   8.964   6.891   4.915 -0.1684  0.0201  0.1680
 1072loPI   PO415792   8.871   6.704   5.493  0.1856  0.0839  0.2616
 1072loPI   GL115793   9.002   6.831   5.817 -0.2336 -0.0320  0.1218
 1072loPI   GL215794   8.957   7.158   5.718 -0.1412  0.0570 -0.3387
 1072loPI   C1A15795   8.846   6.775   6.207 -0.1084  0.2167  0.0409
 1072loPI   C2A15796   8.913   6.878   6.545  0.0751 -0.2351  0.1506
 1072loPI   C3A15797   8.810   6.877   7.052  0.0081 -0.2773  0.1459
 1072loPI   C4A15798   8.736   6.812   7.496  0.2131 -0.1039  0.2561
 1072loPI   C5A15799   8.502   6.702   7.776  0.1330 -0.0114 -0.0697
 1072loPI   C6A15800   8.029   6.483   7.661  0.0038  0.1853 -0.1499
 1072loPI   C1B15801   8.906   7.251   6.084  0.2504 -0.0277 -0.3362
 1072loPI   C2B15802   8.733   7.314   6.496  0.2203  0.0762  0.1759
 1072loPI   C3B15803   8.625   7.332   6.871  0.1767 -0.1458  0.2977
 1072loPI   C4B15804   8.437   7.217   7.259 -0.1091 -0.0416 -0.1667
 1073loPI    C115805   0.491  16.348   5.960 -0.0647 -0.1534 -0.0552
 1073loPI    C215806   0.427  16.530   5.609 -0.0970  0.0976  0.0790
 1073loPI    C315807   0.619  16.179   5.620 -0.0283  0.1247 -0.1827
 1073loPI   PO415808   0.699  16.550   6.079  0.2151 -0.2395  0.1837
 1073loPI   GL115809   0.726  16.566   6.464 -0.0906 -0.0531  0.1409
 1073loPI   GL215810   0.979  16.732   6.455 -0.0787  0.0120  0.0005
 1073loPI   C1A15811   0.724  16.718   6.890  0.2870  0.0608  0.1125
 1073loPI   C2A15812   0.562  16.781   7.213 -0.2751 -0.1722 -0.1274
 1073loPI   C3A15813   0.532  16.895   7.656 -0.1118  0.2222  0.0702
 1073loPI   C4A15814   0.420  17.252   7.967 -0.1157 -0.0190  0.2791
 1073loPI   C5A15815   0.261  17.251   8.353 -0.2622 -0.1553 -0.1164
 1073loPI   C6A15816   0.106  17.568   8.522  0.2041  0.3900 -0.2538
 1073loPI   C1B15817   1.101  16.444   6.853  0.0020  0.0362  0.0221
 1073loPI   C2B15818   1.057  16.433   7.302 -0.2354 -0.1792  0.0646
 1073loPI   C3B15819   1.245  16.416   7.608 -0.0349  0.2000  0.0723
 1073loPI   C4B15820   1.476  16.501   7.941  0.0812 -0.2618 -0.1145
 1074loPI    C115821   8.628   8.827   5.443  0.1926 -0.1737 -0.2184
 1074loPI    C215822   8.791   9.152   5.277  0.0166  0.1025  0.1355
 1074loPI    C315823   8.525   8.935   5.072 -0.0591  0.3300 -0.0110
 1074loPI   PO415824   8.860   8.824   5.662  0.0004 -0.2114 -0.1350
 1074loPI   GL115825   8.822   8.582   6.011  0.1796  0.2153 -0.1339
 1074loPI   GL215826   9.073   8.652   6.161 -0.0529  0.2934 -0.1523
 1074loPI   C1A15827   8.676   8.455   6.473 -0.1265 -0.1779  0.0653
 1074loPI   C2A15828   8.404   8.497   6.863  0.0984 -0.2002  0.2550
 1074loPI   C3A15829   7.962   8.659   7.043 -0.3154 -0.0168 -0.0372
 1074loPI   C4A15830   7.953   8.730   7.493  0.0124 -0.0057  0.0112
 1074loPI   C5A15831   8.157   8.748   7.875  0.2085 -0.1464 -0.0597
 1074loPI   C6A15832   8.085   8.747   8.187 -0.0539  0.0330 -0.4145
 1074loPI   C1B15833   9.261   8.804   6.651 -0.2007  0.1298  0.0761
 1074loPI   C2B15834   9.288   8.744   7.141 -0.1603  0.0916 -0.2378
 1074loPI   C3B15835   9.410   8.634   7.552 -0.0625 -0.0339  0.0167
 1074loPI   C4B15836   9.705   8.780   7.900  0.1192 -0.1307  0.0306
 1075loPI    C115837   7.833  13.880   5.977  0.0147 -0.2091 -0.0273
 1075loPI    C215838   7.519  13.919   5.733  0.0081 -0.0597  0.0046
 1075loPI    C315839   7.889  13.989   5.596 -0.0133  0.2390  0.0915
 1075loPI   PO415840   7.840  13.617   6.029  0.0875 -0.2795 -0.0859
 1075loPI   GL115841   7.936  13.236   6.258  0.0672 -0.3737  0.3943
 1075loPI   GL215842   8.026  12.929   6.098  0.3756 -0.1253  0.0153
 1075loPI   C1A15843   7.900  13.262   6.765 -0.1055 -0.0435  0.1080
 1075loPI   C2A15844   7.944  13.513   7.088 -0.2533  0.1274  0.1389
 1075loPI   C3A15845   7.772  13.674   7.355  0.0893  0.0566 -0.0703
 1075loPI   C4A15846   7.727  13.961   7.604  0.0878 -0.1262  0.0007
 1075loPI   C5A15847   8.007  14.014   7.966  0.6152  0.2991  0.2559
 1075loPI   C6A15848   8.171  14.344   7.983 -0.1995 -0.2036 -0.2072
 1075loPI   C1B15849   8.192  12.938   6.546  0.0572 -0.0404 -0.0722
 1075loPI   C2B15850   8.326  13.027   6.833  0.0683  0.0152 -0.0383
 1075loPI   C3B15851   8.298  13.101   7.255  0.0018 -0.2699 -0.1414
 1075loPI   C4B15852   8.326  12.884   7.656 -0.0617 -0.2801 -0.1789
 1076loPI    C115853   5.119  13.251   5.787 -0.0373  0.1716  0.2143
 1076loPI    C215854   4.984  13.589   5.620 -0.1803 -0.0440 -0.1171
 1076loPI    C315855   4.904  13.236   5.449  0.0897 -0.2375  0.1467
 1076loPI   PO415856   5.027  13.359   6.031  0.0163  0.0249 -0.0367
 1076loPI   GL115857   4.968  13.286   6.407 -0.0160  0.2126 -0.0226
 1076loPI   GL215858   5.125  12.898   6.339 -0.0618 -0.3031 -0.0151
 1076loPI   C1A15859   5.012  13.428   6.828  0.0890 -0.3038  0.1683
 1076loPI   C2A15860   5.124  13.597   7.212  0.2394 -0.0467 -0.1354
 1076loPI   C3A15861   5.099  13.289   7.602 -0.0908 -0.0997  0.0600
 1076loPI   C4A15862   4.750  13.412   7.926  0.2135 -0.0709  0.0714
 1076loPI   C5A15863   4.468  13.786   8.100 -0.4751 -0.0844 -0.2632
 1076loPI   C6A15864   4.271  14.075   7.840 -0.0643  0.1292  0.2082
 1076loPI   C1B15865   5.474  12.802   6.571 -0.0995  0.0391  0.1542
 1076loPI   C2B15866   5.649  12.773   6.911 -0.4039 -0.0589  0.1875
 1076loPI   C3B15867   5.797  12.680   7.327 -0.0388 -0.2220 -0.0025
 1076loPI   C4B15868   5.850  12.558   7.642 -0.3323 -0.3771 -0.0328
 1077loPI    C115869  15.603  10.651   5.460 -0.1260 -0.2979  0.0885
 1077loPI    C215870  15.276  10.808   5.293  0.0181  0.0300  0.1069
 1077loPI    C315871  15.537  10.605   5.068 -0.0760 -0.0240  0.0456
 1077loPI   PO415872  15.624  10.575   5.695 -0.0450 -0.1464  0.0242
 1077loPI   GL115873  15.692  10.374   6.051  0.1129  0.0418  0.0683
 1077loPI   GL215874  15.375  10.482   6.116  0.0596  0.2229 -0.3135
 1077loPI   C1A15875  15.566  10.325   6.564 -0.0606  0.0247 -0.0018
 1077loPI   C2A15876  15.255  10.372   6.936 -0.0893  0.0670 -0.1349
 1077loPI   C3A15877  15.162  10.343   7.357  0.0571 -0.1138  0.0699
 1077loPI   C4A15878  15.133  10.348   7.715 -0.1263 -0.2619  0.2609
 1077loPI   C5A15879  15.146  10.357   8.125  0.1329  0.2539  0.0609
 1077loPI   C6A15880  15.130  10.462   8.547 -0.0178 -0.0149 -0.0952
 1077loPI   C1B15881  15.136  10.449   6.394 -0.1307 -0.1262 -0.2910
 1077loPI   C2B15882  14.837  10.577   6.699 -0.1682 -0.0273 -0.0397
 1077loPI   C3B15883  14.730  10.652   7.132  0.0382 -0.1546 -0.0492
 1077loPI   C4B15884  14.711  10.703   7.540  0.0403 -0.0180  0.0746
 1078loPI    C115885   9.671   5.591   5.484  0.0500 -0.0481 -0.3130
 1078loPI    C215886   9.393   5.431   5.722  0.2192  0.0843 -0.0217
 1078loPI    C315887   9.283   5.660   5.413  0.0004  0.0049 -0.0045
 1078loPI   PO415888   9.853   5.764   5.632 -0.2422 -0.1711  0.3283
 1078loPI   GL115889   9.788   5.617   5.983  0.3136 -0.0368 -0.2374
 1078loPI   GL215890   9.563   5.526   6.246  0.0250  0.3712  0.0742
 1078loPI   C1A15891  10.133   5.504   6.388 -0.0269 -0.2891  0.1433
 1078loPI   C2A15892  10.184   5.445   6.792  0.1772  0.2308  0.1245
 1078loPI   C3A15893  10.123   5.412   7.165  0.2139 -0.0454 -0.1590
 1078loPI   C4A15894  10.038   5.299   7.581  0.0097 -0.0682 -0.1742
 1078loPI   C5A15895  10.278   5.052   7.974  0.0824  0.1912  0.0947
 1078loPI   C6A15896  10.569   4.825   8.223  0.2649 -0.1883  0.2401
 1078loPI   C1B15897   9.609   5.439   6.658  0.1792  0.0309  0.1416
 1078loPI   C2B15898   9.520   5.385   7.136  0.0348 -0.2066 -0.0521
 1078loPI   C3B15899   9.544   5.203   7.611 -0.3161 -0.0320  0.0018
 1078loPI   C4B15900   9.363   5.139   7.940 -0.2705 -0.2692  0.5039
 1079loPI    C115901   7.652  13.402   5.666 -0.0907 -0.0457 -0.1928
 1079loPI    C215902   7.394  13.501   5.377  0.0186  0.1608 -0.2211
 1079loPI    C315903   7.785  13.571   5.329  0.0691 -0.0548 -0.1349
 1079loPI   PO415904   7.616  13.190   5.784 -0.0630  0.4989 -0.3172
 1079loPI   GL115905   7.475  12.958   6.032  0.1153  0.1801  0.1858
 1079loPI   GL215906   7.597  12.713   6.093  0.0345  0.2953  0.1006
 1079loPI   C1A15907   7.580  13.005   6.521 -0.1151  0.0201  0.0518
 1079loPI   C2A15908   7.679  12.933   7.017 -0.0487 -0.4727 -0.0360
 1079loPI   C3A15909   7.682  13.136   7.394 -0.1179  0.1512  0.0733
 1079loPI   C4A15910   7.491  13.507   7.734 -0.1777 -0.2005 -0.0855
 1079loPI   C5A15911   7.508  13.793   8.014  0.1105  0.1653 -0.0722
 1079loPI   C6A15912   7.569  13.881   8.382  0.0270  0.1355 -0.4389
 1079loPI   C1B15913   7.305  12.640   6.409 -0.1608  0.0683  0.4208
 1079loPI   C2B15914   7.243  12.713   6.840  0.0616  0.1783 -0.0641
 1079loPI   C3B15915   7.200  12.899   7.251  0.1108 -0.0596  0.1452
 1079loPI   C4B15916   7.334  12.922   7.723 -0.0710 -0.1460  0.0091
 1080POPI    C115917   4.524   7.181   5.351  0.0236  0.0271  0.0552
 1080POPI    C215918   4.886   7.010   5.331 -0.1434 -0.3174 -0.1040
 1080POPI    C315919   4.712   7.150   4.999  0.0039  0.2017  0.0287
 1080POPI   PO415920   4.540   7.182   5.665  0.0840 -0.0830 -0.0393
 1080POPI   GL115921   4.524   7.308   6.029  0.0343 -0.0352  0.0210
 1080POPI   GL215922   4.773   7.294   6.132 -0.2296 -0.0449 -0.3145
 1080POPI   C1A15923   4.258   7.371   6.398  0.1824  0.1150 -0.2031
 1080POPI   D2A15924   3.992   7.348   6.768 -0.0441  0.1532  0.0514
 1080POPI   C3A15925   4.142   7.344   7.248  0.3177 -0.1421  0.3594
 1080POPI   C4A15926   4.116   7.143   7.601 -0.2010 -0.1599 -0.2037
 1080POPI   C1B15927   4.761   7.179   6.534  0.1277  0.0877  0.2657
 1080POPI   C2B15928   4.458   7.131   6.888 -0.2666  0.0218  0.0575
 1080POPI   C3B15929   4.559   7.040   7.329  0.1073 -0.0056 -0.0649
 1080POPI   C4B15930   4.685   6.897   7.728  0.1225  0.2633  0.2518
 1081POPI    C115931  11.482   5.709   5.574 -0.2655 -0.1431 -0.0777
 1081POPI    C215932  11.814   5.518   5.460 -0.1054  0.0208  0.1070
 1081POPI    C315933  11.714   5.864   5.287 -0.1049  0.0415  0.1477
 1081POPI   PO415934  11.300   5.435   5.577  0.1387 -0.0273 -0.1804
 1081POPI   GL115935  11.167   5.259   5.946 -0.1585 -0.0190 -0.0040
 1081POPI   GL215936  10.975   5.383   6.079 -0.1263 -0.1312  0.0947
 1081POPI   C1A15937  11.431   5.471   6.313 -0.1099  0.0525  0.1133
 1081POPI   D2A15938  11.861   5.484   6.424 -0.0726 -0.1484 -0.1753
 1081POPI   C3A15939  11.949   5.507   6.784  0.0533  0.1157 -0.2528
 1081POPI   C4A15940  11.900   5.923   7.159 -0.3886  0.0942  0.3673
 1081POPI   C1B15941  10.821   5.241   6.485  0.1255  0.1487 -0.1019
 1081POPI   C2B15942  10.721   5.304   6.899  0.1955  0.2680 -0.0925
 1081POPI   C3B15943  10.578   5.238   7.417 -0.1099  0.3800 -0.2416
 1081POPI   C4B15944  10.616   5.486   7.811 -0.1039 -0.0411  0.1021
 1082POPI    C115945   9.703   9.293   5.557 -0.2226 -0.2188 -0.0632
 1082POPI    C215946  10.037   9.122   5.421 -0.1272 -0.0421 -0.0535
 1082POPI    C315947   9.933   9.487   5.293 -0.3647 -0.1339 -0.1259
 1082POPI   PO415948   9.755   9.211   5.822  0.1687  0.2652  0.1150
 1082POPI   GL115949   9.659   9.220   6.175 -0.2576 -0.3198 -0.2775
 1082POPI   GL215950   9.374   9.184   6.330  0.5421  0.2875  0.0535
 1082POPI   C1A15951   9.973   9.312   6.442 -0.0404  0.1715  0.2293
 1082POPI   D2A15952   9.966   9.392   6.884 -0.2420 -0.2181  0.0057
 1082POPI   C3A15953   9.818   9.602   7.245 -0.1010 -0.2678  0.1273
 1082POPI   C4A15954   9.823   9.911   7.522 -0.1627  0.1746 -0.1518
 1082POPI   C1B15955   9.524   9.210   6.782 -0.1567 -0.1333  0.0575
 1082POPI   C2B15956   9.682   9.056   7.201 -0.1124 -0.0981 -0.0843
 1082POPI   C3B15957   9.891   9.149   7.610 -0.3226 -0.0691  0.1276
 1082POPI   C4B15958   9.964   9.242   7.993 -0.1166 -0.1343  0.0295
 1083POPI    C115959  10.948   1.737   5.437 -0.0408 -0.0174 -0.1823
 1083POPI    C215960  11.160   1.858   5.120  0.2763  0.0060  0.0336
 1083POPI    C315961  11.180   1.477   5.241  0.1665  0.0002  0.0343
 1083POPI   PO415962  11.019   1.912   5.652 -0.1856  0.2208  0.0536
 1083POPI   GL115963  11.086   1.750   6.010 -0.1951 -0.0459 -0.0023
 1083POPI   GL215964  11.039   1.375   5.884  0.2039 -0.0815  0.1551
 1083POPI   C1A15965  11.036   1.600   6.394  0.1775  0.0672 -0.1659
 1083POPI   D2A15966  11.174   1.318   6.744 -0.1135 -0.2034 -0.2888
 1083POPI   C3A15967  11.281   1.003   7.068  0.1110  0.2333  0.2847
 1083POPI   C4A15968  11.266   0.631   7.367  0.0509  0.4437 -0.1150
 1083POPI   C1B15969  11.002   1.078   6.266  0.0593  0.3106 -0.2942
 1083POPI   C2B15970  10.860   0.955   6.752 -0.4778 -0.0872 -0.1532
 1083POPI   C3B15971  10.826   0.883   7.242 -0.1646  0.0235 -0.0563
 1083POPI   C4B15972  10.923   0.744   7.765  0.0518 -0.1797 -0.3417
 1084POPI    C115973   4.963   6.477   5.262 -0.1812  0.0441 -0.0674
 1084POPI    C215974   5.298   6.691   5.213 -0.1059 -0.0725 -0.0651
 1084POPI    C315975   4.999   6.723   4.949 -0.1066  0.0565 -0.0494
 1084POPI   PO415976   5.091   6.271   5.451 -0.0015  0.0036 -0.0355
 1084POPI   GL115977   4.967   6.157   5.851 -0.1938 -0.0410 -0.1204
 1084POPI   GL215978   4.934   6.451   5.914  0.0502  0.1353  0.0163
 1084POPI   C1A15979   5.097   5.831   6.167  0.0778 -0.0454 -0.1049
 1084POPI   D2A15980   4.987   5.666   6.496  0.2117  0.1906  0.2318
 1084POPI   C3A15981   5.189   5.723   6.828  0.0520  0.1660 -0.1152
 1084POPI   C4A15982   5.371   5.632   7.242  0.2145 -0.2059 -0.0970
 1084POPI   C1B15983   5.247   6.393   6.238 -0.0388  0.1392  0.0730
 1084POPI   C2B15984   5.616   6.514   6.450  0.1115 -0.0057 -0.1685
 1084POPI   C3B15985   5.762   6.532   6.831 -0.0295  0.2048  0.0469
 1084POPI   C4B15986   5.726   6.913   7.134  0.3742 -0.0375 -0.0097
 1085POPI    C115987   9.474  14.690   5.091 -0.0421  0.0844 -0.0495
 1085POPI    C215988   9.382  14.790   4.715 -0.0386 -0.0768 -0.0937
 1085POPI    C315989   9.225  14.460   4.879  0.2236 -0.1917 -0.0686
 1085POPI   PO415990   9.393  14.865   5.302  0.0801  0.1605  0.0067
 1085POPI   GL115991   9.193  14.882   5.692 -0.0887 -0.0453  0.0751
 1085POPI   GL215992   9.420  14.839   5.956 -0.0975  0.1520  0.2714
 1085POPI   C1A15993   8.808  14.818   5.886 -0.1602 -0.1348 -0.2553
 1085POPI   D2A15994   8.552  14.963   6.157 -0.1462  0.1986 -0.0897
 1085POPI   C3A15995   8.092  14.781   6.191 -0.4908  0.2278 -0.2602
 1085POPI   C4A15996   7.947  14.324   6.316  0.0679  0.1148 -0.0309
 1085POPI   C1B15997   9.131  14.823   6.292  0.3829  0.0533  0.1145
 1085POPI   C2B15998   8.814  14.832   6.577  0.0301  0.0030 -0.0063
 1085POPI   C3B15999   8.384  14.985   6.580 -0.1616 -0.1139  0.2032
 1085POPI   C4B16000   8.050  14.835   6.747  0.2371 -0.0268  0.0267
 1086POPI    C116001   9.942   7.802   5.386  0.0930 -0.3175 -0.1769
 1086POPI    C216002   9.735   8.046   5.145  0.2605  0.1134  0.1040
 1086POPI    C316003  10.026   7.817   4.995 -0.0504 -0.0911 -0.2011
 1086POPI   PO416004   9.726   7.761   5.538  0.0630  0.1944  0.1551
 1086POPI   GL116005   9.567   7.922   5.924 -0.0503 -0.2187  0.3018
 1086POPI   GL216006   9.629   8.195   6.108 -0.0026 -0.2399  0.1224
 1086POPI   C1A16007   9.454   7.769   6.256  0.2110 -0.1098 -0.0093
 1086POPI   D2A16008   9.410   7.910   6.721  0.0371  0.0949  0.1542
 1086POPI   C3A16009   9.385   7.679   6.977 -0.0032 -0.0131  0.1631
 1086POPI   C4A16010   9.342   7.628   7.436  0.1016  0.1311  0.2130
 1086POPI   C1B16011   9.867   7.984   6.467  0.1272 -0.2112 -0.1958
 1086POPI   C2B16012   9.906   7.815   6.792 -0.0682 -0.1448  0.1067
 1086POPI   C3B16013   9.889   7.608   7.092  0.0784  0.2873  0.1355
 1086POPI   C4B16014  10.048   7.223   7.140  0.3782  0.0710  0.1232
 1087POPI    C116015   6.933  16.767   5.569 -0.0504  0.0501  0.0045
 1087POPI    C216016   7.229  16.667   5.319  0.0508  0.2500  0.0422
 1087POPI    C316017   6.853  16.687   5.186  0.0680  0.0994 -0.0311
 1087POPI   PO416018   7.042  16.937   5.697  0.0211 -0.0934  0.1043
 1087POPI   GL116019   7.255  17.061   6.050  0.0863  0.1238 -0.2328
 1087POPI   GL216020   7.304  17.427   5.933 -0.4044 -0.1417  0.0233
 1087POPI   C1A16021   7.189  17.039   6.477 -0.1207  0.2886  0.3061
 1087POPI   D2A16022   7.309  17.122   6.970 -0.2653  0.1318  0.0005
 1087POPI   C3A16023   7.507  16.875   7.164  0.1480  0.3154 -0.3466
 1087POPI   C4A16024   7.640  16.852   7.521  0.3031 -0.1936  0.0930
 1087POPI   C1B16025   7.191  17.502   6.340 -0.1382 -0.3425  0.3789
 1087POPI   C2B16026   7.308  17.609   6.802  0.1290 -0.0053 -0.0569
 1087POPI   C3B16027   7.361  17.649   7.227  0.1224 -0.0831  0.3537
 1087POPI   C4B16028   7.367  17.300   7.535 -0.3016  0.0279  0.3751
 1088POPI    C116029   5.204  10.606   5.790 -0.1027 -0.3067 -0.0838
 1088POPI    C216030   5.315  10.899   5.541 -0.1617 -0.0212  0.2178
 1088POPI    C316031   4.939  10.761   5.534 -0.1274 -0.1097  0.0586
 1088POPI   PO416032   5.244  10.666   5.986 -0.2069  0.1825 -0.1267
 1088POPI   GL116033   5.423  10.877   6.390  0.1056 -0.1332  0.0118
 1088POPI   GL216034   5.234  11.076   6.419 -0.0707 -0.1472 -0.0710
 1088POPI   C1A16035   5.717  11.026   6.648  0.1645 -0.1489 -0.0031
 1088POPI   D2A16036   6.102  10.942   6.922 -0.0250  0.3851 -0.0806
 1088POPI   C3A16037   6.129  10.963   7.312  0.0794  0.3160  0.2632
 1088POPI   C4A16038   6.427  10.835   7.665  0.0382 -0.0137 -0.1219
 1088POPI   C1B16039   5.404  11.359   6.785 -0.0301 -0.1159 -0.0186
 1088POPI   C2B16040   5.386  11.489   7.199  0.0504  0.0130 -0.1821
 1088POPI   C3B16041   5.714  11.462   7.521 -0.4017 -0.0730  0.0712
 1088POPI   C4B16042   5.919  11.464   7.932 -0.0696 -0.0454  0.1841
 1089POPI    C116043   5.903   1.640   4.947 -0.0826 -0.0620  0.0142
 1089POPI    C216044   6.130   1.342   4.807 -0.0208 -0.0067 -0.0040
 1089POPI    C316045   5.821   1.262   5.047  0.0194 -0.0823  0.0231
 1089POPI   PO416046   6.115   1.787   5.052 -0.1945 -0.0977  0.1891
 1089POPI   GL116047   6.256   1.925   5.412 -0.1246 -0.0665 -0.0949
 1089POPI   GL216048   6.115   2.210   5.626 -0.0823 -0.1627  0.0886
 1089POPI   C1A16049   6.323   1.764   5.868  0.2143  0.0757 -0.0290
 1089POPI   D2A16050   6.161   1.825   6.284  0.0975 -0.1926 -0.2066
 1089POPI   C3A16051   6.333   1.612   6.639  0.1836  0.0541 -0.1927
 1089POPI   C4A16052   6.433   1.371   6.946  0.0623  0.1192 -0.0639
 1089POPI   C1B16053   5.825   1.929   5.917 -0.1126  0.5318  0.1670
 1089POPI   C2B16054   5.680   1.781   6.281  0.0191  0.0660  0.2197
 1089POPI   C3B16055   5.781   1.703   6.678 -0.0247  0.0312 -0.1481
 1089POPI   C4B16056   6.076   1.693   7.072  0.0785  0.1485 -0.1102
 1090POPI    C116057  10.187  14.775   5.617 -0.1002 -0.1138 -0.1150
 1090POPI    C216058   9.801  14.878   5.627 -0.0377  0.1135  0.0725
 1090POPI    C316059   9.952  14.700   5.302 -0.3685 -0.2630  0.1160
 1090POPI   PO416060  10.265  14.689   5.892 -0.1043  0.0953  0.2069
 1090POPI   GL116061  10.345  14.825   6.217 -0.2836 -0.1952  0.0537
 1090POPI   GL216062  10.322  14.677   6.544 -0.3176  0.1564 -0.1161
 1090POPI   C1A16063  10.156  15.176   6.516  0.1859  0.0718  0.2209
 1090POPI   D2A16064   9.952  15.390   6.807 -0.0287  0.1264 -0.1746
 1090POPI   C3A16065  10.063  15.384   7.196  0.4084 -0.0920  0.3253
 1090POPI   C4A16066  10.049  15.355   7.669  0.1505 -0.0377  0.0250
 1090POPI   C1B16067  10.090  14.485   6.857 -0.2649  0.1714  0.2695
 1090POPI   C2B16068   9.997  14.300   7.263 -0.0350 -0.5012 -0.0527
 1090POPI   C3B16069   9.893  14.299   7.665 -0.1877 -0.2740  0.4116
 1090POPI   C4B16070   9.556  14.475   7.964 -0.0724  0.2287  0.0244
 1091POPI    C116071  15.720   2.891   5.316 -0.2402 -0.0843  0.0877
 1091POPI    C216072  15.609   2.518   5.224  0.0003 -0.1678  0.1280
 1091POPI    C316073  15.853   2.720   4.980 -0.1013 -0.0491  0.1238
 1091POPI   PO416074  15.695   2.817   5.601  0.1683 -0.2172 -0.1615
 1091POPI   GL116075  15.782   3.076   5.969 -0.0932 -0.2033  0.1766
 1091POPI   GL216076  15.835   2.670   6.089  0.0576  0.0419  0.0168
 1091POPI   C1A16077  15.536   3.051   6.344  0.0267  0.3277 -0.2754
 1091POPI   D2A16078  15.659   2.694   6.674 -0.2123  0.0288 -0.1075
 1091POPI   C3A16079  15.426   2.509   7.033 -0.0254  0.2109  0.0885
 1091POPI   C4A16080  15.352   2.160   7.356  0.1920  0.1000  0.2111
 1091POPI   C1B16081  15.380   2.561   6.297 -0.0788 -0.2006  0.1241
 1091POPI   C2B16082  15.066   2.442   6.552 -0.0705  0.0146 -0.1316
 1091POPI   C3B16083  14.934   2.449   7.001 -0.1265 -0.0393 -0.0074
 1091POPI   C4B16084  14.976   2.571   7.442  0.0219 -0.2686  0.1222
 1092POPI    C116085  18.061   4.382   5.420 -0.2423 -0.0973  0.0115
 1092POPI    C216086  18.149   4.014   5.289  0.0275  0.0346 -0.1874
 1092POPI    C316087  17.975   4.277   5.043 -0.2056  0.0285 -0.0322
 1092POPI   PO416088  18.038   4.290   5.697  0.2117  0.1957 -0.1304
 1092POPI   GL116089  18.194   4.419   6.119 -0.1999 -0.0512  0.1280
 1092POPI   GL216090  17.972   4.737   6.017  0.0754  0.1396  0.1078
 1092POPI   C1A16091  18.301   4.218   6.452 -0.2991 -0.0340  0.2186
 1092POPI   D2A16092  18.201   4.310   6.887  0.1774 -0.1043 -0.0363
 1092POPI   C3A16093  18.346   4.206   7.288 -0.1802  0.0587  0.2107
 1092POPI   C4A16094  18.359   4.263   7.687 -0.0075  0.2820 -0.0107
 1092POPI   C1B16095  17.930   4.607   6.460 -0.2723  0.2131  0.0735
 1092POPI   C2B16096  17.797   4.609   6.917 -0.1964  0.0167  0.1645
 1092POPI   C3B16097  18.029   4.627   7.184 -0.0324 -0.3896 -0.2820
 1092POPI   C4B16098  18.228   4.739   7.545 -0.1232  0.2889 -0.0146
 1093POPI    C116099   9.386  12.845   5.312 -0.1799  0.0095  0.2875
 1093POPI    C216100   9.180  13.178   5.230  0.1823  0.1906  0.0878
 1093POPI    C316101   9.355  12.973   4.935  0.0584 -0.1170  0.2233
 1093POPI   PO416102   9.313  12.846   5.565 -0.0480  0.0901 -0.2178
 1093POPI   GL116103   9.203  12.575   5.874  0.3633 -0.1601 -0.0951
 1093POPI   GL216104   9.252  12.234   5.897  0.0325 -0.1292  0.2805
 1093POPI   C1A16105   9.192  12.786   6.312 -0.1461 -0.2637 -0.0757
 1093POPI   D2A16106   9.267  13.083   6.708  0.2702  0.1473  0.3548
 1093POPI   C3A16107   9.275  13.079   7.146 -0.2568  0.2356 -0.0374
 1093POPI   C4A16108   9.263  13.105   7.554  0.3880  0.0184  0.1361
 1093POPI   C1B16109   9.393  12.255   6.354  0.1906 -0.1472 -0.1686
 1093POPI   C2B16110   9.356  12.497   6.736  0.1752  0.0945 -0.1978
 1093POPI   C3B16111   9.202  12.579   7.210  0.0150 -0.0408  0.1931
 1093POPI   C4B16112   8.880  12.673   7.569  0.2319  0.0156  0.0330
 1094POPI    C116113   7.083   9.947   5.901 -0.1004  0.4092 -0.1297
 1094POPI    C216114   6.719   9.836   6.025 -0.0115  0.0228 -0.2013
 1094POPI    C316115   6.762  10.027   5.676 -0.1436  0.0552 -0.2004
 1094POPI   PO416116   7.288   9.805   6.086  0.0614 -0.2887  0.1205
 1094POPI   GL116117   7.360   9.896   6.339 -0.1260  0.0132 -0.1821
 1094POPI   GL216118   7.548   9.698   6.564 -0.2861  0.1126  0.3300
 1094POPI   C1A16119   7.561  10.106   6.758  0.2445  0.0644  0.0496
 1094POPI   D2A16120   7.618  10.179   7.138 -0.2525  0.2383  0.0785
 1094POPI   C3A16121   7.404   9.998   7.547  0.1046  0.2568  0.1980
 1094POPI   C4A16122   7.473   9.962   8.003  0.1136 -0.2634  0.0003
 1094POPI   C1B16123   7.471   9.683   6.996 -0.2055 -0.2808  0.2138
 1094POPI   C2B16124   7.669   9.698   7.287  0.2665  0.3305 -0.0321
 1094POPI   C3B16125   7.641   9.482   7.729  0.3153  0.0069 -0.1542
 1094POPI   C4B16126   7.768   9.540   8.136 -0.0926 -0.1203  0.0751
 1095POPI    C116127   5.360  15.515   5.454  0.0839  0.0259 -0.0645
 1095POPI    C216128   5.352  15.167   5.258  0.1350 -0.1380  0.2183
 1095POPI    C316129   5.457  15.502   5.067  0.0120 -0.2635 -0.0749
 1095POPI   PO416130   5.167  15.464   5.650  0.2598 -0.0803  0.1077
 1095POPI   GL116131   5.000  15.205   5.976 -0.0376  0.0585 -0.0808
 1095POPI   GL216132   5.109  15.362   6.218 -0.0471  0.0674 -0.0831
 1095POPI   C1A16133   5.136  14.882   6.246 -0.0234  0.2472  0.1031
 1095POPI   D2A16134   4.932  14.595   6.574  0.0813  0.0828  0.0398
 1095POPI   C3A16135   5.149  14.794   6.910 -0.0544  0.0384  0.0152
 1095POPI   C4A16136   5.561  14.805   7.013  0.1306  0.1773  0.1167
 1095POPI   C1B16137   5.269  15.186   6.662  0.2289  0.4415 -0.1351
 1095POPI   C2B16138   5.434  15.244   7.030  0.4011 -0.2453 -0.1126
 1095POPI   C3B16139   5.157  15.327   7.374  0.0324  0.1609  0.0296
 1095POPI   C4B16140   4.830  15.560   7.480  0.0081 -0.3290 -0.3682
 1096POPI    C116141  10.929   0.578   5.608  0.0016  0.0871 -0.0047
 1096POPI    C216142  10.732   0.680   5.275 -0.2332  0.1426  0.1480
 1096POPI    C316143  10.554   0.451   5.550 -0.0156  0.0379  0.2039
 1096POPI   PO416144  11.139   0.833   5.624  0.0938 -0.1007  0.0852
 1096POPI   GL116145  11.576   0.781   5.885 -0.1798  0.1439 -0.3867
 1096POPI   GL216146  11.985   0.761   5.902  0.2810 -0.0282  0.0970
 1096POPI   C1A16147  11.323   0.609   6.242 -0.3733 -0.1948  0.0490
 1096POPI   D2A16148  11.383   0.790   6.571 -0.1118  0.0284  0.2177
 1096POPI   C3A16149  11.571   0.552   6.918 -0.1527  0.3080 -0.3009
 1096POPI   C4A16150  11.752   0.519   7.193  0.1176 -0.0785  0.0084
 1096POPI   C1B16151  11.890   0.566   6.310 -0.3010  0.1187  0.0491
 1096POPI   C2B16152  11.910   0.250   6.701  0.2518  0.1821  0.1471
 1096POPI   C3B16153  11.899   0.036   7.087 -0.0042  0.1649 -0.1405
 1096POPI   C4B16154  12.197  -0.004   7.355  0.0353 -0.0885 -0.0923
 1097POPI    C116155   0.680   4.036   5.552  0.3080 -0.0615 -0.3238
 1097POPI    C216156   0.733   3.658   5.672  0.0180 -0.0044  0.0000
 1097POPI    C316157   0.503   3.737   5.354  0.0214 -0.0949 -0.0253
 1097POPI   PO416158   0.732   4.148   5.740 -0.1567 -0.3394 -0.1041
 1097POPI   GL116159   0.665   4.012   6.123 -0.0476 -0.0318 -0.0960
 1097POPI   GL216160   0.552   4.351   6.185  0.0559 -0.0167 -0.1837
 1097POPI   C1A16161   0.506   3.886   6.453  0.1588  0.4713  0.1877
 1097POPI   D2A16162   0.421   3.918   6.846  0.0979 -0.2599  0.0174
 1097POPI   C3A16163   0.254   3.582   7.038 -0.1744 -0.1537 -0.0755
 1097POPI   C4A16164   0.189   3.292   7.364 -0.0771  0.2232  0.0976
 1097POPI   C1B16165   0.654   4.317   6.621 -0.1568 -0.1123 -0.0141
 1097POPI   C2B16166   0.589   4.373   7.122 -0.2305 -0.2931  0.0140
 1097POPI   C3B16167   0.526   4.690   7.398  0.0009  0.0621 -0.3255
 1097POPI   C4B16168   0.594   4.853   7.736 -0.0066 -0.1329 -0.0195
 1098POPI    C116169   6.205   6.063   4.720 -0.1307 -0.0435 -0.0917
 1098POPI    C216170   6.245   5.668   4.766  0.0676 -0.0198 -0.0535
 1098POPI    C316171   6.304   5.834   4.407 -0.4914 -0.0815 -0.1823
 1098POPI   PO416172   6.256   6.076   5.026  0.0933  0.0984 -0.0231
 1098POPI   GL116173   6.369   6.207   5.366  0.1186  0.1337 -0.1874
 1098POPI   GL216174   6.076   6.197   5.445 -0.1177  0.2081  0.1481
 1098POPI   C1A16175   6.552   6.251   5.815 -0.1057  0.1874  0.0099
 1098POPI   D2A16176   6.507   6.321   6.280 -0.0589 -0.0193 -0.0465
 1098POPI   C3A16177   6.621   6.051   6.542 -0.1753  0.0608 -0.0871
 1098POPI   C4A16178   6.477   5.994   6.951  0.0268  0.4632  0.2863
 1098POPI   C1B16179   6.014   5.989   5.830 -0.1780  0.0050  0.0842
 1098POPI   C2B16180   5.975   5.883   6.330  0.0432 -0.0902  0.0490
 1098POPI   C3B16181   6.028   6.140   6.695  0.1354 -0.1075 -0.0832
 1098POPI   C4B16182   5.988   6.196   7.139  0.2073 -0.0742 -0.0801
 1099POPI    C116183   5.374  10.103   6.003 -0.0301  0.1904  0.0190
 1099POPI    C216184   5.769  10.149   5.959 -0.0072  0.3375  0.3519
 1099POPI    C316185   5.523  10.245   5.659  0.2069  0.2634  0.1491
 1099POPI   PO416186   5.387   9.821   6.102 -0.1541 -0.0000  0.1940
 1099POPI   GL116187   5.235   9.640   6.539 -0.0462  0.0710  0.0969
 1099POPI   GL216188   5.520   9.491   6.653  0.0607 -0.2523 -0.1087
 1099POPI   C1A16189   4.996   9.878   6.870  0.0959 -0.1352  0.1283
 1099POPI   D2A16190   4.618   9.905   7.059  0.0526  0.2005  0.0528
 1099POPI   C3A16191   4.222   9.675   6.954  0.1004  0.2062 -0.2798
 1099POPI   C4A16192   3.839   9.569   7.060  0.1978 -0.0485 -0.1587
 1099POPI   C1B16193   5.411   9.420   6.994 -0.2641 -0.0581 -0.0707
 1099POPI   C2B16194   5.392   9.380   7.398 -0.0534 -0.3156 -0.0332
 1099POPI   C3B16195   5.350   9.659   7.733 -0.3079  0.0252  0.3963
 1099POPI   C4B16196   5.286   9.699   8.197  0.2860  0.1661  0.0050
 1100POPI    C116197   1.752   9.899   5.393  0.1045 -0.1010  0.0113
 1100POPI    C216198   1.885   9.947   5.018  0.2304  0.0612  0.0753
 1100POPI    C316199   1.760   9.588   5.142  0.2236 -0.0013 -0.1105
 1100POPI   PO416200   1.898  10.028   5.614 -0.0711  0.1466 -0.1555
 1100POPI   GL116201   1.919  10.229   6.035  0.2469  0.0659  0.1028
 1100POPI   GL216202   1.643  10.376   5.898  0.1243  0.0983  0.0502
 1100POPI   C1A16203   2.033   9.917   6.287  0.0497  0.0730  0.4442
 1100POPI   D2A16204   2.302   9.586   6.238 -0.0364  0.0539 -0.1458
 1100POPI   C3A16205   2.388   9.325   6.631  0.2881 -0.0729 -0.1573
 1100POPI   C4A16206   2.341   9.249   6.945  0.1413 -0.0124 -0.0466
 1100POPI   C1B16207   1.460  10.036   6.295  0.0694 -0.0352 -0.1188
 1100POPI   C2B16208   1.420  10.023   6.752 -0.0423  0.1942  0.0662
 1100POPI   C3B16209   1.367   9.930   7.096 -0.0233  0.0575  0.1813
 1100POPI   C4B16210   1.193  10.209   7.414  0.1499  0.0063 -0.1048
 1101POPI    C116211   1.942  16.147   5.682 -0.0607 -0.0984  0.1620
 1101POPI    C216212   1.976  16.069   5.291 -0.0583  0.1172  0.1185
 1101POPI    C316213   1.621  16.172   5.444 -0.0558  0.0490  0.1703
 1101POPI   PO416214   2.219  16.269   5.711 -0.0296  0.1443 -0.0763
 1101POPI   GL116215   2.398  16.429   6.002  0.0071 -0.2743 -0.3006
 1101POPI   GL216216   2.480  16.798   6.171  0.2544  0.0594  0.2997
 1101POPI   C1A16217   2.511  16.374   6.413 -0.1038  0.1159 -0.1748
 1101POPI   D2A16218   2.500  16.493   6.822 -0.0057 -0.1522  0.1987
 1101POPI   C3A16219   2.632  16.955   6.992 -0.1666  0.3481 -0.0510
 1101POPI   C4A16220   2.454  17.220   7.327  0.2389 -0.0797 -0.2307
 1101POPI   C1B16221   2.319  16.863   6.478  0.0936 -0.1566 -0.0358
 1101POPI   C2B16222   2.216  17.235   6.758 -0.0374  0.0437  0.0378
 1101POPI   C3B16223   2.029  17.534   7.043  0.3207 -0.3253  0.0157
 1101POPI   C4B16224   1.893  17.888   7.386 -0.1409  0.3754 -0.2762
 1102POPI    C116225  13.704  14.066   5.843 -0.0411  0.1870  0.0097
 1102POPI    C216226  13.383  14.201   5.647  0.0126 -0.1888 -0.3509
 1102POPI    C316227  13.735  14.172   5.459  0.1773 -0.1189 -0.0607
 1102POPI   PO416228  13.751  14.131   6.061  0.2841  0.0793  0.0674
 1102POPI   GL116229  13.694  13.865   6.433 -0.2413  0.1407  0.2012
 1102POPI   GL216230  13.987  14.008   6.482 -0.0693 -0.2000  0.1479
 1102POPI   C1A16231  13.673  13.953   6.846  0.0262  0.2456  0.0590
 1102POPI   D2A16232  13.764  13.898   7.226  0.0016  0.0631 -0.0859
 1102POPI   C3A16233  13.542  13.796   7.566 -0.1952 -0.1671  0.0958
 1102POPI   C4A16234  13.785  13.525   7.900 -0.2429  0.1490 -0.3354
 1102POPI   C1B16235  14.175  13.919   6.869  0.1511  0.4391 -0.1145
 1102POPI   C2B16236  14.210  14.068   7.227  0.1608  0.0263 -0.0418
 1102POPI   C3B16237  14.251  13.778   7.719  0.2322 -0.0948  0.0226
 1102POPI   C4B16238  14.173  13.866   8.158 -0.0337 -0.0350 -0.0538
 1103POPI    C116239   6.059   9.230   5.808  0.2609  0.0266 -0.0162
 1103POPI    C216240   6.117   8.883   5.618  0.0548 -0.0881  0.1266
 1103POPI    C316241   6.255   9.223   5.459  0.2125 -0.2278 -0.0401
 1103POPI   PO416242   6.069   9.180   6.066 -0.2710  0.1307 -0.1633
 1103POPI   GL116243   6.247   9.189   6.491  0.1636 -0.1133  0.0718
 1103POPI   GL216244   6.064   9.514   6.471  0.3232  0.0748 -0.1240
 1103POPI   C1A16245   6.383   9.149   6.935 -0.0620  0.0726 -0.0326
 1103POPI   D2A16246   6.370   9.020   7.318  0.0949 -0.1012  0.1550
 1103POPI   C3A16247   6.181   8.738   7.594 -0.1433 -0.1474 -0.0795
 1103POPI   C4A16248   6.120   8.518   7.850  0.2415  0.2177  0.0488
 1103POPI   C1B16249   5.981   9.646   6.847 -0.1230  0.0787  0.1104
 1103POPI   C2B16250   5.906   9.670   7.200  0.0947 -0.0406  0.1336
 1103POPI   C3B16251   5.814   9.751   7.612 -0.1409 -0.0987  0.1970
 1103POPI   C4B16252   5.711   9.901   8.060  0.0205 -0.0347 -0.0014
 1104POPI    C116253   4.003  17.155   5.344 -0.2133  0.0221  0.1156
 1104POPI    C216254   3.856  17.433   5.097  0.0976  0.0591 -0.0327
 1104POPI    C316255   3.969  17.077   4.954  0.2827  0.0817  0.0531
 1104POPI   PO416256   3.846  17.155   5.552  0.0144 -0.1512 -0.3433
 1104POPI   GL116257   3.727  17.284   5.974 -0.0348  0.0378  0.2343
 1104POPI   GL216258   3.592  17.589   6.079  0.0433 -0.2569  0.1248
 1104POPI   C1A16259   3.504  17.056   6.210 -0.0986 -0.1752  0.2553
 1104POPI   D2A16260   3.277  16.829   6.615  0.2287 -0.0049 -0.2110
 1104POPI   C3A16261   3.096  17.077   6.959 -0.1521 -0.0436  0.1850
 1104POPI   C4A16262   3.015  17.029   7.388 -0.2748 -0.1797  0.1571
 1104POPI   C1B16263   3.710  17.481   6.425  0.2463  0.0493 -0.0962
 1104POPI   C2B16264   3.737  17.690   6.742 -0.2242  0.0418  0.0848
 1104POPI   C3B16265   3.741  17.852   7.101 -0.4286  0.1368  0.2886
 1104POPI   C4B16266   3.657  18.074   7.531 -0.0756 -0.0386  0.0667
 1105POPI    C116267   1.195  11.564   5.550  0.1223  0.0607 -0.0511
 1105POPI    C216268   1.420  11.247   5.458  0.2057  0.1393 -0.1195
 1105POPI    C316269   1.263  11.471   5.167 -0.0129  0.0487 -0.0728
 1105POPI   PO416270   1.294  11.626   5.798 -0.2022  0.2861  0.3002
 1105POPI   GL116271   1.453  11.399   6.235 -0.0151 -0.4664  0.1005
 1105POPI   GL216272   1.258  11.184   6.448  0.0731  0.0876 -0.0006
 1105POPI   C1A16273   1.836  11.324   6.595 -0.0781 -0.1798  0.0002
 1105POPI   D2A16274   2.054  11.620   6.721 -0.1052 -0.1297 -0.0482
 1105POPI   C3A16275   2.201  11.622   7.191  0.0845  0.0633  0.1445
 1105POPI   C4A16276   2.272  11.461   7.598  0.0823 -0.0982 -0.2055
 1105POPI   C1B16277   1.453  10.944   6.734  0.3799  0.0208 -0.1118
 1105POPI   C2B16278   1.413  10.882   7.171 -0.1135 -0.3619  0.0938
 1105POPI   C3B16279   1.320  10.719   7.547 -0.3166  0.3910  0.0754
 1105POPI   C4B16280   0.896  10.577   7.721 -0.0008  0.1731 -0.1904
 1106POPI    C116281   4.442   4.389   5.229  0.1499 -0.1907 -0.1242
 1106POPI    C216282   4.094   4.420   5.033  0.0527 -0.1505  0.0521
 1106POPI    C316283   4.395   4.208   4.875  0.0057 -0.0480 -0.1797
 1106POPI   PO416284   4.426   4.349   5.360 -0.1795  0.0820 -0.2215
 1106POPI   GL116285   4.127   4.215   5.538  0.1152  0.1354  0.0811
 1106POPI   GL216286   4.214   3.897   5.556  0.1404 -0.1744 -0.0237
 1106POPI   C1A16287   4.130   4.545   5.954  0.0915 -0.1321  0.2069
 1106POPI   D2A16288   4.192   4.891   6.057 -0.2120 -0.4246 -0.0170
 1106POPI   C3A16289   4.205   5.098   6.527  0.0329  0.3003 -0.2560
 1106POPI   C4A16290   4.385   5.154   6.888 -0.5284  0.0778  0.3650
 1106POPI   C1B16291   4.136   3.899   5.984 -0.2103  0.2746 -0.0758
 1106POPI   C2B16292   4.179   4.235   6.386 -0.2717  0.2171  0.0341
 1106POPI   C3B16293   4.140   4.370   6.823 -0.0051 -0.0942  0.0133
 1106POPI   C4B16294   4.177   4.290   7.215  0.0305  0.0158 -0.0561
 1107POPI    C116295   4.654   9.052   5.394  0.2375 -0.1742 -0.1342
 1107POPI    C216296   4.395   8.954   5.106 -0.0052  0.0018  0.0203
 1107POPI    C316297   4.529   9.330   5.135  0.1336 -0.0493  0.0472
 1107POPI   PO416298   4.704   8.842   5.642  0.1031 -0.0951  0.1426
 1107POPI   GL116299   4.495   8.817   6.034 -0.1547 -0.0909 -0.2536
 1107POPI   GL216300   4.357   9.123   6.113 -0.1178 -0.0603 -0.0553
 1107POPI   C1A16301   4.728   8.831   6.379  0.0189  0.4209  0.1192
 1107POPI   D2A16302   4.635   8.912   6.907  0.1578  0.2437  0.0889
 1107POPI   C3A16303   4.547   8.634   7.207 -0.3061 -0.3206 -0.2092
 1107POPI   C4A16304   4.531   8.288   7.225  0.0655 -0.0658  0.2932
 1107POPI   C1B16305   4.226   8.904   6.433 -0.3042 -0.4214  0.5434
 1107POPI   C2B16306   4.222   8.642   6.766  0.0356  0.4032  0.2683
 1107POPI   C3B16307   4.022   8.663   7.136  0.1573  0.0677 -0.1025
 1107POPI   C4B16308   4.137   8.325   7.523  0.3628  0.1734 -0.0098
 1108POPI    C116309   1.150   5.469   5.596  0.0844 -0.2126  0.0018
 1108POPI    C216310   0.773   5.469   5.462  0.0707 -0.0923  0.0388
 1108POPI    C316311   1.077   5.505   5.204  0.0447  0.1353  0.0381
 1108POPI   PO416312   1.322   5.348   5.699  0.0270  0.1226  0.1292
 1108POPI   GL116313   1.344   5.371   6.175 -0.2619 -0.2542  0.0498
 1108POPI   GL216314   1.215   5.113   6.095 -0.2902  0.2558  0.1093
 1108POPI   C1A16315   1.439   5.566   6.620  0.0813 -0.1824 -0.2261
 1108POPI   D2A16316   1.596   5.599   7.044  0.2856  0.1591 -0.0705
 1108POPI   C3A16317   1.950   5.545   7.363  0.3045 -0.0458 -0.0051
 1108POPI   C4A16318   2.115   5.776   7.757 -0.1067 -0.2058 -0.0719
 1108POPI   C1B16319   1.254   4.889   6.496  0.3779 -0.1306 -0.0226
 1108POPI   C2B16320   1.297   5.022   6.906 -0.2608  0.0588  0.2197
 1108POPI   C3B16321   1.373   5.118   7.296  0.2978  0.2493  0.0350
 1108POPI   C4B16322   1.585   5.341   7.643 -0.2134 -0.0134  0.1588
 1109POPI    C116323  14.315  11.774   5.142 -0.1022 -0.2324 -0.0271
 1109POPI    C216324  14.644  11.556   5.205 -0.0984 -0.3031 -0.2832
 1109POPI    C316325  14.641  11.836   4.919 -0.0754  0.0963  0.0986
 1109POPI   PO416326  14.175  11.651   5.373 -0.0806 -0.0391 -0.3004
 1109POPI   GL116327  14.004  11.735   5.829 -0.0878  0.1214  0.0246
 1109POPI   GL216328  14.207  11.954   6.024  0.1101 -0.0977 -0.1060
 1109POPI   C1A16329  14.255  11.461   6.195 -0.0146  0.3395 -0.0130
 1109POPI   D2A16330  14.349  11.305   6.583  0.3036  0.0513 -0.5078
 1109POPI   C3A16331  14.347  11.320   7.022  0.1045  0.0168 -0.1584
 1109POPI   C4A16332  14.409  11.497   7.434 -0.0797 -0.1071  0.0639
 1109POPI   C1B16333  13.931  11.709   6.396 -0.1181 -0.1960  0.0203
 1109POPI   C2B16334  13.714  11.668   6.619 -0.1396 -0.0287  0.0052
 1109POPI   C3B16335  13.542  11.486   6.986 -0.1105 -0.0501  0.0187
 1109POPI   C4B16336  13.466  11.621   7.412  0.1511 -0.0661 -0.0931
 1110POPI    C116337  16.708  12.825   6.016 -0.0091  0.1339 -0.1331
 1110POPI    C216338  16.399  12.714   5.788 -0.0443  0.0302 -0.0363
 1110POPI    C316339  16.341  12.963   6.095  0.0106  0.2049 -0.1660
 1110POPI   PO416340  16.816  12.602   6.105  0.0789 -0.0187 -0.3776
 1110POPI   GL116341  16.847  12.410   6.617  0.0871  0.0832 -0.0911
 1110POPI   GL216342  16.723  12.101   6.613 -0.0930 -0.1724  0.1075
 1110POPI   C1A16343  17.131  12.517   6.904 -0.3907 -0.0778 -0.0519
 1110POPI   D2A16344  17.160  12.585   7.323  0.1052  0.0841 -0.0014
 1110POPI   C3A16345  17.429  12.450   7.568 -0.0978  0.0983 -0.0609
 1110POPI   C4A16346  17.446  12.323   7.887  0.0324 -0.2126 -0.1100
 1110POPI   C1B16347  16.464  12.116   6.943  0.0295 -0.0321 -0.1275
 1110POPI   C2B16348  16.136  12.005   7.225 -0.1665 -0.1391  0.2382
 1110POPI   C3B16349  16.063  11.982   7.638 -0.2910  0.1645 -0.2728
 1110POPI   C4B16350  15.727  12.004   7.743  0.0655 -0.2270  0.2814
 1111POPI    C116351  17.555  18.086   6.073  0.0139 -0.2130 -0.1545
 1111POPI    C216352  17.203  17.950   6.206 -0.0747  0.0990 -0.0596
 1111POPI    C316353  17.252  18.031   5.817 -0.0886  0.0032 -0.0818
 1111POPI   PO416354  17.624  18.272   6.288 -0.0345  0.1143  0.3487
 1111POPI   GL116355  17.610  18.654   6.478  0.0549 -0.0233  0.3253
 1111POPI   GL216356  17.239  18.471   6.460 -0.1544  0.2725 -0.4860
 1111POPI   C1A16357  17.877  18.809   6.830 -0.1536 -0.0703 -0.4589
 1111POPI   D2A16358  17.906  19.050   7.233 -0.0123 -0.0536 -0.1238
 1111POPI   C3A16359  17.845  19.011   7.697 -0.1028 -0.0494  0.1001
 1111POPI   C4A16360  18.018  18.845   8.074 -0.4441  0.2934 -0.0854
 1111POPI   C1B16361  17.023  18.279   6.751  0.0694  0.1492 -0.1183
 1111POPI   C2B16362  17.088  17.917   7.079 -0.0134  0.1275 -0.0096
 1111POPI   C3B16363  17.425  17.846   7.304 -0.1639  0.2437 -0.2702
 1111POPI   C4B16364  17.675  18.057   7.603 -0.0818  0.0985 -0.1822
 1112POPI    C116365   0.445  16.974   5.846 -0.0631 -0.0610 -0.1118
 1112POPI    C216366   0.343  17.258   5.583 -0.0207 -0.1590 -0.2351
 1112POPI    C316367   0.721  17.126   5.599  0.0711  0.1318  0.1517
 1112POPI   PO416368   0.355  17.018   6.089 -0.0626  0.2794 -0.1813
 1112POPI   GL116369   0.351  16.901   6.439 -0.1488 -0.1201 -0.0965
 1112POPI   GL216370   0.230  16.610   6.389  0.1878 -0.0199  0.0123
 1112POPI   C1A16371   0.430  17.118   6.838  0.0684  0.0727  0.0846
 1112POPI   D2A16372   0.547  17.272   7.070 -0.0922 -0.3564 -0.0432
 1112POPI   C3A16373   0.648  17.336   7.541  0.0395 -0.1776 -0.0947
 1112POPI   C4A16374   0.914  17.571   7.929 -0.0985  0.3231 -0.0284
 1112POPI   C1B16375   0.221  16.644   6.861  0.0745  0.0076  0.0982
 1112POPI   C2B16376   0.129  16.606   7.380 -0.1163  0.3425  0.4168
 1112POPI   C3B16377   0.111  16.697   7.828  0.0730  0.0429 -0.0483
 1112POPI   C4B16378   0.394  16.757   8.165 -0.0407  0.0821  0.1479
 1113POPI    C116379   4.235  14.914   5.286 -0.1299 -0.1864 -0.0409
 1113POPI    C216380   4.534  14.907   5.020 -0.0703 -0.0371  0.0208
 1113POPI    C316381   4.193  15.098   4.933 -0.0032  0.1206  0.1001
 1113POPI   PO416382   4.393  15.010   5.493  0.0704 -0.0352  0.0108
 1113POPI   GL116383   4.529  15.100   5.838 -0.0591 -0.0532  0.4363
 1113POPI   GL216384   4.323  15.261   5.953 -0.3293  0.0134 -0.1664
 1113POPI   C1A16385   4.687  14.812   6.120  0.1003 -0.1902  0.3142
 1113POPI   D2A16386   4.742  14.318   6.211  0.1591 -0.0586 -0.0764
 1113POPI   C3A16387   4.645  14.110   6.624 -0.0841 -0.3571  0.0452
 1113POPI   C4A16388   4.525  14.195   6.947  0.0195 -0.1764  0.0599
 1113POPI   C1B16389   4.230  14.991   6.343 -0.0970 -0.1079  0.0841
 1113POPI   C2B16390   4.033  14.976   6.681 -0.0961  0.1298  0.0168
 1113POPI   C3B16391   4.242  15.077   7.050  0.2696 -0.0348  0.0111
 1113POPI   C4B16392   4.267  14.897   7.463  0.1694 -0.2929 -0.1014
 1114POPI    C116393   8.039   3.011   4.976 -0.0592  0.1242  0.2132
 1114POPI    C216394   8.359   2.857   5.158 -0.0456 -0.2366 -0.1041
 1114POPI    C316395   8.358   2.904   4.761 -0.2824  0.0234 -0.0755
 1114POPI   PO416396   7.903   3.053   5.167  0.0241 -0.0531  0.1411
 1114POPI   GL116397   7.759   2.938   5.548  0.2710  0.0979 -0.3073
 1114POPI   GL216398   8.005   2.631   5.502 -0.0182 -0.0773 -0.0019
 1114POPI   C1A16399   7.570   2.999   5.909  0.1360 -0.0383 -0.0807
 1114POPI   D2A16400   7.249   3.027   6.230  0.2028  0.0333 -0.1579
 1114POPI   C3A16401   7.378   3.209   6.638 -0.1504 -0.0854 -0.0986
 1114POPI   C4A16402   7.516   3.161   7.008  0.4365 -0.0211  0.0602
 1114POPI   C1B16403   8.009   2.678   5.995 -0.0391  0.3605  0.2868
 1114POPI   C2B16404   7.795   2.714   6.392 -0.1497  0.1819  0.2049
 1114POPI   C3B16405   7.752   2.649   6.803 -0.0655 -0.1808 -0.2175
 1114POPI   C4B16406   7.601   2.662   7.221 -0.1557 -0.0252  0.1317
 1115POPI    C116407   8.049  10.478   5.513 -0.0094 -0.1487 -0.3671
 1115POPI    C216408   7.712  10.515   5.301 -0.0830  0.0705 -0.2150
 1115POPI    C316409   7.995  10.797   5.279  0.0110 -0.0222 -0.2012
 1115POPI   PO416410   7.951  10.346   5.742 -0.1255  0.1778 -0.1257
 1115POPI   GL116411   7.854  10.513   6.142  0.3584 -0.1418 -0.0546
 1115POPI   GL216412   7.514  10.426   6.177  0.1738 -0.2136 -0.3327
 1115POPI   C1A16413   7.897  10.156   6.369 -0.0987  0.0486  0.0954
 1115POPI   D2A16414   8.155   9.863   6.489  0.1146 -0.1619 -0.0435
 1115POPI   C3A16415   7.981   9.805   6.852  0.0283 -0.1444  0.1116
 1115POPI   C4A16416   8.101   9.514   7.169  0.1285  0.0340  0.0339
 1115POPI   C1B16417   7.648  10.522   6.573  0.0482 -0.0440 -0.2122
 1115POPI   C2B16418   7.606  10.672   7.060  0.1009 -0.2772 -0.0153
 1115POPI   C3B16419   7.899  10.503   7.391 -0.1899  0.0390  0.2023
 1115POPI   C4B16420   8.110  10.489   7.783  0.1881 -0.2556 -0.1280
 1116POPI    C116421  17.636   4.462   4.772  0.1444  0.2618 -0.0629
 1116POPI    C216422  17.462   4.710   4.511  0.1333  0.1051 -0.2059
 1116POPI    C316423  17.421   4.315   4.469  0.1566  0.0777  0.0166
 1116POPI   PO416424  17.566   4.545   5.087 -0.0728 -0.0025  0.1541
 1116POPI   GL116425  17.679   4.738   5.523  0.1323 -0.0472 -0.0524
 1116POPI   GL216426  17.650   4.603   5.662 -0.3019 -0.2161 -0.0701
 1116POPI   C1A16427  17.257   4.905   5.808  0.0292  0.2266  0.1252
 1116POPI   D2A16428  16.747   4.995   5.757 -0.0830  0.2421  0.1536
 1116POPI   C3A16429  16.375   4.980   6.024  0.0402 -0.0939  0.0087
 1116POPI   C4A16430  16.330   4.974   6.493 -0.0973  0.0854  0.3636
 1116POPI   C1B16431  17.554   4.494   6.027 -0.3374 -0.3976  0.1321
 1116POPI   C2B16432  17.273   4.592   6.344 -0.0961  0.2885  0.1647
 1116POPI   C3B16433  17.346   4.853   6.628  0.2390 -0.0481  0.2213
 1116POPI   C4B16434  17.417   4.941   7.042 -0.0549 -0.0054  0.1163
 1117POPI    C116435   6.826  10.934   5.613  0.0947 -0.3317  0.0440
 1117POPI    C216436   6.619  10.743   5.898 -0.0083 -0.1778  0.0733
 1117POPI    C316437   6.440  10.847   5.555  0.0019  0.0120  0.1243
 1117POPI   PO416438   7.076  10.890   5.755  0.0619 -0.0677 -0.0596
 1117POPI   GL116439   7.391  11.016   6.062 -0.1665  0.2526 -0.2800
 1117POPI   GL216440   7.140  11.256   6.096 -0.0803 -0.1650  0.0115
 1117POPI   C1A16441   7.410  10.933   6.493 -0.1375 -0.1580  0.2518
 1117POPI   D2A16442   7.307  11.101   6.864  0.0031 -0.0167  0.0398
 1117POPI   C3A16443   7.231  10.944   7.305 -0.1064 -0.0370 -0.0179
 1117POPI   C4A16444   7.212  10.827   7.788 -0.2843 -0.0604  0.1020
 1117POPI   C1B16445   7.014  11.238   6.464  0.2030  0.1868  0.0342
 1117POPI   C2B16446   6.898  11.402   6.922 -0.1471 -0.1279 -0.0690
 1117POPI   C3B16447   6.909  11.301   7.368 -0.0294 -0.0950 -0.1016
 1117POPI   C4B16448   6.822  11.228   7.790 -0.1330  0.1305  0.1323
 1118POPI    C116449   5.595   4.764   5.399 -0.0922 -0.0523  0.0910
 1118POPI    C216450   5.333   4.945   5.157 -0.0127 -0.1015 -0.0325
 1118POPI    C316451   5.694   4.842   5.020  0.1238  0.0927  0.1754
 1118POPI   PO416452   5.517   4.603   5.528  0.1810 -0.0085 -0.0048
 1118POPI   GL116453   5.487   4.283   5.815  0.1636 -0.1416  0.0962
 1118POPI   GL216454   5.209   4.168   5.793  0.1605 -0.0926  0.0133
 1118POPI   C1A16455   5.651   4.059   6.133  0.0026 -0.0374 -0.1335
 1118POPI   D2A16456   5.474   3.876   6.487  0.0236 -0.0126  0.1440
 1118POPI   C3A16457   5.679   3.979   6.874 -0.1872 -0.1740  0.2818
 1118POPI   C4A16458   5.940   4.017   7.258 -0.1647  0.3421 -0.1066
 1118POPI   C1B16459   5.166   4.281   6.164  0.1218  0.2647 -0.0940
 1118POPI   C2B16460   5.109   4.209   6.552  0.0820  0.3064  0.1936
 1118POPI   C3B16461   4.947   4.305   6.962 -0.2253 -0.0082  0.2525
 1118POPI   C4B16462   5.037   4.275   7.392 -0.1477  0.1269  0.2696
 1119POPI    C116463   0.753   0.445   5.890  0.2008 -0.1209 -0.0010
 1119POPI    C216464   0.877   0.374   5.517  0.2079 -0.2780  0.0306
 1119POPI    C316465   0.499   0.295   5.621  0.1369 -0.0003 -0.0087
 1119POPI   PO416466   0.850   0.633   5.947  0.2674 -0.1710  0.0274
 1119POPI   GL116467   1.040   0.778   6.210  0.0423 -0.0119  0.0858
 1119POPI   GL216468   1.433   0.634   6.326 -0.2609  0.0595 -0.0732
 1119POPI   C1A16469   0.937   0.909   6.600  0.0886  0.0316  0.0079
 1119POPI   D2A16470   0.769   1.060   7.002  0.2310  0.0814 -0.1388
 1119POPI   C3A16471   0.729   0.931   7.424 -0.1291 -0.0548 -0.0368
 1119POPI   C4A16472   0.600   1.081   7.772 -0.0594 -0.0958 -0.1219
 1119POPI   C1B16473   1.636   0.747   6.846  0.1488 -0.3379 -0.0433
 1119POPI   C2B16474   1.672   0.850   7.285 -0.0790 -0.0657 -0.0716
 1119POPI   C3B16475   1.575   0.666   7.653  0.1340 -0.0041 -0.0264
 1119POPI   C4B16476   1.552   0.744   8.126  0.2496 -0.4109  0.1781
 1120POPI    C116477   1.361  12.429   5.773 -0.0303  0.1073 -0.0456
 1120POPI    C216478   1.234  12.072   5.645  0.0121  0.0789 -0.0085
 1120POPI    C316479   1.040  12.404   5.536 -0.1043  0.0343  0.0610
 1120POPI   PO416480   1.383  12.459   6.037 -0.0143 -0.0404 -0.1454
 1120POPI   GL116481   1.177  12.374   6.417  0.2504  0.2559  0.0650
 1120POPI   GL216482   0.801  12.513   6.572  0.0202  0.2463  0.1868
 1120POPI   C1A16483   1.480  12.207   6.828 -0.3325  0.1519  0.3356
 1120POPI   D2A16484   1.437  12.127   7.243  0.0216  0.0760  0.0653
 1120POPI   C3A16485   1.200  11.662   7.325  0.0719 -0.2716  0.2677
 1120POPI   C4A16486   1.327  11.296   7.469 -0.0440  0.0495 -0.1252
 1120POPI   C1B16487   0.579  12.768   6.860  0.2777  0.0307 -0.2416
 1120POPI   C2B16488   0.802  12.674   7.293  0.0777  0.0892  0.1560
 1120POPI   C3B16489   0.817  12.497   7.692  0.0406  0.1122  0.0474
 1120POPI   C4B16490   0.718  12.176   7.946  0.1879  0.1018  0.1497
 1121POPI    C116491  12.629  15.275   6.252 -0.1086 -0.1347 -0.0887
 1121POPI    C216492  12.244  15.374   6.295 -0.0567  0.0349 -0.0083
 1121POPI    C316493  12.528  15.652   6.341  0.0906 -0.1499  0.2172
 1121POPI   PO416494  12.711  15.105   6.362  0.3029  0.3055 -0.2553
 1121POPI   GL116495  12.473  15.175   6.772  0.0939  0.1657  0.0269
 1121POPI   GL216496  12.762  15.414   6.764 -0.3120  0.3217 -0.0081
 1121POPI   C1A16497  12.705  14.935   7.038 -0.0596 -0.1198 -0.1044
 1121POPI   D2A16498  12.821  14.976   7.369 -0.1061 -0.1527 -0.1921
 1121POPI   C3A16499  12.910  15.285   7.659 -0.1367 -0.1967 -0.2574
 1121POPI   C4A16500  12.978  15.317   8.025  0.0842 -0.1481 -0.0915
 1121POPI   C1B16501  12.678  15.449   7.246  0.1078 -0.2100 -0.1997
 1121POPI   C2B16502  12.459  15.534   7.543  0.0824 -0.2675 -0.1807
 1121POPI   C3B16503  12.488  15.550   7.983 -0.0491 -0.0070 -0.1752
 1121POPI   C4B16504  12.369  15.508   8.367  0.0685  0.0458  0.0897
 1122POPI    C116505  14.526   2.783   5.495  0.0039 -0.0925 -0.0523
 1122POPI    C216506  14.304   2.472   5.375 -0.0531 -0.0211 -0.1339
 1122POPI    C316507  14.431   2.742   5.108  0.4851 -0.2833 -0.1573
 1122POPI   PO416508  14.738   2.711   5.574  0.1886  0.0491  0.1175
 1122POPI   GL116509  14.810   3.021   5.834 -0.1884 -0.2935 -0.1723
 1122POPI   GL216510  14.565   3.198   5.790 -0.0126 -0.3326  0.0967
 1122POPI   C1A16511  15.047   3.299   6.029 -0.1250 -0.3835  0.2113
 1122POPI   D2A16512  15.207   3.442   6.427  0.0651 -0.1186  0.0549
 1122POPI   C3A16513  14.796   3.340   6.564  0.0693  0.1226  0.1441
 1122POPI   C4A16514  14.570   3.422   6.993 -0.0809  0.0815 -0.1863
 1122POPI   C1B16515  14.474   3.084   6.211 -0.1305  0.0059 -0.0653
 1122POPI   C2B16516  14.348   3.117   6.643 -0.2264 -0.1428  0.0114
 1122POPI   C3B16517  14.165   3.096   7.051 -0.2203 -0.2705 -0.0958
 1122POPI   C4B16518  14.172   2.938   7.362  0.1492  0.3682 -0.0739
 1123POPI    C116519   5.436   0.427   5.062 -0.0819  0.0324  0.0488
 1123POPI    C216520   5.785   0.281   4.932 -0.0104  0.2289  0.0171
 1123POPI    C316521   5.442   0.129   4.794  0.0605 -0.0072  0.0951
 1123POPI   PO416522   5.455   0.378   5.275  0.0965 -0.3771  0.1071
 1123POPI   GL116523   5.741   0.519   5.550 -0.1228 -0.3000  0.4004
 1123POPI   GL216524   6.033   0.556   5.556  0.2292 -0.0766 -0.1342
 1123POPI   C1A16525   5.554   0.580   5.949  0.2195  0.0198 -0.2942
 1123POPI   D2A16526   5.738   0.591   6.366 -0.0692 -0.4075  0.0284
 1123POPI   C3A16527   6.140   0.730   6.474  0.0493 -0.2254  0.0472
 1123POPI   C4A16528   6.536   0.893   6.703  0.0914  0.1233  0.3101
 1123POPI   C1B16529   6.450   0.612   5.862  0.1633 -0.2375  0.0883
 1123POPI   C2B16530   6.570   0.605   6.297 -0.0724 -0.3251 -0.0704
 1123POPI   C3B16531   6.819   0.429   6.644 -0.1248 -0.1988 -0.1697
 1123POPI   C4B16532   6.849   0.400   7.017  0.3757 -0.1943 -0.1016
 1124POPI    C116533  18.081   4.849   5.205 -0.2822 -0.1539 -0.1921
 1124POPI    C216534  18.444   4.684   5.175 -0.2395 -0.1460  0.2164
 1124POPI    C316535  18.222   4.740   4.847  0.1411 -0.1158 -0.0437
 1124POPI   PO416536  18.167   4.921   5.480  0.0123 -0.3438 -0.0875
 1124POPI   GL116537  18.117   5.181   5.848 -0.1100 -0.0518  0.0693
 1124POPI   GL216538  18.399   5.347   5.978  0.2073  0.0148  0.7143
 1124POPI   C1A16539  18.113   5.235   6.319  0.1549  0.0299  0.2603
 1124POPI   D2A16540  18.118   5.450   6.735 -0.1653 -0.0534  0.1402
 1124POPI   C3A16541  18.250   5.554   7.196  0.0181  0.4743 -0.1960
 1124POPI   C4A16542  18.198   5.787   7.573  0.0814  0.3632  0.2004
 1124POPI   C1B16543  18.622   5.324   6.297  0.0706  0.0545 -0.0212
 1124POPI   C2B16544  18.651   5.451   6.756  0.0481  0.1140  0.1255
 1124POPI   C3B16545  18.728   5.518   7.078 -0.3700  0.0172 -0.1208
 1124POPI   C4B16546  18.688   5.717   7.519 -0.2010  0.0526  0.0338
 1125POPI    C116547  11.796  13.967   5.604  0.2946 -0.1674  0.0705
 1125POPI    C216548  11.877  14.309   5.413  0.0621 -0.1106  0.0704
 1125POPI    C316549  12.122  13.995   5.374  0.0538 -0.0786 -0.2677
 1125POPI   PO416550  11.651  14.179   5.872 -0.1730  0.0016  0.1862
 1125POPI   GL116551  11.492  14.062   6.306 -0.0228 -0.0352  0.0412
 1125POPI   GL216552  11.712  13.883   6.286  0.3015  0.1090 -0.1479
 1125POPI   C1A16553  11.528  14.217   6.729 -0.1489 -0.1888  0.1590
 1125POPI   D2A16554  11.434  14.324   7.182 -0.1539 -0.1146 -0.1158
 1125POPI   C3A16555  11.597  14.456   7.514  0.2299 -0.2318 -0.2789
 1125POPI   C4A16556  11.641  14.330   8.002 -0.0738  0.1249 -0.2479
 1125POPI   C1B16557  11.854  13.847   6.790 -0.1381 -0.0821 -0.1301
 1125POPI   C2B16558  11.922  13.862   7.329  0.2302 -0.1052  0.3634
 1125POPI   C3B16559  11.797  13.892   7.782 -0.0108  0.0858 -0.0603
 1125POPI   C4B16560  12.061  14.065   8.111  0.0193 -0.3006 -0.1090
 1126POPI    C116561  14.246  15.794   6.011 -0.3459  0.0961  0.1431
 1126POPI    C216562  14.135  15.864   5.633 -0.0831 -0.0401  0.0381
 1126POPI    C316563  14.453  15.633   5.708  0.0916  0.2863  0.3322
 1126POPI   PO416564  13.991  15.757   6.173  0.0478 -0.0106  0.2940
 1126POPI   GL116565  14.066  15.455   6.542 -0.0901 -0.1999  0.1669
 1126POPI   GL216566  14.350  15.670   6.540 -0.1100  0.0169  0.1000
 1126POPI   C1A16567  14.330  15.469   6.983  0.1417 -0.3453 -0.1117
 1126POPI   D2A16568  14.386  15.269   7.345  0.0758  0.2244 -0.0230
 1126POPI   C3A16569  14.585  15.236   7.615  0.1697  0.0046 -0.1456
 1126POPI   C4A16570  15.004  15.226   7.732  0.0514  0.1550 -0.1504
 1126POPI   C1B16571  14.414  15.935   6.869  0.1417 -0.0674 -0.1370
 1126POPI   C2B16572  14.344  15.954   7.227 -0.1771 -0.2952 -0.0187
 1126POPI   C3B16573  14.350  15.758   7.592 -0.3286  0.2820  0.0518
 1126POPI   C4B16574  14.405  15.861   7.935  0.0538  0.0868 -0.0420
 1127POPI    C116575   5.708  16.373   5.526  0.0721  0.1812 -0.0071
 1127POPI    C216576   5.963  16.626   5.350  0.1664  0.0622 -0.0433
 1127POPI    C316577   5.607  16.550   5.182  0.1102  0.2209  0.0021
 1127POPI   PO416578   5.749  16.412   5.772 -0.1541 -0.0338 -0.1182
 1127POPI   GL116579   5.773  16.600   6.170 -0.3267 -0.0390  0.0779
 1127POPI   GL216580   5.599  16.796   6.116 -0.0592 -0.0714 -0.1285
 1127POPI   C1A16581   6.089  16.470   6.472  0.0272  0.1038 -0.0307
 1127POPI   D2A16582   6.230  16.447   7.013 -0.0973  0.3524  0.0950
 1127POPI   C3A16583   6.518  16.692   7.159  0.0607  0.2084  0.1573
 1127POPI   C4A16584   6.486  16.938   7.477 -0.1023 -0.1029 -0.0970
 1127POPI   C1B16585   5.405  16.772   6.473  0.1465 -0.1202  0.5030
 1127POPI   C2B16586   5.054  16.839   6.750  0.2442 -0.0923 -0.2577
 1127POPI   C3B16587   4.739  16.709   6.940  0.0047 -0.2584  0.2512
 1127POPI   C4B16588   4.794  16.194   6.843 -0.1003  0.1513  0.0540
 1128POPI    C116589  18.138   8.766   5.266  0.1748  0.0338  0.0120
 1128POPI    C216590  18.416   8.662   4.998 -0.0524  0.0320 -0.2271
 1128POPI    C316591  18.060   8.796   4.875 -0.1184  0.1437  0.0764
 1128POPI   PO416592  18.162   8.603   5.482 -0.0492 -0.0633 -0.0336
 1128POPI   GL116593  18.152   8.275   5.768  0.1798  0.0486  0.0806
 1128POPI   GL216594  18.496   8.327   5.830  0.1312 -0.0755 -0.4069
 1128POPI   C1A16595  18.207   8.273   6.220  0.0365 -0.2021 -0.4491
 1128POPI   D2A16596  18.383   8.310   6.588 -0.2116  0.4740 -0.1078
 1128POPI   C3A16597  18.186   8.067   7.066 -0.3296  0.0981  0.1545
 1128POPI   C4A16598  18.145   7.912   7.473 -0.0635  0.1637  0.2678
 1128POPI   C1B16599  18.692   8.015   6.107 -0.0350  0.1948 -0.1522
 1128POPI   C2B16600  18.736   7.953   6.548  0.0019 -0.3025 -0.0538
 1128POPI   C3B16601  18.717   8.043   6.944  0.0325  0.0366  0.0784
 1128POPI   C4B16602  18.789   7.967   7.282  0.2995  0.0777  0.0091
 1129POPI    C116603   6.715  12.853   5.082 -0.4716  0.0487  0.0516
 1129POPI    C216604   6.884  12.997   4.749  0.0896  0.2367  0.4032
 1129POPI    C316605   6.739  12.624   4.755  0.0901  0.2244 -0.0421
 1129POPI   PO416606   6.572  13.066   5.144 -0.1948 -0.2931 -0.0232
 1129POPI   GL116607   6.476  13.187   5.607  0.1725 -0.0903 -0.0538
 1129POPI   GL216608   6.407  13.353   5.829  0.0354  0.0479  0.1321
 1129POPI   C1A16609   6.617  12.909   5.959 -0.2441  0.2459 -0.0955
 1129POPI   D2A16610   6.779  12.693   6.319 -0.2405 -0.0943  0.1811
 1129POPI   C3A16611   6.731  12.738   6.743 -0.2328 -0.4276 -0.0554
 1129POPI   C4A16612   6.835  12.997   6.975 -0.3080  0.1266  0.0043
 1129POPI   C1B16613   6.352  13.225   6.249 -0.1213 -0.0290 -0.0806
 1129POPI   C2B16614   6.466  13.253   6.639 -0.0480  0.2724 -0.1072
 1129POPI   C3B16615   6.396  13.283   6.987 -0.2975 -0.1686 -0.1756
 1129POPI   C4B16616   6.492  13.276   7.307 -0.1006 -0.1423 -0.1084
 1130POPI    C116617  13.371  16.150   6.459  0.0934 -0.0007 -0.0954
 1130POPI    C216618  13.690  16.184   6.219  0.0725  0.0419 -0.1175
 1130POPI    C316619  13.706  16.321   6.595  0.1793 -0.2228 -0.0231
 1130POPI   PO416620  13.350  15.948   6.459  0.0766  0.4110 -0.1736
 1130POPI   GL116621  13.258  15.733   6.827 -0.3225 -0.0164  0.0970
 1130POPI   GL216622  13.117  15.539   7.054 -0.1426  0.4604 -0.1150
 1130POPI   C1A16623  13.360  15.998   7.193 -0.1378  0.3578 -0.3168
 1130POPI   D2A16624  13.314  16.056   7.611 -0.0150  0.0739  0.3076
 1130POPI   C3A16625  12.934  16.290   7.659 -0.2307 -0.0515  0.1334
 1130POPI   C4A16626  12.951  16.614   7.983 -0.0220  0.3310 -0.3778
 1130POPI   C1B16627  13.256  15.576   7.454 -0.0840 -0.2855 -0.0950
 1130POPI   C2B16628  13.395  15.616   7.874 -0.0206  0.0186  0.1237
 1130POPI   C3B16629  13.430  15.729   8.220  0.4640  0.0937  0.2044
 1130POPI   C4B16630  13.766  15.636   8.465  0.0936 -0.1425  0.1609
 1131POPI    C116631   3.326  17.874   5.184 -0.1921 -0.2422 -0.0010
 1131POPI    C216632   3.717  17.921   5.258 -0.2450 -0.0177  0.1471
 1131POPI    C316633   3.551  18.096   4.939 -0.2422 -0.0406  0.1331
 1131POPI   PO416634   3.233  17.911   5.414 -0.1946 -0.1290 -0.1511
 1131POPI   GL116635   3.134  18.040   5.718  0.0178 -0.0233 -0.0800
 1131POPI   GL216636   3.095  18.239   5.830 -0.1364 -0.1709 -0.4239
 1131POPI   C1A16637   3.161  17.850   6.119 -0.1577 -0.1601 -0.0708
 1131POPI   D2A16638   3.366  17.919   6.408 -0.0201 -0.0335  0.1991
 1131POPI   C3A16639   3.691  18.192   6.452 -0.1611 -0.2014 -0.2422
 1131POPI   C4A16640   3.908  18.191   6.713 -0.0745  0.2320  0.0930
 1131POPI   C1B16641   3.066  18.364   6.267 -0.2579  0.2178  0.2337
 1131POPI   C2B16642   3.226  18.322   6.720  0.0366  0.1645  0.0266
 1131POPI   C3B16643   3.514  18.366   7.059 -0.2537  0.0456 -0.2448
 1131POPI   C4B16644   3.929  18.369   7.228 -0.1910  0.1172 -0.0727
 1132POPI    C116645  11.857  12.840   5.755 -0.0955  0.0570 -0.0373
 1132POPI    C216646  11.982  13.146   5.530 -0.1584 -0.0778 -0.2579
 1132POPI    C316647  11.824  12.821   5.357 -0.0391 -0.2603 -0.0297
 1132POPI   PO416648  11.667  12.953   5.919 -0.0535 -0.2116 -0.2254
 1132POPI   GL116649  11.685  13.149   6.365 -0.6458 -0.0349 -0.0411
 1132POPI   GL216650  11.798  13.425   6.484  0.3406  0.0491 -0.0922
 1132POPI   C1A16651  11.954  13.012   6.730 -0.0364 -0.0742  0.0421
 1132POPI   D2A16652  12.203  12.931   7.139  0.0530 -0.2102 -0.1206
 1132POPI   C3A16653  12.014  13.024   7.556  0.0169 -0.2949  0.0872
 1132POPI   C4A16654  11.909  13.465   7.656 -0.2704  0.1252  0.2170
 1132POPI   C1B16655  11.718  13.410   6.984 -0.1519 -0.1785 -0.0460
 1132POPI   C2B16656  11.639  13.260   7.275  0.0280  0.1273  0.0517
 1132POPI   C3B16657  11.438  13.501   7.566  0.0834 -0.2414  0.1984
 1132POPI   C4B16658  11.353  13.623   7.945 -0.1728  0.1360  0.1424
 1133POPI    C116659  17.952  12.435   5.953  0.0854  0.0157  0.2060
 1133POPI    C216660  18.123  12.176   6.205 -0.1073 -0.2722  0.0476
 1133POPI    C316661  18.224  12.174   5.818  0.1245  0.1100  0.1003
 1133POPI   PO416662  17.677  12.457   6.054 -0.2161  0.3773 -0.1158
 1133POPI   GL116663  17.524  12.832   6.396 -0.0061  0.3208 -0.0445
 1133POPI   GL216664  17.259  12.899   6.478 -0.0146 -0.1347  0.2810
 1133POPI   C1A16665  17.739  12.895   6.741  0.1163 -0.2678  0.0015
 1133POPI   D2A16666  17.565  12.720   7.075  0.0270 -0.0990  0.1313
 1133POPI   C3A16667  17.432  12.981   7.465  0.2082 -0.3146  0.0763
 1133POPI   C4A16668  17.411  13.066   7.855 -0.0759 -0.3564  0.3032
 1133POPI   C1B16669  17.226  12.971   6.795  0.1436 -0.0177  0.0088
 1133POPI   C2B16670  16.987  13.113   7.116 -0.1627 -0.0886 -0.2929
 1133POPI   C3B16671  16.867  13.054   7.514  0.0868 -0.1936  0.2115
 1133POPI   C4B16672  16.483  12.996   7.802  0.1334  0.3620 -0.0432
 1134POPI    C116673   4.060  11.952   5.607 -0.0784 -0.1070 -0.0906
 1134POPI    C216674   3.931  11.609   5.447 -0.0759 -0.1470 -0.0077
 1134POPI    C316675   4.189  11.602   5.752 -0.1484 -0.0729  0.0557
 1134POPI   PO416676   3.905  12.116   5.658 -0.4882 -0.0500  0.2797
 1134POPI   GL116677   3.647  12.301   5.735 -0.2291 -0.1501 -0.0089
 1134POPI   GL216678   3.444  12.568   5.860 -0.3870  0.2165 -0.0986
 1134POPI   C1A16679   3.719  12.392   6.229  0.0246 -0.2456 -0.0057
 1134POPI   D2A16680   3.885  12.783   6.304  0.2398 -0.2431 -0.1416
 1134POPI   C3A16681   4.092  12.776   6.657 -0.0433 -0.3828 -0.1438
 1134POPI   C4A16682   4.406  12.708   6.985  0.0617  0.0415  0.1418
 1134POPI   C1B16683   3.337  12.696   6.272  0.0610 -0.3677  0.0019
 1134POPI   C2B16684   3.483  12.675   6.633  0.2894  0.0672  0.1530
 1134POPI   C3B16685   3.484  12.778   6.996 -0.1641 -0.2858 -0.0980
 1134POPI   C4B16686   3.860  12.797   7.083 -0.0928  0.3533 -0.2486
 1135POPI    C116687   6.591   8.112   6.006 -0.1729  0.1498  0.1070
 1135POPI    C216688   6.398   8.390   5.793  0.0172  0.2337  0.0424
 1135POPI    C316689   6.795   8.410   5.835  0.0477 -0.0922 -0.0607
 1135POPI   PO416690   6.397   7.884   5.911 -0.0229 -0.0723 -0.0152
 1135POPI   GL116691   6.271   7.748   6.235  0.0048  0.1316  0.2282
 1135POPI   GL216692   6.004   7.716   6.331 -0.2325  0.0449  0.1791
 1135POPI   C1A16693   6.639   7.908   6.483  0.0054  0.0306  0.2377
 1135POPI   D2A16694   7.016   7.722   6.707  0.2863  0.0188 -0.3239
 1135POPI   C3A16695   7.173   7.920   6.934 -0.1787  0.2354 -0.0357
 1135POPI   C4A16696   7.373   7.797   7.350  0.0456 -0.2217  0.2156
 1135POPI   C1B16697   6.102   7.511   6.654  0.1140 -0.0358  0.1753
 1135POPI   C2B16698   6.000   7.397   7.124  0.0085  0.1363 -0.2529
 1135POPI   C3B16699   5.992   7.591   7.505 -0.0783  0.0241 -0.0777
 1135POPI   C4B16700   5.832   7.539   7.946  0.0942 -0.0285 -0.0620
 1136POPI    C116701  13.879   0.418   5.115  0.2554 -0.0740 -0.0391
 1136POPI    C216702  13.824   0.055   4.956  0.0020  0.0065 -0.1409
 1136POPI    C316703  14.083   0.309   4.789  0.2116 -0.1406 -0.0446
 1136POPI   PO416704  13.826   0.342   5.359  0.2214  0.1106 -0.0030
 1136POPI   GL116705  13.900   0.505   5.800  0.2780 -0.1187  0.1166
 1136POPI   GL216706  13.977   0.758   5.964 -0.3090  0.0259  0.0954
 1136POPI   C1A16707  14.145   0.302   6.185  0.4408 -0.0160  0.2407
 1136POPI   D2A16708  14.484   0.256   6.469 -0.1980 -0.1500 -0.1836
 1136POPI   C3A16709  14.657   0.398   6.782  0.0808 -0.0114  0.1240
 1136POPI   C4A16710  14.709   0.404   7.246  0.1729 -0.3091  0.0155
 1136POPI   C1B16711  13.853   0.684   6.366  0.1193  0.0570 -0.1066
 1136POPI   C2B16712  13.617   0.713   6.662  0.0188 -0.1205  0.0367
 1136POPI   C3B16713  13.564   0.930   7.074 -0.0501 -0.0180 -0.1642
 1136POPI   C4B16714  13.463   0.821   7.555  0.2592 -0.1533  0.1006
 1137POPI    C116715  12.112  13.595   5.680 -0.0365 -0.0865  0.0514
 1137POPI    C216716  12.451  13.382   5.675 -0.0406 -0.0915 -0.0118
 1137POPI    C316717  12.294  13.517   5.332 -0.2106 -0.2610 -0.0021
 1137POPI   PO416718  12.168  13.694   5.916 -0.0164 -0.0125 -0.1760
 1137POPI   GL116719  12.225  13.649   6.299 -0.0551  0.0101  0.0594
 1137POPI   GL216720  12.411  13.898   6.444 -0.0062  0.0959  0.0684
 1137POPI   C1A16721  12.204  13.423   6.755 -0.1250  0.4090  0.2798
 1137POPI   D2A16722  12.199  13.442   7.187  0.2122  0.0863  0.1879
 1137POPI   C3A16723  12.406  13.364   7.523 -0.0598 -0.0049  0.2138
 1137POPI   C4A16724  12.696  13.455   7.914 -0.1167 -0.0759 -0.1161
 1137POPI   C1B16725  12.321  13.875   6.857 -0.1545  0.0352  0.2363
 1137POPI   C2B16726  12.392  14.083   7.161  0.1852 -0.2174  0.1097
 1137POPI   C3B16727  12.511  14.027   7.584  0.1397 -0.3883 -0.2630
 1137POPI   C4B16728  12.311  13.765   7.755  0.2305 -0.1777  0.3883
 1138POPI    C116729   9.318   1.445   4.833  0.0059 -0.2432 -0.1202
 1138POPI    C216730   9.240   1.827   4.744  0.0349 -0.1520  0.2305
 1138POPI    C316731   9.251   1.552   4.453  0.0790  0.1232 -0.0334
 1138POPI   PO416732   9.358   1.543   5.126 -0.1056 -0.4330 -0.1273
 1138POPI   GL116733   9.202   1.351   5.444  0.0423  0.0605  0.2429
 1138POPI   GL216734   9.040   1.717   5.477  0.3648 -0.1928  0.2163
 1138POPI   C1A16735   9.225   1.332   5.827  0.0146 -0.3797 -0.4610
 1138POPI   D2A16736   9.468   1.160   6.217  0.0329  0.1087 -0.0184
 1138POPI   C3A16737   9.257   1.282   6.546 -0.1869 -0.0055 -0.1727
 1138POPI   C4A16738   9.269   1.463   7.042  0.0779 -0.1651 -0.3110
 1138POPI   C1B16739   9.205   1.872   5.894 -0.2798  0.0979 -0.0681
 1138POPI   C2B16740   9.246   1.920   6.397  0.1198  0.3168 -0.1487
 1138POPI   C3B16741   9.273   1.964   6.886 -0.3400  0.2345 -0.1346
 1138POPI   C4B16742   9.206   1.875   7.297 -0.2045  0.2989  0.1569
 1139POPI    C116743  16.792  11.352   5.637  0.1117 -0.0358  0.0934
 1139POPI    C216744  17.035  11.527   5.373  0.0356 -0.1367 -0.0448
 1139POPI    C316745  16.644  11.499   5.296 -0.0092 -0.0404  0.1435
 1139POPI   PO416746  16.889  11.387   5.844 -0.1902 -0.0665 -0.2444
 1139POPI   GL116747  17.139  11.453   6.141  0.0119  0.1504  0.0616
 1139POPI   GL216748  16.983  11.175   6.272  0.1194  0.2149 -0.0263
 1139POPI   C1A16749  17.219  11.365   6.645  0.0082  0.1500  0.0057
 1139POPI   D2A16750  17.148  11.323   7.007 -0.1725 -0.0163 -0.2740
 1139POPI   C3A16751  17.000  11.079   7.368  0.1417 -0.0259 -0.1962
 1139POPI   C4A16752  16.868  11.191   7.791 -0.0261 -0.3353 -0.1115
 1139POPI   C1B16753  16.720  11.109   6.643  0.0515  0.2016 -0.0877
 1139POPI   C2B16754  16.597  11.028   7.086 -0.0492 -0.2845 -0.0763
 1139POPI   C3B16755  16.403  10.941   7.418 -0.3341 -0.0768  0.0197
 1139POPI   C4B16756  16.011  11.047   7.535 -0.2665 -0.0467  0.0612
 1140POPI    C116757   2.892   4.682   5.389  0.0492 -0.0011 -0.0553
 1140POPI    C216758   2.513   4.624   5.275  0.0602  0.1087 -0.1487
 1140POPI    C316759   2.757   4.848   5.051  0.1147  0.2311  0.0310
 1140POPI   PO416760   2.826   4.681   5.728 -0.1324 -0.1651  0.1255
 1140POPI   GL116761   3.173   4.725   6.078  0.2358 -0.1322  0.1488
 1140POPI   GL216762   3.317   5.084   6.175  0.1505  0.0147  0.0806
 1140POPI   C1A16763   2.917   4.834   6.394  0.1422  0.0090  0.2195
 1140POPI   D2A16764   2.573   4.879   6.603  0.0383  0.0172 -0.2102
 1140POPI   C3A16765   2.580   4.929   6.957 -0.0432  0.1160  0.1134
 1140POPI   C4A16766   2.728   4.912   7.348  0.0592  0.0529 -0.1457
 1140POPI   C1B16767   3.392   4.750   6.584 -0.1733 -0.1680 -0.0148
 1140POPI   C2B16768   3.547   4.671   7.061 -0.0364  0.1474 -0.0706
 1140POPI   C3B16769   3.635   4.775   7.487  0.0924 -0.2180  0.2102
 1140POPI   C4B16770   3.515   4.819   7.960 -0.2606 -0.1904  0.2181
 1141POPI    C116771  16.382  16.006   5.722 -0.0850  0.0424  0.0844
 1141POPI    C216772  16.508  16.365   5.597  0.0351 -0.0639 -0.1032
 1141POPI    C316773  16.768  16.105   5.757 -0.0836 -0.0014  0.1979
 1141POPI   PO416774  16.220  16.084   5.954 -0.2326 -0.1970 -0.2935
 1141POPI   GL116775  16.184  16.230   6.314 -0.1473 -0.0274  0.2143
 1141POPI   GL216776  15.930  16.074   6.554  0.0908  0.0643  0.0324
 1141POPI   C1A16777  16.508  16.356   6.609 -0.0631  0.0931  0.2040
 1141POPI   D2A16778  16.602  16.607   6.955 -0.1043 -0.1634 -0.0899
 1141POPI   C3A16779  16.399  16.700   7.291  0.0707 -0.4075 -0.1209
 1141POPI   C4A16780  16.187  16.463   7.627  0.1994  0.1739  0.1662
 1141POPI   C1B16781  16.176  16.021   6.834  0.0528 -0.1595  0.1418
 1141POPI   C2B16782  16.222  16.137   7.245  0.1499  0.1454  0.0603
 1141POPI   C3B16783  16.187  15.901   7.666  0.0967 -0.1673 -0.0616
 1141POPI   C4B16784  16.108  16.137   8.042  0.1000 -0.0225  0.2021
 1142POPI    C116785   5.767  13.588   5.272 -0.0614 -0.1587 -0.0646
 1142POPI    C216786   6.000  13.858   5.091  0.0158 -0.1729  0.0132
 1142POPI    C316787   5.717  13.667   4.883 -0.1820  0.1218  0.0052
 1142POPI   PO416788   5.896  13.510   5.467  0.2044 -0.1988  0.1213
 1142POPI   GL116789   5.999  13.657   5.914 -0.1580  0.0286 -0.1240
 1142POPI   GL216790   6.226  13.817   6.034  0.0662 -0.0715 -0.0447
 1142POPI   C1A16791   5.930  13.497   6.293 -0.0049 -0.0020 -0.0924
 1142POPI   D2A16792   6.034  13.732   6.646 -0.1339  0.0826  0.0400
 1142POPI   C3A16793   6.043  13.631   7.099  0.0570  0.2201  0.0603
 1142POPI   C4A16794   6.165  13.644   7.532 -0.0572  0.0967  0.1406
 1142POPI   C1B16795   5.962  14.034   6.245 -0.0891 -0.0792  0.1131
 1142POPI   C2B16796   5.756  14.188   6.653  0.1318  0.0162 -0.0681
 1142POPI   C3B16797   5.673  14.265   6.989 -0.1451  0.0930  0.2184
 1142POPI   C4B16798   5.587  14.315   7.421  0.0254 -0.0599 -0.0183
 1143POPI    C116799  15.623  11.928   5.608 -0.0458 -0.1002  0.0463
 1143POPI    C216800  15.896  12.019   5.330 -0.0163  0.0062  0.1097
 1143POPI    C316801  15.511  11.984   5.228  0.0209 -0.1508  0.0189
 1143POPI   PO416802  15.627  12.102   5.850 -0.0136 -0.1137 -0.0509
 1143POPI   GL116803  15.411  12.264   6.240  0.0259 -0.2405  0.1024
 1143POPI   GL216804  15.115  12.401   6.304  0.1217  0.0641  0.0368
 1143POPI   C1A16805  15.372  12.134   6.646 -0.0758  0.0691 -0.2685
 1143POPI   D2A16806  15.220  11.854   6.944  0.0387  0.0035 -0.1867
 1143POPI   C3A16807  15.340  11.840   7.430 -0.0515  0.2031 -0.0152
 1143POPI   C4A16808  15.438  11.656   7.862 -0.0399 -0.0278 -0.3519
 1143POPI   C1B16809  14.911  12.309   6.623  0.0258 -0.0047 -0.2189
 1143POPI   C2B16810  14.869  12.182   7.050 -0.0662 -0.1039 -0.2567
 1143POPI   C3B16811  15.089  12.296   7.445  0.4119  0.2386  0.2513
 1143POPI   C4B16812  15.292  12.284   7.820  0.1366  0.0363 -0.0114
 1144POPI    C116813   8.283   4.221   4.810  0.1154  0.2224 -0.0921
 1144POPI    C216814   8.274   3.873   5.006 -0.3172  0.2528 -0.0476
 1144POPI    C316815   8.174   3.887   4.619 -0.1444  0.3037 -0.0911
 1144POPI   PO416816   8.179   4.353   4.963 -0.2247  0.2133 -0.2469
 1144POPI   GL116817   8.247   4.215   5.415  0.1030 -0.3788 -0.0273
 1144POPI   GL216818   8.208   3.868   5.520 -0.2049  0.0738  0.0727
 1144POPI   C1A16819   8.353   4.510   5.683 -0.3625  0.3713 -0.1186
 1144POPI   D2A16820   8.386   4.756   6.087 -0.2136  0.1790  0.0241
 1144POPI   C3A16821   8.484   4.936   6.588  0.1068 -0.1041 -0.1701
 1144POPI   C4A16822   8.800   4.825   6.838 -0.0246 -0.2068 -0.3819
 1144POPI   C1B16823   7.992   3.783   6.028 -0.1129  0.2388 -0.0810
 1144POPI   C2B16824   7.635   3.700   6.374 -0.0850 -0.1967 -0.0065
 1144POPI   C3B16825   7.366   3.700   6.750 -0.0951 -0.1975 -0.3430
 1144POPI   C4B16826   7.073   3.609   7.011  0.1408  0.2864 -0.0211
 1145POPI    C116827   4.491   0.090   5.226  0.0978  0.0524 -0.0761
 1145POPI    C216828   4.159   0.102   5.003 -0.0028  0.1409  0.0766
 1145POPI    C316829   4.232  -0.215   5.236  0.1162  0.0360 -0.1010
 1145POPI   PO416830   4.502   0.418   5.332 -0.1706  0.2549  0.0188
 1145POPI   GL116831   4.614   0.584   5.783  0.2478 -0.1407 -0.0829
 1145POPI   GL216832   4.720   0.907   5.877  0.2893  0.1163 -0.1032
 1145POPI   C1A16833   4.561   0.608   6.248  0.0034 -0.0978 -0.1518
 1145POPI   D2A16834   4.695   0.649   6.680 -0.1125  0.1634 -0.1983
 1145POPI   C3A16835   4.680   0.454   7.057 -0.1579 -0.1475 -0.1966
 1145POPI   C4A16836   5.046   0.448   7.421  0.3361  0.2201 -0.1379
 1145POPI   C1B16837   4.830   1.026   6.250  0.3415 -0.2142  0.0725
 1145POPI   C2B16838   4.827   1.172   6.691 -0.0682 -0.1921  0.0787
 1145POPI   C3B16839   4.735   0.978   7.088  0.2266  0.1578 -0.2059
 1145POPI   C4B16840   4.867   0.931   7.493  0.0496 -0.2072 -0.0641
 1146POPI    C116841   2.340   6.266   5.571 -0.0103  0.0548 -0.0762
 1146POPI    C216842   2.525   5.930   5.455  0.0508  0.0962 -0.0993
 1146POPI    C316843   2.189   5.909   5.671  0.0589  0.0203 -0.0938
 1146POPI   PO416844   2.563   6.433   5.647  0.0229 -0.0688  0.1548
 1146POPI   GL116845   2.883   6.628   5.867  0.0007  0.2005 -0.0284
 1146POPI   GL216846   3.163   6.843   5.789  0.1336  0.4544 -0.0409
 1146POPI   C1A16847   2.997   6.438   6.273 -0.2252  0.2684  0.0548
 1146POPI   D2A16848   3.006   6.302   6.718 -0.0911  0.0484 -0.0505
 1146POPI   C3A16849   3.058   6.502   6.954 -0.2050  0.0389  0.0167
 1146POPI   C4A16850   2.857   6.698   7.233  0.1524 -0.1394  0.5844
 1146POPI   C1B16851   3.119   6.953   6.199  0.0563  0.0757 -0.1704
 1146POPI   C2B16852   3.113   6.837   6.613 -0.1381 -0.0035 -0.0753
 1146POPI   C3B16853   3.184   6.979   6.995  0.1554 -0.0786  0.0476
 1146POPI   C4B16854   3.338   6.715   7.346 -0.0654 -0.1391  0.1387
 1147DPPI    C116855   5.901  10.846   6.156  0.1158  0.1924 -0.0205
 1147DPPI    C216856   5.713  10.662   5.855  0.2583  0.0260 -0.0098
 1147DPPI    C316857   5.594  11.025   5.973 -0.0002 -0.0409 -0.0582
 1147DPPI   PO416858   6.147  10.895   6.053 -0.0599 -0.0726  0.0136
 1147DPPI   GL116859   6.451  10.761   6.364 -0.4551  0.1369 -0.0182
 1147DPPI   GL216860   6.196  10.609   6.512 -0.1174 -0.0093 -0.0387
 1147DPPI   C1A16861   6.581  11.014   6.732  0.3638  0.0160  0.0158
 1147DPPI   C2A16862   6.671  10.880   7.184  0.0081 -0.1723  0.0664
 1147DPPI   C3A16863   6.853  10.627   7.557  0.0316  0.0274 -0.0366
 1147DPPI   C4A16864   7.021  10.271   7.793  0.0095  0.0160 -0.0351
 1147DPPI   C1B16865   6.286  10.513   6.924 -0.1072  0.1806  0.2208
 1147DPPI   C2B16866   6.264  10.526   7.263  0.0390  0.1640 -0.0898
 1147DPPI   C3B16867   5.948  10.575   7.620 -0.1856 -0.3160 -0.0281
 1147DPPI   C4B16868   6.079  10.762   8.037 -0.0360 -0.1334  0.0690
 1148DPPI    C116869   1.827  16.896   6.024  0.0174  0.1688  0.0206
 1148DPPI    C216870   1.810  17.005   5.639 -0.0812 -0.0475 -0.0379
 1148DPPI    C316871   2.073  16.727   5.757  0.0325  0.1054  0.0742
 1148DPPI   PO416872   1.537  16.956   6.069 -0.1904  0.1276 -0.0951
 1148DPPI   GL116873   1.441  17.050   6.492 -0.1753 -0.3727 -0.1601
 1148DPPI   GL216874   1.806  16.924   6.506 -0.0456  0.0997  0.3579
 1148DPPI   C1A16875   1.458  17.087   6.907 -0.2049  0.2028 -0.1564
 1148DPPI   C2A16876   1.733  17.186   7.163  0.2859  0.1354  0.2771
 1148DPPI   C3A16877   1.985  17.333   7.476  0.0371  0.0680 -0.1136
 1148DPPI   C4A16878   1.953  17.615   7.825  0.0028  0.0735  0.1518
 1148DPPI   C1B16879   1.964  16.811   6.878  0.0291  0.0280 -0.2389
 1148DPPI   C2B16880   2.204  16.839   7.152 -0.2855  0.1123 -0.0674
 1148DPPI   C3B16881   2.146  16.850   7.613  0.0151  0.2288 -0.0645
 1148DPPI   C4B16882   2.329  16.790   8.032 -0.0151 -0.2032 -0.0852
 1149DPPI    C116883  15.143  13.617   5.708  0.0322  0.1633  0.1930
 1149DPPI    C216884  15.380  13.409   5.463 -0.1355 -0.0117  0.1765
 1149DPPI    C316885  15.297  13.792   5.384 -0.0425 -0.0152  0.0594
 1149DPPI   PO416886  15.009  13.447   5.986 -0.1104 -0.2228 -0.1021
 1149DPPI   GL116887  14.905  13.121   6.255  0.0710 -0.1692  0.0378
 1149DPPI   GL216888  15.172  12.930   6.200 -0.2065 -0.0591 -0.0986
 1149DPPI   C1A16889  15.033  12.806   6.645  0.0753 -0.0418 -0.1818
 1149DPPI   C2A16890  15.218  12.689   7.096  0.2187  0.3324 -0.0277
 1149DPPI   C3A16891  15.247  13.155   7.385  0.1530  0.2618  0.1613
 1149DPPI   C4A16892  15.087  13.570   7.291 -0.0232  0.0142  0.2382
 1149DPPI   C1B16893  15.368  13.228   6.534 -0.2257 -0.0413 -0.3450
 1149DPPI   C2B16894  15.491  13.065   6.923  0.0331  0.3048  0.1177
 1149DPPI   C3B16895  15.748  13.027   7.348  0.0442 -0.2240  0.2775
 1149DPPI   C4B16896  15.991  13.077   7.747 -0.0691  0.0414 -0.0133
 1150DPPI    C116897  13.363  13.363   5.586 -0.2338 -0.0066 -0.0976
 1150DPPI    C216898  13.675  13.448   5.350 -0.1680  0.1045  0.0279
 1150DPPI    C316899  13.450  13.744   5.499 -0.1944  0.0366  0.1240
 1150DPPI   PO416900  13.407  13.214   5.822  0.1891  0.0763 -0.1349
 1150DPPI   GL116901  13.495  13.364   6.288 -0.1687  0.2355  0.0398
 1150DPPI   GL216902  13.129  13.445   6.281 -0.0701 -0.1981  0.0231
 1150DPPI   C1A16903  13.571  13.165   6.718  0.3391 -0.1226  0.0694
 1150DPPI   C2A16904  13.686  13.011   7.086 -0.0057  0.0023 -0.0047
 1150DPPI   C3A16905  13.786  12.808   7.475 -0.1585  0.0144  0.1207
 1150DPPI   C4A16906  13.774  12.473   7.868 -0.1775  0.2236 -0.0183
 1150DPPI   C1B16907  13.056  13.192   6.650  0.1314 -0.1742 -0.0170
 1150DPPI   C2B16908  13.170  13.121   7.069  0.2112 -0.2119 -0.1355
 1150DPPI   C3B16909  13.208  12.884   7.462  0.0750  0.3069 -0.0528
 1150DPPI   C4B16910  13.497  12.920   7.830  0.0914 -0.0636 -0.0620
 1151DPPI    C116911  17.489   3.649   5.399  0.1405  0.0615 -0.1057
 1151DPPI    C216912  17.588   3.319   5.196  0.1279 -0.0258  0.0284
 1151DPPI    C316913  17.294   3.555   5.063 -0.0498 -0.2163  0.0783
 1151DPPI   PO416914  17.390   3.629   5.611 -0.1369 -0.2150  0.4262
 1151DPPI   GL116915  17.392   3.740   5.998 -0.0487 -0.3230  0.0062
 1151DPPI   GL216916  17.587   3.460   6.046 -0.0194 -0.0369  0.1011
 1151DPPI   C1A16917  17.221   4.075   6.229  0.2853  0.1377 -0.3574
 1151DPPI   C2A16918  16.995   4.278   6.497  0.0513 -0.1053 -0.2079
 1151DPPI   C3A16919  16.981   4.563   6.896  0.1736 -0.0750  0.0294
 1151DPPI   C4A16920  16.960   4.814   7.308  0.2812  0.0660  0.0810
 1151DPPI   C1B16921  17.635   3.466   6.405  0.2141  0.0912 -0.0775
 1151DPPI   C2B16922  17.567   3.560   6.853 -0.0562  0.0492  0.0777
 1151DPPI   C3B16923  17.390   3.673   7.188 -0.1047  0.1630 -0.1465
 1151DPPI   C4B16924  17.319   4.030   7.339 -0.0115  0.3009  0.3408
 1152DPPI    C116925   8.103  10.931   5.732  0.1443  0.0793 -0.0742
 1152DPPI    C216926   8.430  10.791   5.550  0.3301  0.1953  0.1646
 1152DPPI    C316927   8.286  11.151   5.453  0.1196  0.0378 -0.1234
 1152DPPI   PO416928   8.073  10.929   5.945 -0.3043  0.1271 -0.0659
 1152DPPI   GL116929   7.967  11.194   6.267  0.0513 -0.1076 -0.0273
 1152DPPI   GL216930   7.940  10.931   6.436  0.0497  0.3589 -0.1463
 1152DPPI   C1A16931   8.270  11.126   6.683 -0.1359  0.1335 -0.0457
 1152DPPI   C2A16932   8.264  10.877   7.001 -0.2399 -0.0433 -0.1636
 1152DPPI   C3A16933   8.245  10.890   7.515 -0.0143 -0.4106  0.1276
 1152DPPI   C4A16934   8.515  10.749   7.894  0.1361  0.1350 -0.0628
 1152DPPI   C1B16935   7.801  11.127   6.792  0.0937 -0.1957 -0.0493
 1152DPPI   C2B16936   7.849  11.149   7.257 -0.0708  0.2143  0.0215
 1152DPPI   C3B16937   7.706  10.979   7.639  0.3233  0.2225  0.0820
 1152DPPI   C4B16938   7.531  11.150   8.101  0.0479  0.2159 -0.0658
 1153DPPI    C116939  11.569   2.675   5.300 -0.2907 -0.0262  0.0353
 1153DPPI    C216940  11.722   3.013   5.150  0.2445 -0.1511  0.2769
 1153DPPI    C316941  11.620   2.713   4.905  0.0020  0.0852  0.0817
 1153DPPI   PO416942  11.721   2.643   5.559 -0.1262  0.1850 -0.0818
 1153DPPI   GL116943  11.576   2.777   5.966  0.1108 -0.2050 -0.0043
 1153DPPI   GL216944  11.942   2.982   5.990 -0.1056 -0.1984 -0.1916
 1153DPPI   C1A16945  11.363   2.686   6.366  0.1643 -0.2384  0.0564
 1153DPPI   C2A16946  11.345   2.741   6.752  0.2180  0.0749 -0.2724
 1153DPPI   C3A16947  11.363   2.809   7.201 -0.0088 -0.0351 -0.2755
 1153DPPI   C4A16948  11.387   2.779   7.574 -0.1205 -0.1069 -0.0450
 1153DPPI   C1B16949  11.705   3.184   6.286  0.0766 -0.1680  0.2328
 1153DPPI   C2B16950  11.710   3.141   6.697  0.0986 -0.0087  0.0328
 1153DPPI   C3B16951  11.651   3.250   7.160  0.0997 -0.0880 -0.1134
 1153DPPI   C4B16952  11.565   3.252   7.567  0.0214 -0.0996 -0.2755
 1154DPPI    C116953  15.426  14.564   5.685 -0.1195  0.0946  0.0033
 1154DPPI    C216954  15.526  14.608   5.301  0.2245  0.0726  0.0870
 1154DPPI    C316955  15.273  14.318   5.409 -0.0404  0.2110 -0.1459
 1154DPPI   PO416956  15.748  14.685   5.765  0.0817  0.2459  0.0508
 1154DPPI   GL116957  15.971  14.776   6.195  0.0042 -0.0036 -0.0537
 1154DPPI   GL216958  16.193  15.055   6.117 -0.2689 -0.2950 -0.4488
 1154DPPI   C1A16959  15.878  14.652   6.581 -0.1377 -0.0560  0.1003
 1154DPPI   C2A16960  15.978  14.762   6.980  0.1891 -0.0690  0.2801
 1154DPPI   C3A16961  16.223  14.772   7.388 -0.1377 -0.2555  0.1531
 1154DPPI   C4A16962  16.314  14.782   7.831 -0.1620 -0.2558 -0.0349
 1154DPPI   C1B16963  16.238  15.035   6.498  0.0336 -0.0464 -0.0582
 1154DPPI   C2B16964  16.368  15.034   6.939 -0.2699 -0.2030 -0.0617
 1154DPPI   C3B16965  16.616  15.043   7.311  0.0420 -0.1507 -0.2608
 1154DPPI   C4B16966  16.533  15.197   7.780  0.0691 -0.0865 -0.1268
 1155DPPI    C116967   4.783  11.244   5.514  0.1527 -0.0507  0.0101
 1155DPPI    C216968   5.042  11.538   5.432  0.0638  0.0216 -0.0128
 1155DPPI    C316969   5.052  11.198   5.221  0.4445 -0.1625  0.2898
 1155DPPI   PO416970   4.701  11.358   5.704  0.0247 -0.1848 -0.2221
 1155DPPI   GL116971   4.727  11.316   6.188  0.2898  0.2983 -0.0650
 1155DPPI   GL216972   4.712  11.089   6.426  0.0360 -0.1915 -0.1817
 1155DPPI   C1A16973   5.087  11.518   6.380  0.2438  0.1450  0.0996
 1155DPPI   C2A16974   5.050  11.804   6.795  0.3115  0.1664  0.0995
 1155DPPI   C3A16975   5.129  11.957   7.281  0.0192 -0.2198  0.0676
 1155DPPI   C4A16976   5.277  12.231   7.547 -0.0481 -0.0039 -0.1802
 1155DPPI   C1B16977   4.828  11.122   6.838  0.0359  0.1865 -0.1247
 1155DPPI   C2B16978   4.821  11.286   7.316 -0.2619 -0.3024  0.4572
 1155DPPI   C3B16979   4.770  11.088   7.776  0.1804  0.1692  0.0136
 1155DPPI   C4B16980   4.577  10.694   7.887 -0.0654 -0.2879  0.2940
 1156DPPI    C116981   7.748  12.100   5.607 -0.2776  0.1908 -0.2166
 1156DPPI    C216982   7.864  12.145   5.227 -0.2683  0.0528 -0.2305
 1156DPPI    C316983   7.715  11.795   5.351  0.2511 -0.0865  0.0296
 1156DPPI   PO416984   7.749  12.322   5.673  0.1023  0.4178  0.4244
 1156DPPI   GL116985   8.052  12.473   5.938 -0.4735  0.2326  0.0033
 1156DPPI   GL216986   8.351  12.441   6.016 -0.1224 -0.1609  0.0081
 1156DPPI   C1A16987   7.890  12.456   6.415 -0.0986  0.2162  0.1116
 1156DPPI   C2A16988   7.708  12.534   6.766  0.3006  0.0185 -0.0564
 1156DPPI   C3A16989   7.481  12.399   7.125 -0.2325  0.0323  0.0577
 1156DPPI   C4A16990   7.322  12.421   7.617  0.2756  0.2619  0.5035
 1156DPPI   C1B16991   8.378  12.494   6.399 -0.1378  0.0081 -0.2113
 1156DPPI   C2B16992   8.279  12.492   6.766  0.3916 -0.5345  0.0485
 1156DPPI   C3B16993   8.095  12.619   7.157  0.1050 -0.1792 -0.3399
 1156DPPI   C4B16994   7.793  12.672   7.467 -0.0408  0.2196 -0.2071
 1157DPPI    C116995   3.366   5.467   5.446  0.1469  0.0513  0.1835
 1157DPPI    C216996   3.387   5.846   5.572  0.0335  0.1004  0.0570
 1157DPPI    C316997   3.524   5.749   5.209 -0.0616  0.0463  0.0351
 1157DPPI   PO416998   3.353   5.351   5.727  0.0921 -0.0148  0.1062
 1157DPPI   GL116999   3.410   5.595   6.037 -0.1425 -0.0378  0.0915
 1157DPPI   GL217000   3.647   5.825   6.056 -0.0222  0.0518  0.1734
 1157DPPI   C1A17001   3.381   5.489   6.523  0.1789  0.2363  0.1016
 1157DPPI   C2A17002   3.248   5.510   6.970  0.0496 -0.2194  0.3765
 1157DPPI   C3A17003   3.430   5.645   7.274 -0.1023 -0.1395 -0.0075
 1157DPPI   C4A17004   3.787   5.865   7.337 -0.5004 -0.1791  0.0979
 1157DPPI   C1B17005   3.405   5.989   6.462 -0.2857 -0.1309 -0.1889
 1157DPPI   C2B17006   3.477   5.935   6.800 -0.0015 -0.1492 -0.1480
 1157DPPI   C3B17007   3.409   6.140   7.120  0.0293 -0.2104  0.0667
 1157DPPI   C4B17008   3.413   6.241   7.559  0.1099 -0.1651 -0.1939
 1158DPPI    C117009  12.684   2.160   5.613  0.1132 -0.0948  0.0627
 1158DPPI    C217010  12.369   1.928   5.697  0.0295  0.0241  0.0798
 1158DPPI    C317011  12.387   2.123   5.348  0.1035 -0.0139  0.0621
 1158DPPI   PO417012  12.663   2.330   5.876  0.0475  0.0535  0.1118
 1158DPPI   GL117013  12.955   2.446   6.039 -0.0560 -0.0107 -0.2506
 1158DPPI   GL217014  13.111   2.692   6.044  0.1358 -0.0235 -0.1138
 1158DPPI   C1A17015  12.769   2.230   6.439  0.2751 -0.0346 -0.0004
 1158DPPI   C2A17016  12.738   2.301   6.822  0.0344  0.0492  0.2604
 1158DPPI   C3A17017  12.832   2.221   7.191 -0.0843 -0.1405  0.2927
 1158DPPI   C4A17018  12.727   2.146   7.610 -0.1157 -0.1673 -0.1721
 1158DPPI   C1B17019  13.263   2.612   6.410  0.0136 -0.1296  0.0536
 1158DPPI   C2B17020  13.289   2.421   6.782 -0.0039  0.0413 -0.1161
 1158DPPI   C3B17021  13.331   2.526   7.103 -0.0467 -0.1049  0.0188
 1158DPPI   C4B17022  13.121   2.570   7.517 -0.0427  0.0476 -0.1159
 1159DPPI    C117023  12.612  13.970   5.991 -0.3274  0.1603 -0.0016
 1159DPPI    C217024  12.815  14.189   5.724  0.1073 -0.1990  0.0213
 1159DPPI    C317025  12.554  13.911   5.600 -0.0364 -0.0489 -0.0166
 1159DPPI   PO417026  12.819  13.926   6.202  0.0210 -0.1279  0.2798
 1159DPPI   GL117027  12.833  14.277   6.449  0.1526 -0.2226 -0.2552
 1159DPPI   GL217028  12.763  14.624   6.560 -0.0350 -0.0102  0.1979
 1159DPPI   C1A17029  12.793  14.139   6.862 -0.2490  0.3790  0.2756
 1159DPPI   C2A17030  12.817  14.304   7.205  0.0518  0.1710 -0.3472
 1159DPPI   C3A17031  12.882  14.359   7.703  0.2403 -0.0495 -0.0471
 1159DPPI   C4A17032  13.056  14.234   8.189 -0.1501 -0.0321 -0.2000
 1159DPPI   C1B17033  13.088  14.569   6.838 -0.1894  0.0958 -0.3660
 1159DPPI   C2B17034  13.235  14.656   7.272  0.0226 -0.1113 -0.0112
 1159DPPI   C3B17035  13.457  14.546   7.648 -0.0179 -0.0775 -0.1364
 1159DPPI   C4B17036  13.822  14.777   7.884 -0.1570  0.4562 -0.0020
 1160DPPI    C117037   8.290   6.829   5.415  0.1457  0.1769  0.1000
 1160DPPI    C217038   8.504   7.077   5.644 -0.1209  0.3989  0.1146
 1160DPPI    C317039   8.112   7.140   5.594 -0.1052  0.2365 -0.2425
 1160DPPI   PO417040   8.371   6.620   5.507  0.2161 -0.0634  0.1784
 1160DPPI   GL117041   8.548   6.533   5.869  0.1880  0.0895 -0.0756
 1160DPPI   GL217042   8.665   6.247   5.896  0.5146  0.0145 -0.1014
 1160DPPI   C1A17043   8.145   6.708   6.092 -0.0390  0.1667 -0.1389
 1160DPPI   C2A17044   7.946   6.426   6.318  0.0073 -0.1018  0.0544
 1160DPPI   C3A17045   8.045   6.419   6.700  0.1143 -0.0150  0.3039
 1160DPPI   C4A17046   7.874   6.449   7.093  0.1211 -0.1643 -0.0701
 1160DPPI   C1B17047   8.443   6.340   6.309  0.0564  0.4432  0.2821
 1160DPPI   C2B17048   8.558   6.501   6.681 -0.1667  0.1321  0.2770
 1160DPPI   C3B17049   8.540   6.386   7.096  0.2933 -0.0453 -0.2248
 1160DPPI   C4B17050   8.511   6.206   7.509  0.0928  0.1934 -0.0149
 1161DPPI    C117051  11.110  15.728   6.357 -0.0769 -0.0888  0.0228
 1161DPPI    C217052  11.210  16.010   6.092 -0.0584 -0.1496 -0.0354
 1161DPPI    C317053  10.968  15.710   5.984  0.0213 -0.2238 -0.0089
 1161DPPI   PO417054  11.266  15.800   6.544  0.1237  0.3089 -0.2351
 1161DPPI   GL117055  11.299  15.474   6.797  0.3239  0.1727 -0.0231
 1161DPPI   GL217056  11.202  15.189   6.833  0.0922  0.0518  0.0554
 1161DPPI   C1A17057  11.620  15.481   7.064 -0.0836 -0.1297 -0.1851
 1161DPPI   C2A17058  11.768  15.220   7.408  0.0692  0.0168 -0.0439
 1161DPPI   C3A17059  11.486  14.966   7.564 -0.0006  0.0488 -0.3998
 1161DPPI   C4A17060  11.320  14.685   7.874 -0.2972 -0.3493  0.1386
 1161DPPI   C1B17061  10.911  15.110   7.155  0.0292 -0.0292 -0.3062
 1161DPPI   C2B17062  10.573  14.951   7.380  0.1347 -0.3785 -0.0288
 1161DPPI   C3B17063  10.462  15.049   7.817 -0.0002  0.3162 -0.0058
 1161DPPI   C4B17064  10.343  14.810   8.147  0.2847 -0.2305 -0.0566
 1162DPPI    C117065  16.399   0.290   5.687 -0.0440 -0.1353 -0.2620
 1162DPPI    C217066  16.733   0.505   5.641 -0.0796 -0.0584 -0.1664
 1162DPPI    C317067  16.750   0.141   5.807 -0.0704  0.0308  0.0309
 1162DPPI   PO417068  16.277   0.404   5.848  0.2010  0.0173 -0.0028
 1162DPPI   GL117069  16.271   0.716   6.084  0.0334 -0.4049 -0.2465
 1162DPPI   GL217070  16.118   0.309   6.280  0.1264 -0.3834 -0.1024
 1162DPPI   C1A17071  16.428   0.933   6.463 -0.1964  0.2266 -0.0441
 1162DPPI   C2A17072  16.432   1.073   6.782  0.1152  0.0794 -0.0642
 1162DPPI   C3A17073  16.392   1.150   7.280 -0.1479 -0.1931 -0.0519
 1162DPPI   C4A17074  16.500   1.323   7.678  0.3019 -0.0159  0.4814
 1162DPPI   C1B17075  16.185   0.347   6.664  0.2017 -0.2543 -0.3755
 1162DPPI   C2B17076  16.314   0.347   7.142  0.0662  0.2425  0.1255
 1162DPPI   C3B17077  16.207   0.334   7.564 -0.0652  0.0797  0.0911
 1162DPPI   C4B17078  16.126   0.479   7.974 -0.0641  0.1004  0.0651
 1163DPPI    C117079  10.766  14.832   5.862 -0.0373 -0.1639 -0.0807
 1163DPPI    C217080  11.054  14.801   5.586  0.0514  0.1264 -0.0235
 1163DPPI    C317081  10.674  14.720   5.489  0.1565 -0.3181 -0.0836
 1163DPPI   PO417082  10.988  14.777   6.105 -0.1976  0.0120 -0.2353
 1163DPPI   GL117083  11.094  14.779   6.482 -0.4127  0.3603 -0.2025
 1163DPPI   GL217084  10.838  14.598   6.613 -0.2564 -0.0133 -0.1459
 1163DPPI   C1A17085  11.187  14.720   6.928  0.4022  0.1357 -0.0742
 1163DPPI   C2A17086  11.083  14.626   7.314 -0.2709 -0.0973  0.1045
 1163DPPI   C3A17087  10.958  14.974   7.674 -0.2749  0.0781  0.0122
 1163DPPI   C4A17088  10.910  15.343   7.972  0.0032  0.0474 -0.0447
 1163DPPI   C1B17089  10.624  14.510   7.055 -0.1887  0.3116  0.2868
 1163DPPI   C2B17090  10.423  14.453   7.430 -0.1312 -0.1737  0.2182
 1163DPPI   C3B17091  10.393  14.540   7.748  0.1210 -0.0208  0.0084
 1163DPPI   C4B17092  10.056  14.435   8.123  0.2077 -0.1543 -0.2100
 1164DPPI    C117093   9.805   6.413   5.612 -0.2007 -0.0398 -0.0895
 1164DPPI    C217094  10.175   6.557   5.568 -0.1084 -0.2120  0.1043
 1164DPPI    C317095   9.918   6.568   5.261  0.0614 -0.1072 -0.0365
 1164DPPI   PO417096   9.698   6.478   5.868  0.0078 -0.0235  0.1229
 1164DPPI   GL117097   9.404   6.448   6.103  0.0364 -0.1060  0.0567
 1164DPPI   GL217098   9.148   6.341   6.050 -0.2709 -0.2637 -0.0772
 1164DPPI   C1A17099   9.494   6.392   6.573  0.0800  0.1528  0.0773
 1164DPPI   C2A17100   9.448   6.308   7.017  0.0807 -0.0166 -0.0086
 1164DPPI   C3A17101   9.543   6.346   7.397 -0.1988  0.0092 -0.4102
 1164DPPI   C4A17102   9.498   6.261   7.805  0.1875  0.0915  0.3035
 1164DPPI   C1B17103   8.941   6.328   6.462 -0.2597 -0.0249  0.0214
 1164DPPI   C2B17104   8.987   6.447   6.945  0.1458  0.0005 -0.1368
 1164DPPI   C3B17105   9.063   6.216   7.371 -0.1276  0.0107  0.1805
 1164DPPI   C4B17106   8.931   6.372   7.832  0.0392 -0.2071  0.3900
 1165DPPI    C117107   8.379   7.448   5.236  0.2356 -0.5220 -0.1580
 1165DPPI    C217108   8.605   7.625   4.958 -0.1052  0.0716 -0.0734
 1165DPPI    C317109   8.262   7.448   4.854 -0.1506  0.1487 -0.0564
 1165DPPI   PO417110   8.320   7.625   5.428 -0.0393 -0.0547  0.2576
 1165DPPI   GL117111   8.225   7.558   5.867  0.0439 -0.0647  0.0078
 1165DPPI   GL217112   8.587   7.493   5.863  0.0470 -0.2246 -0.1984
 1165DPPI   C1A17113   8.309   7.599   6.239 -0.1247  0.0700  0.2573
 1165DPPI   C2A17114   8.272   7.660   6.681  0.2418  0.2605  0.2849
 1165DPPI   C3A17115   8.349   7.694   7.085  0.0236  0.1567  0.0937
 1165DPPI   C4A17116   8.447   7.666   7.449  0.0947  0.0303  0.1061
 1165DPPI   C1B17117   8.439   7.077   6.126 -0.0264  0.0407  0.1698
 1165DPPI   C2B17118   8.373   6.976   6.544  0.0438 -0.1166  0.1848
 1165DPPI   C3B17119   8.245   6.881   6.883 -0.0001  0.1046  0.0744
 1165DPPI   C4B17120   8.246   6.743   7.277 -0.0243 -0.0537  0.0560
 1166DPPI    C117121   2.878   3.491   5.313  0.0527 -0.2216 -0.1171
 1166DPPI    C217122   2.506   3.473   5.165 -0.1147  0.2648  0.2200
 1166DPPI    C317123   2.782   3.704   4.988 -0.0040  0.0019  0.0437
 1166DPPI   PO417124   2.758   3.374   5.595  0.0558  0.1609 -0.0380
 1166DPPI   GL117125   2.852   3.361   6.072 -0.1814  0.0967  0.0157
 1166DPPI   GL217126   3.147   3.369   6.074  0.0616 -0.1837  0.0504
 1166DPPI   C1A17127   2.796   3.299   6.540  0.0762 -0.2337  0.0256
 1166DPPI   C2A17128   2.838   3.432   6.988 -0.1230  0.1515  0.4009
 1166DPPI   C3A17129   2.679   3.316   7.393  0.0316  0.4280 -0.0450
 1166DPPI   C4A17130   2.538   3.564   7.747 -0.1090 -0.0879  0.2011
 1166DPPI   C1B17131   3.273   3.427   6.434 -0.0676 -0.1499 -0.3202
 1166DPPI   C2B17132   3.359   3.256   6.838  0.3929  0.1083  0.1094
 1166DPPI   C3B17133   3.476   2.994   7.240  0.0870  0.4016 -0.2575
 1166DPPI   C4B17134   3.386   3.040   7.732  0.0245 -0.1782  0.1187
 1167DPPI    C117135   3.447   9.822   5.568 -0.1502 -0.1161 -0.1094
 1167DPPI    C217136   3.648   9.488   5.478 -0.0057 -0.0452 -0.0537
 1167DPPI    C317137   3.620   9.783   5.209  0.0233 -0.0273 -0.0371
 1167DPPI   PO417138   3.506   9.838   5.842  0.3140 -0.1618  0.2294
 1167DPPI   GL117139   3.561   9.853   6.263  0.2704 -0.2799 -0.0843
 1167DPPI   GL217140   3.433  10.197   6.299  0.1890 -0.2575 -0.0617
 1167DPPI   C1A17141   3.812  10.018   6.522 -0.0311 -0.1044  0.0142
 1167DPPI   C2A17142   3.859  10.162   6.905 -0.0087  0.0186  0.2661
 1167DPPI   C3A17143   4.105   9.990   7.297  0.1679  0.3212 -0.1245
 1167DPPI   C4A17144   4.496   9.791   7.568  0.0845  0.0856 -0.1368
 1167DPPI   C1B17145   3.506  10.403   6.608 -0.2280  0.1078  0.0571
 1167DPPI   C2B17146   3.386  10.433   7.079  0.1026  0.0707 -0.1104
 1167DPPI   C3B17147   3.230  10.143   7.508  0.0443  0.1488 -0.2631
 1167DPPI   C4B17148   3.199   9.960   7.927  0.1101  0.1838  0.0171
 1168DPPI    C117149   5.029  12.057   5.461 -0.1746 -0.1603 -0.0349
 1168DPPI    C217150   4.881  12.365   5.252  0.0784  0.0275  0.0572
 1168DPPI    C317151   4.991  12.029   5.064 -0.2152 -0.0157 -0.0420
 1168DPPI   PO417152   5.077  12.117   5.655  0.2312  0.0231  0.0390
 1168DPPI   GL117153   4.893  12.202   5.995 -0.4400  0.1315  0.2089
 1168DPPI   GL217154   4.729  12.477   6.060 -0.3390  0.2983 -0.1311
 1168DPPI   C1A17155   4.860  12.086   6.412 -0.0426 -0.0530  0.1237
 1168DPPI   C2A17156   4.706  12.170   6.787  0.2119  0.0880 -0.6015
 1168DPPI   C3A17157   4.701  12.250   7.192  0.1248  0.2679 -0.1198
 1168DPPI   C4A17158   4.761  12.217   7.604 -0.1235 -0.1549  0.0152
 1168DPPI   C1B17159   5.199  12.448   6.266  0.0578 -0.1585 -0.0956
 1168DPPI   C2B17160   5.648  12.484   6.206 -0.0709  0.1330 -0.0307
 1168DPPI   C3B17161   5.865  12.483   6.583 -0.1201  0.4149  0.0003
 1168DPPI   C4B17162   5.944  12.399   6.932 -0.3456  0.0679 -0.0973
 1169DPPI    C117163   9.570  16.186   5.175  0.1520  0.2059  0.0150
 1169DPPI    C217164   9.357  16.099   4.848  0.3097 -0.0423 -0.0244
 1169DPPI    C317165   9.746  16.005   4.865  0.3036 -0.0299  0.2337
 1169DPPI   PO417166   9.406  16.114   5.377  0.2242 -0.0164 -0.1379
 1169DPPI   GL117167   9.010  16.036   5.641 -0.0230  0.0658  0.0044
 1169DPPI   GL217168   9.206  15.687   5.618 -0.0152 -0.2874  0.1627
 1169DPPI   C1A17169   9.020  15.788   6.066 -0.2789 -0.0286 -0.1161
 1169DPPI   C2A17170   9.271  15.776   6.424 -0.2013 -0.0004  0.2081
 1169DPPI   C3A17171   9.135  15.881   6.810  0.0473 -0.2559  0.0953
 1169DPPI   C4A17172   8.957  15.811   7.163  0.4208  0.1075  0.0911
 1169DPPI   C1B17173   9.404  15.476   6.007 -0.3518  0.0763 -0.0060
 1169DPPI   C2B17174   9.413  15.228   6.394 -0.2145 -0.0964 -0.0608
 1169DPPI   C3B17175   9.413  15.459   6.812  0.5060  0.1182  0.2693
 1169DPPI   C4B17176   9.568  15.583   7.215 -0.0382 -0.1724 -0.1633
 1170DPPI    C117177   1.257   2.466   5.329  0.2437 -0.2612 -0.1077
 1170DPPI    C217178   0.994   2.592   5.056 -0.0072 -0.4640  0.0358
 1170DPPI    C317179   1.247   2.294   4.968  0.0421 -0.4010 -0.0371
 1170DPPI   PO417180   1.117   2.417   5.569  0.0171 -0.0087 -0.1204
 1170DPPI   GL117181   0.995   2.652   5.923  0.2610 -0.4361  0.3877
 1170DPPI   GL217182   0.736   2.729   5.985 -0.1286  0.2129  0.4680
 1170DPPI   C1A17183   1.105   2.489   6.271  0.1930  0.0323  0.1409
 1170DPPI   C2A17184   1.157   2.191   6.458 -0.0916 -0.0751  0.3072
 1170DPPI   C3A17185   1.083   2.155   6.882 -0.0357  0.0605 -0.0577
 1170DPPI   C4A17186   1.094   2.566   6.865  0.2986  0.0599  0.0583
 1170DPPI   C1B17187   0.662   2.913   6.347 -0.1453  0.0232  0.5256
 1170DPPI   C2B17188   0.803   2.976   6.753  0.3624 -0.0891 -0.0818
 1170DPPI   C3B17189   0.840   2.884   7.178  0.1107  0.1626 -0.1014
 1170DPPI   C4B17190   0.974   2.746   7.453  0.0323  0.1171 -0.1190
 1171DPPI    C117191   9.791   5.118   5.420  0.2824  0.1568 -0.0824
 1171DPPI    C217192   9.419   5.147   5.277  0.2605  0.1114 -0.0355
 1171DPPI    C317193   9.643   4.827   5.190  0.2321  0.0632  0.0667
 1171DPPI   PO417194   9.779   5.138   5.639  0.2316  0.0069 -0.4833
 1171DPPI   GL117195   9.919   5.022   6.075  0.1331  0.1884 -0.0032
 1171DPPI   GL217196   9.819   4.720   6.074  0.2268  0.0752 -0.0092
 1171DPPI   C1A17197   9.827   5.016   6.541  0.0257 -0.0945  0.0939
 1171DPPI   C2A17198   9.853   5.077   6.924  0.2443  0.1655  0.1326
 1171DPPI   C3A17199   9.888   4.918   7.333  0.0832 -0.0013  0.0386
 1171DPPI   C4A17200   9.861   4.866   7.847  0.1284  0.0659  0.3180
 1171DPPI   C1B17201   9.566   4.612   6.379  0.0881  0.0687 -0.0328
 1171DPPI   C2B17202   9.581   4.643   6.863  0.2571  0.0217 -0.1711
 1171DPPI   C3B17203   9.506   4.610   7.353 -0.2562 -0.2340 -0.0686
 1171DPPI   C4B17204   9.422   4.553   7.782  0.0898 -0.0762 -0.2775
 1172DPPI    C117205   0.588  17.926   5.730  0.1020  0.1785 -0.0868
 1172DPPI    C217206   0.899  18.014   5.495 -0.1187  0.2004 -0.3764
 1172DPPI    C317207   0.636  17.735   5.382 -0.1414  0.0964 -0.0770
 1172DPPI   PO417208   0.655  17.882   5.908 -0.1836 -0.0162 -0.2533
 1172DPPI   GL117209   0.888  18.213   6.148 -0.0268  0.0422 -0.0651
 1172DPPI   GL217210   1.103  18.440   6.284  0.0683 -0.2537 -0.0423
 1172DPPI   C1A17211   0.728  18.066   6.556 -0.1324  0.3011 -0.0554
 1172DPPI   C2A17212   0.785  18.071   6.947 -0.2715  0.3591 -0.1964
 1172DPPI   C3A17213   0.794  18.460   7.260  0.3770  0.0231 -0.3403
 1172DPPI   C4A17214   0.836  18.575   7.654  0.1015  0.0483 -0.4819
 1172DPPI   C1B17215   1.067  18.500   6.679  0.0454  0.0761 -0.0510
 1172DPPI   C2B17216   1.138  18.733   6.886  0.1160  0.0353  0.0165
 1172DPPI   C3B17217   1.135  18.802   7.311 -0.0629  0.0537  0.0058
 1172DPPI   C4B17218   1.169  19.036   7.709  0.4091 -0.1125 -0.0414
 1173DPPI    C117219  12.403   4.848   5.751  0.0212  0.0454 -0.1562
 1173DPPI    C217220  12.314   4.583   5.465 -0.0057 -0.3563  0.2142
 1173DPPI    C317221  12.032   4.702   5.722 -0.0104  0.0912  0.0111
 1173DPPI   PO417222  12.701   4.746   5.794  0.0061  0.0131 -0.1406
 1173DPPI   GL117223  13.032   4.656   6.030  0.1872 -0.1116  0.2401
 1173DPPI   GL217224  13.267   4.892   6.039 -0.1110  0.0349 -0.0561
 1173DPPI   C1A17225  13.139   4.807   6.475  0.0666 -0.0096 -0.1754
 1173DPPI   C2A17226  13.181   4.831   6.971 -0.2481 -0.0883 -0.1794
 1173DPPI   C3A17227  13.071   4.749   7.303 -0.1014 -0.2389 -0.0806
 1173DPPI   C4A17228  13.112   4.424   7.551 -0.2610  0.1766 -0.3753
 1173DPPI   C1B17229  13.198   5.269   6.367 -0.0225  0.3466 -0.1769
 1173DPPI   C2B17230  13.175   5.389   6.812  0.4228 -0.0453  0.1100
 1173DPPI   C3B17231  13.199   5.338   7.302 -0.2163  0.1062 -0.1100
 1173DPPI   C4B17232  12.965   5.471   7.672  0.1144 -0.1757 -0.4448
 1174DPPI    C117233   6.765   3.933   4.810 -0.0758 -0.0142 -0.3517
 1174DPPI    C217234   6.696   3.542   4.863  0.0726 -0.0161 -0.1590
 1174DPPI    C317235   6.662   3.704   4.499 -0.3132 -0.1413 -0.1831
 1174DPPI   PO417236   6.670   4.004   5.030 -0.0429 -0.3247 -0.1144
 1174DPPI   GL117237   6.581   3.713   5.401  0.1315  0.1960 -0.0199
 1174DPPI   GL217238   6.843   3.509   5.591 -0.0864 -0.4167 -0.2833
 1174DPPI   C1A17239   6.372   3.587   5.756 -0.0868  0.2765 -0.1332
 1174DPPI   C2A17240   6.295   3.140   5.886  0.0360  0.0824  0.2870
 1174DPPI   C3A17241   6.425   2.899   6.156  0.3897  0.0251 -0.0057
 1174DPPI   C4A17242   6.434   2.872   6.584 -0.4118  0.3445  0.2304
 1174DPPI   C1B17243   6.879   3.795   5.909 -0.1181 -0.0671 -0.1655
 1174DPPI   C2B17244   6.683   4.010   6.261  0.1090  0.2094 -0.0163
 1174DPPI   C3B17245   6.491   3.935   6.617  0.0416 -0.1255  0.0161
 1174DPPI   C4B17246   6.268   3.915   6.935  0.1269  0.2273 -0.0700
 1175DPPI    C117247  17.321   5.946   5.339 -0.0159  0.1028  0.1720
 1175DPPI    C217248  17.711   6.017   5.392  0.0287  0.1032 -0.1372
 1175DPPI    C317249  17.564   5.650   5.454  0.0578  0.1263  0.0775
 1175DPPI   PO417250  17.222   6.122   5.481  0.0492 -0.2898 -0.2730
 1175DPPI   GL117251  17.045   6.300   5.810  0.2460  0.0269  0.1545
 1175DPPI   GL217252  17.219   6.296   6.069  0.1117  0.3062  0.0471
 1175DPPI   C1A17253  16.999   6.663   6.205  0.1115  0.1798 -0.0193
 1175DPPI   C2A17254  17.077   6.745   6.549 -0.0093 -0.1336 -0.0964
 1175DPPI   C3A17255  17.197   6.744   6.975  0.0614 -0.0391 -0.1834
 1175DPPI   C4A17256  17.190   6.719   7.312 -0.0615  0.0510  0.4105
 1175DPPI   C1B17257  17.037   6.227   6.495  0.1180  0.0829 -0.0810
 1175DPPI   C2B17258  17.079   6.310   6.919  0.1730 -0.0049 -0.0396
 1175DPPI   C3B17259  17.060   6.186   7.330 -0.2533 -0.0438  0.0127
 1175DPPI   C4B17260  16.977   6.241   7.829  0.0199  0.1755 -0.0813
 1176DPPI    C117261  14.031   9.223   5.175 -0.0305 -0.5051  0.0282
 1176DPPI    C217262  13.732   9.464   5.065  0.1414 -0.0047  0.6019
 1176DPPI    C317263  14.009   9.354   4.798 -0.1496  0.1172  0.2411
 1176DPPI   PO417264  14.015   9.305   5.461  0.0501  0.1713  0.0489
 1176DPPI   GL117265  13.731   9.408   5.763 -0.0069  0.0753 -0.1701
 1176DPPI   GL217266  13.917   9.507   5.924 -0.5537  0.0825 -0.1947
 1176DPPI   C1A17267  13.549   9.292   6.210  0.0163 -0.2848 -0.1975
 1176DPPI   C2A17268  13.455   9.377   6.670  0.2729  0.2589 -0.2434
 1176DPPI   C3A17269  13.370   9.290   7.103  0.1471 -0.1026 -0.0756
 1176DPPI   C4A17270  13.169   9.219   7.487 -0.1419  0.0028 -0.1772
 1176DPPI   C1B17271  13.853   9.578   6.407 -0.4123 -0.0011 -0.1033
 1176DPPI   C2B17272  13.966   9.549   6.866 -0.0234 -0.0015  0.3583
 1176DPPI   C3B17273  13.818   9.532   7.326 -0.0729 -0.0105  0.1030
 1176DPPI   C4B17274  14.016   9.601   7.836  0.2926 -0.3027  0.2961
 1177DPPI    C117275  15.967   2.099   5.744 -0.0914 -0.1205 -0.2358
 1177DPPI    C217276  15.634   2.313   5.683  0.0330  0.1123 -0.1102
 1177DPPI    C317277  15.745   2.036   5.417 -0.1839  0.1326 -0.2240
 1177DPPI   PO417278  16.096   2.302   5.884 -0.1753 -0.0948  0.0520
 1177DPPI   GL117279  16.349   2.342   6.179 -0.1049 -0.2801  0.1444
 1177DPPI   GL217280  16.460   2.579   6.039  0.1094  0.1421 -0.1438
 1177DPPI   C1A17281  16.204   2.422   6.591  0.4542  0.0643 -0.0129
 1177DPPI   C2A17282  16.131   2.579   6.924  0.0354 -0.1931  0.0206
 1177DPPI   C3A17283  16.274   2.679   7.254  0.1150 -0.1112  0.1244
 1177DPPI   C4A17284  16.331   2.484   7.628 -0.1648  0.0051 -0.1241
 1177DPPI   C1B17285  16.272   2.945   6.162  0.2098  0.0572 -0.1721
 1177DPPI   C2B17286  16.010   3.103   6.404 -0.1744  0.2204 -0.2232
 1177DPPI   C3B17287  15.935   3.129   6.799 -0.2534  0.1958  0.0735
 1177DPPI   C4B17288  15.739   2.916   7.182 -0.1208 -0.0183  0.0895
 1178DPPI    C117289   1.630  15.656   5.713  0.1097  0.1292 -0.1120
 1178DPPI    C217290   1.319  15.781   5.495  0.0055 -0.0024 -0.0404
 1178DPPI    C317291   1.658  15.671   5.314  0.0015  0.1144 -0.1203
 1178DPPI   PO417292   1.509  15.550   5.894 -0.0640 -0.2798 -0.2283
 1178DPPI   GL117293   1.867  15.516   6.235 -0.1453  0.1654  0.1319
 1178DPPI   GL217294   1.600  15.337   6.382  0.4012  0.1316  0.0508
 1178DPPI   C1A17295   1.932  15.430   6.721  0.2861 -0.3333  0.2678
 1178DPPI   C2A17296   1.915  15.288   7.070 -0.0502  0.1237 -0.1973
 1178DPPI   C3A17297   1.932  15.384   7.509 -0.0874 -0.0491 -0.2124
 1178DPPI   C4A17298   1.629  15.282   7.846  0.2586 -0.0105  0.3809
 1178DPPI   C1B17299   1.632  15.031   6.783  0.1890  0.0203 -0.0458
 1178DPPI   C2B17300   1.471  15.000   7.083  0.0725  0.3616 -0.0006
 1178DPPI   C3B17301   1.348  15.004   7.476 -0.0699 -0.1513  0.0280
 1178DPPI   C4B17302   1.196  14.978   7.837  0.1642  0.3398 -0.0417
 1179DPPI    C117303   2.556  15.345   5.474 -0.2271  0.0239 -0.1137
 1179DPPI    C217304   2.850  15.238   5.225  0.0278  0.1823  0.1133
 1179DPPI    C317305   2.476  15.114   5.157  0.1425 -0.0142 -0.1842
 1179DPPI   PO417306   2.655  15.577   5.540 -0.2228  0.3885  0.3465
 1179DPPI   GL117307   2.629  15.948   5.904  0.3112  0.2786  0.4099
 1179DPPI   GL217308   2.466  15.667   5.994  0.1283 -0.0644  0.3828
 1179DPPI   C1A17309   2.787  15.959   6.276  0.0069 -0.1330 -0.1529
 1179DPPI   C2A17310   2.893  16.035   6.679 -0.1206  0.0594  0.1710
 1179DPPI   C3A17311   3.067  16.094   7.119 -0.2042  0.0677  0.0612
 1179DPPI   C4A17312   3.085  16.281   7.468  0.1101  0.1403  0.0800
 1179DPPI   C1B17313   2.694  15.510   6.393  0.1007  0.0065  0.0298
 1179DPPI   C2B17314   2.733  15.522   6.779 -0.4542 -0.2435  0.0316
 1179DPPI   C3B17315   2.822  15.512   7.189 -0.2479  0.2139  0.1828
 1179DPPI   C4B17316   3.065  15.745   7.478 -0.0142 -0.0901  0.1720
 1180DPPI    C117317   0.213  12.702   5.690  0.0236 -0.2854 -0.1454
 1180DPPI    C217318  -0.163  12.771   5.573  0.0071 -0.1469 -0.0137
 1180DPPI    C317319   0.052  12.483   5.396 -0.1731 -0.2532 -0.0626
 1180DPPI   PO417320   0.190  12.768   5.934  0.1166 -0.1222 -0.1794
 1180DPPI   GL117321  -0.007  12.800   6.319 -0.0295  0.0338 -0.0161
 1180DPPI   GL217322  -0.182  12.586   6.448  0.0342 -0.1264  0.0923
 1180DPPI   C1A17323   0.073  12.896   6.821 -0.3448 -0.2287  0.3516
 1180DPPI   C2A17324   0.119  12.723   7.194  0.0770 -0.0401  0.0847
 1180DPPI   C3A17325   0.294  12.494   7.647  0.2108  0.1618 -0.2642
 1180DPPI   C4A17326   0.162  12.323   8.035 -0.1107  0.1240  0.0390
 1180DPPI   C1B17327  -0.184  12.466   6.878  0.1317 -0.1558 -0.0361
 1180DPPI   C2B17328  -0.198  12.359   7.293 -0.0170  0.2134  0.0020
 1180DPPI   C3B17329  -0.157  12.073   7.618 -0.2578  0.1361  0.0142
 1180DPPI   C4B17330  -0.265  12.040   8.028 -0.0758 -0.2564  0.1200
 1181DPPI    C117331  17.413   6.729   5.707 -0.0239 -0.0121  0.1240
 1181DPPI    C217332  17.703   7.004   5.716 -0.0402  0.0042  0.1577
 1181DPPI    C317333  17.513   6.923   5.373  0.0264 -0.0299  0.1287
 1181DPPI   PO417334  17.549   6.435   5.729 -0.0640 -0.0294  0.0596
 1181DPPI   GL117335  17.616   6.051   5.848  0.0841 -0.2332 -0.2656
 1181DPPI   GL217336  17.378   5.823   5.870  0.5565  0.0601  0.1453
 1181DPPI   C1A17337  17.853   6.165   6.224 -0.3942 -0.1402  0.3902
 1181DPPI   C2A17338  17.730   6.059   6.559 -0.0273 -0.2491 -0.1036
 1181DPPI   C3A17339  17.793   5.847   6.853 -0.1197  0.1296 -0.0316
 1181DPPI   C4A17340  17.799   5.846   7.309  0.1358  0.0727 -0.1523
 1181DPPI   C1B17341  17.382   5.910   6.285 -0.3052  0.0035 -0.1011
 1181DPPI   C2B17342  17.281   5.876   6.697  0.0907 -0.1167 -0.1566
 1181DPPI   C3B17343  17.257   5.769   7.113  0.2262 -0.0355  0.1138
 1181DPPI   C4B17344  17.300   5.784   7.584  0.1165 -0.0681 -0.3869
 1182DPPI    C117345  16.022  17.035   5.977  0.2772  0.1336  0.2012
 1182DPPI    C217346  16.126  17.257   5.660  0.1655  0.1355  0.1657
 1182DPPI    C317347  16.213  16.866   5.668 -0.0429  0.0848  0.0266
 1182DPPI   PO417348  16.126  17.043   6.184 -0.2734 -0.2485 -0.0635
 1182DPPI   GL117349  16.046  16.944   6.585  0.0400  0.0544 -0.1646
 1182DPPI   GL217350  16.157  16.685   6.531  0.1940 -0.1268  0.0640
 1182DPPI   C1A17351  16.051  17.029   7.031  0.2693  0.3731  0.2582
 1182DPPI   C2A17352  16.108  17.100   7.452 -0.0876  0.1886 -0.0039
 1182DPPI   C3A17353  16.118  17.068   7.813 -0.1088 -0.1456  0.0695
 1182DPPI   C4A17354  15.933  17.258   8.088 -0.1605  0.3997  0.0926
 1182DPPI   C1B17355  16.058  16.492   6.818  0.1904  0.0013  0.0795
 1182DPPI   C2B17356  15.778  16.305   6.959  0.1197  0.0268 -0.2988
 1182DPPI   C3B17357  15.688  16.322   7.475  0.1714 -0.0339 -0.1110
 1182DPPI   C4B17358  15.671  16.012   7.911 -0.1115 -0.0735  0.3713
 1183DPPI    C117359   5.738  14.697   5.351  0.1295 -0.0037 -0.0263
 1183DPPI    C217360   5.394  14.521   5.245  0.1172 -0.1629  0.2684
 1183DPPI    C317361   5.695  14.545   4.983 -0.1313  0.0189 -0.0076
 1183DPPI   PO417362   5.719  14.596   5.607  0.0708 -0.2656  0.0634
 1183DPPI   GL117363   5.649  14.575   6.011 -0.0136  0.1275 -0.2060
 1183DPPI   GL217364   5.902  14.997   5.959  0.1079  0.3859 -0.1865
 1183DPPI   C1A17365   5.978  14.537   6.382  0.1298  0.2459 -0.1255
 1183DPPI   C2A17366   5.993  14.609   6.791 -0.0818 -0.0006  0.0735
 1183DPPI   C3A17367   5.980  14.612   7.287 -0.1179 -0.1498  0.2783
 1183DPPI   C4A17368   5.920  14.543   7.745  0.1320  0.2195 -0.2393
 1183DPPI   C1B17369   5.564  15.239   6.106  0.0650  0.0041 -0.0803
 1183DPPI   C2B17370   5.517  15.630   6.422  0.0056 -0.1098  0.2502
 1183DPPI   C3B17371   5.475  15.783   6.869  0.0958  0.2148 -0.0688
 1183DPPI   C4B17372   5.539  15.743   7.322 -0.0947 -0.1143  0.2872
 1184DPPI    C117373   1.020  14.293   5.659  0.1920  0.0785  0.1356
 1184DPPI    C217374   1.155  14.547   5.381  0.0503 -0.2971 -0.2886
 1184DPPI    C317375   1.383  14.240   5.499  0.0525 -0.2212 -0.0920
 1184DPPI   PO417376   0.964  14.420   5.863 -0.2391  0.2125 -0.2181
 1184DPPI   GL117377   0.944  14.340   6.281  0.0047  0.0098 -0.2777
 1184DPPI   GL217378   1.252  14.232   6.508  0.0994 -0.3865  0.2271
 1184DPPI   C1A17379   0.841  14.427   6.651 -0.1512  0.1206  0.1542
 1184DPPI   C2A17380   0.828  14.339   7.063 -0.0561  0.1284 -0.1131
 1184DPPI   C3A17381   0.790  14.250   7.443  0.1228  0.2356 -0.1012
 1184DPPI   C4A17382   0.842  13.919   7.808 -0.2520 -0.0629  0.4901
 1184DPPI   C1B17383   1.236  14.140   6.872 -0.0378  0.2463 -0.0869
 1184DPPI   C2B17384   1.247  13.967   7.333  0.0601 -0.2899  0.1090
 1184DPPI   C3B17385   1.345  13.824   7.666  0.1202 -0.0653 -0.1884
 1184DPPI   C4B17386   1.414  13.737   8.069  0.0545  0.0877  0.0530
 1185DPPI    C117387  10.932  17.129   5.500  0.1435  0.0475  0.0909
 1185DPPI    C217388  11.332  17.145   5.486  0.1436 -0.0709 -0.0627
 1185DPPI    C317389  11.141  16.805   5.394  0.0131 -0.0571  0.1504
 1185DPPI   PO417390  10.847  17.280   5.691  0.1379  0.0368  0.1921
 1185DPPI   GL117391  10.750  17.311   6.103 -0.1262 -0.1017  0.1585
 1185DPPI   GL217392  10.814  17.165   6.338 -0.0037  0.0908  0.1806
 1185DPPI   C1A17393  10.304  17.348   6.430 -0.0563 -0.2388  0.0148
 1185DPPI   C2A17394  10.271  17.375   6.829 -0.0153 -0.1131 -0.1647
 1185DPPI   C3A17395  10.224  17.464   7.203  0.0245 -0.3195  0.1807
 1185DPPI   C4A17396  10.119  17.376   7.647  0.2843  0.0268  0.1025
 1185DPPI   C1B17397  10.698  17.068   6.729  0.0496 -0.0579 -0.1335
 1185DPPI   C2B17398  10.889  17.010   7.164 -0.1017  0.0942  0.1921
 1185DPPI   C3B17399  10.999  16.949   7.572  0.1086  0.0900 -0.2715
 1185DPPI   C4B17400  10.970  17.105   8.061  0.2381  0.0396  0.1086
 1186DPPI    C117401   1.363  16.097   5.862  0.1778 -0.3978  0.1911
 1186DPPI    C217402   0.975  16.125   5.952  0.1967  0.0414  0.1572
 1186DPPI    C317403   1.102  16.216   5.584  0.3566  0.1023  0.2266
 1186DPPI   PO417404   1.491  16.021   6.038  0.0836  0.1035  0.1991
 1186DPPI   GL117405   1.601  16.010   6.431 -0.2003  0.0805  0.1648
 1186DPPI   GL217406   1.394  15.803   6.483 -0.2310 -0.1764  0.0498
 1186DPPI   C1A17407   1.806  15.866   6.852 -0.0506 -0.0320  0.0247
 1186DPPI   C2A17408   2.001  15.878   7.239 -0.1980 -0.0631 -0.0736
 1186DPPI   C3A17409   2.136  15.843   7.652 -0.2445  0.1147  0.0589
 1186DPPI   C4A17410   2.416  15.857   7.995  0.0865 -0.0973 -0.1510
 1186DPPI   C1B17411   1.338  16.042   6.967 -0.0722  0.1312  0.0201
 1186DPPI   C2B17412   1.511  16.117   7.315  0.1543 -0.0133 -0.1342
 1186DPPI   C3B17413   1.687  16.159   7.654 -0.0420  0.2797  0.0441
 1186DPPI   C4B17414   1.944  16.405   7.914 -0.3003  0.3976  0.0651
 1187PYPI    C117415   2.780  10.600   5.898 -0.1454 -0.1701  0.0207
 1187PYPI    C217416   2.945  10.469   5.558 -0.2414 -0.0893 -0.0580
 1187PYPI    C317417   2.759  10.823   5.566 -0.0190  0.0260  0.1421
 1187PYPI   PO417418   2.918  10.641   6.086  0.0979  0.0984  0.1489
 1187PYPI   GL117419   3.056  10.722   6.476 -0.1530 -0.4045 -0.1320
 1187PYPI   GL217420   2.895  10.413   6.563  0.1711 -0.1288  0.1216
 1187PYPI   C1A17421   3.467  10.912   6.648  0.0051  0.1651 -0.5397
 1187PYPI   C2A17422   3.505  10.924   7.117 -0.0704 -0.0434  0.0460
 1187PYPI   D3A17423   3.654  10.837   7.569 -0.0316 -0.1304  0.1594
 1187PYPI   C4A17424   3.831  11.075   7.905  0.0040 -0.2700 -0.1021
 1187PYPI   C1B17425   2.864  10.312   6.903  0.2104 -0.0086  0.1169
 1187PYPI   C2B17426   2.710  10.024   7.133 -0.4082 -0.0972 -0.1195
 1187PYPI   C3B17427   2.554   9.937   7.509  0.0949  0.0476  0.0689
 1187PYPI   C4B17428   2.591   9.741   7.902 -0.1901 -0.2128  0.0024
 1188PYPI    C117429  10.482  15.259   5.875 -0.0328  0.0773  0.1038
 1188PYPI    C217430  10.542  15.566   5.626 -0.1161 -0.0028 -0.0169
 1188PYPI    C317431  10.522  15.194   5.482 -0.0079 -0.0664  0.1295
 1188PYPI   PO417432  10.672  15.285   6.022 -0.1141  0.0837 -0.0868
 1188PYPI   GL117433  10.694  15.440   6.476  0.3187  0.0732 -0.1546
 1188PYPI   GL217434  10.662  15.137   6.512  0.2734 -0.1031  0.1098
 1188PYPI   C1A17435  10.631  15.415   6.959  0.0419  0.1787 -0.0081
 1188PYPI   C2A17436  10.699  15.449   7.448 -0.0404 -0.2187 -0.1769
 1188PYPI   D3A17437  10.535  15.652   7.802  0.0464 -0.0043 -0.3333
 1188PYPI   C4A17438  10.486  15.364   8.237 -0.2067  0.1530  0.0958
 1188PYPI   C1B17439  10.399  14.986   6.864 -0.0181  0.0842  0.2583
 1188PYPI   C2B17440  10.131  14.866   7.263  0.3098 -0.0129 -0.2280
 1188PYPI   C3B17441  10.012  14.784   7.612  0.0513  0.1830 -0.0787
 1188PYPI   C4B17442   9.750  14.942   7.940 -0.3992 -0.0796 -0.0786
 1189PYPI    C117443  17.339   8.697   5.358  0.1310  0.0990 -0.0199
 1189PYPI    C217444  17.100   8.981   5.207  0.3579  0.2644 -0.0728
 1189PYPI    C317445  17.366   8.796   4.972  0.4106  0.2135  0.0262
 1189PYPI   PO417446  17.301   8.794   5.645 -0.0387 -0.1489  0.0551
 1189PYPI   GL117447  17.389   9.195   5.914 -0.0736 -0.0953  0.0374
 1189PYPI   GL217448  17.117   9.088   6.138  0.1419 -0.2761  0.1238
 1189PYPI   C1A17449  17.585   9.125   6.339 -0.6227  0.1812  0.0906
 1189PYPI   C2A17450  17.582   9.087   6.762  0.0584 -0.0730  0.0198
 1189PYPI   D3A17451  17.656   8.982   7.145  0.0190  0.1105  0.1596
 1189PYPI   C4A17452  17.863   9.033   7.528 -0.2319  0.0055 -0.0027
 1189PYPI   C1B17453  17.260   8.813   6.390  0.0409  0.0955  0.1105
 1189PYPI   C2B17454  17.291   8.674   6.685  0.0282  0.2125  0.1313
 1189PYPI   C3B17455  17.399   8.589   6.982  0.0834  0.0587 -0.0280
 1189PYPI   C4B17456  17.562   8.526   7.397 -0.3032  0.0861  0.0629
 1190PYPI    C117457  16.133   9.212   5.355  0.2039 -0.2531  0.3382
 1190PYPI    C217458  16.361   9.451   5.129 -0.0553 -0.0379  0.2988
 1190PYPI    C317459  16.071   9.233   4.960  0.1303 -0.3261  0.3456
 1190PYPI   PO417460  16.032   9.384   5.596 -0.2497  0.0188  0.1808
 1190PYPI   GL117461  15.826   9.378   5.954  0.0048 -0.2359 -0.4311
 1190PYPI   GL217462  15.622   9.464   6.136  0.0899 -0.0306 -0.3069
 1190PYPI   C1A17463  16.127   9.447   6.313 -0.2619  0.1059 -0.3269
 1190PYPI   C2A17464  16.011   9.383   6.732  0.0530 -0.2438  0.3727
 1190PYPI   D3A17465  16.110   9.299   7.112 -0.0024  0.2172 -0.0690
 1190PYPI   C4A17466  16.176   9.253   7.574  0.2918  0.0731  0.0689
 1190PYPI   C1B17467  15.663   9.067   6.526 -0.0899  0.0216  0.2968
 1190PYPI   C2B17468  15.696   9.060   6.992  0.1324  0.4019 -0.0670
 1190PYPI   C3B17469  15.839   8.904   7.329  0.0618 -0.0158 -0.0261
 1190PYPI   C4B17470  15.680   9.052   7.764 -0.0387  0.2013  0.0100
 1191PYPI    C117471  12.828   8.370   5.821 -0.4452 -0.0347 -0.3179
 1191PYPI    C217472  13.007   8.399   5.465  0.3297 -0.3498  0.0222
 1191PYPI    C317473  13.036   8.698   5.729 -0.0739 -0.2007 -0.0941
 1191PYPI   PO417474  12.837   8.056   5.786 -0.0494  0.0997 -0.2085
 1191PYPI   GL117475  12.730   7.691   6.039 -0.0652  0.1114 -0.3324
 1191PYPI   GL217476  12.490   7.956   6.156  0.1576  0.1755 -0.2073
 1191PYPI   C1A17477  12.869   7.547   6.408  0.3288  0.0178 -0.0970
 1191PYPI   C2A17478  12.947   7.469   6.803  0.0288  0.2066 -0.1084
 1191PYPI   D3A17479  12.864   7.403   7.202  0.0283  0.2270  0.2855
 1191PYPI   C4A17480  12.713   7.158   7.526 -0.3753 -0.0836  0.0457
 1191PYPI   C1B17481  12.363   7.624   6.424 -0.0083 -0.2325  0.1851
 1191PYPI   C2B17482  12.448   7.431   6.798  0.1015  0.3293  0.1327
 1191PYPI   C3B17483  12.622   6.986   7.047  0.1900 -0.0152  0.1124
 1191PYPI   C4B17484  12.516   6.609   7.275  0.0295 -0.1004 -0.0839
 1192PYPI    C117485   1.231  17.977   5.923 -0.0595 -0.1358  0.1213
 1192PYPI    C217486   1.408  17.685   5.715  0.0158 -0.1650  0.2253
 1192PYPI    C317487   1.520  18.066   5.661 -0.0327 -0.1624  0.1418
 1192PYPI   PO417488   1.186  17.830   6.134  0.0611 -0.1767 -0.2896
 1192PYPI   GL117489   0.831  17.542   6.309 -0.0865 -0.0817  0.0555
 1192PYPI   GL217490   0.733  17.230   6.412 -0.2141  0.0662  0.1674
 1192PYPI   C1A17491   0.930  17.607   6.710  0.0100 -0.0352  0.0144
 1192PYPI   C2A17492   0.948  17.528   7.110 -0.1193 -0.0197  0.4836
 1192PYPI   D3A17493   1.002  17.774   7.491  0.1583  0.3088 -0.0709
 1192PYPI   C4A17494   0.776  18.063   7.549  0.3896 -0.1698  0.3916
 1192PYPI   C1B17495   0.970  17.143   6.829  0.0898  0.0319 -0.1031
 1192PYPI   C2B17496   1.086  16.923   7.169 -0.0333  0.0598  0.1401
 1192PYPI   C3B17497   1.017  16.918   7.605  0.0679 -0.1934  0.2152
 1192PYPI   C4B17498   0.860  17.013   8.013 -0.0046  0.0806 -0.1024
 1193PYPI    C117499  17.271   0.383   5.716 -0.3071  0.0738  0.0944
 1193PYPI    C217500  17.069   0.192   5.428 -0.1122  0.0106 -0.0029
 1193PYPI    C317501  17.264   0.531   5.344  0.1660 -0.1490 -0.0111
 1193PYPI   PO417502  17.169   0.377   5.956  0.0519  0.1441 -0.0981
 1193PYPI   GL117503  17.076   0.740   6.139  0.0026 -0.1314 -0.1752
 1193PYPI   GL217504  16.782   0.960   6.112  0.1079  0.0706 -0.1298
 1193PYPI   C1A17505  17.259   0.873   6.553  0.0610 -0.0802  0.1566
 1193PYPI   C2A17506  17.266   0.681   6.873  0.1026  0.0743 -0.0196
 1193PYPI   D3A17507  17.098   0.460   7.324 -0.3638  0.0924 -0.1526
 1193PYPI   C4A17508  17.206   0.050   7.511 -0.0707  0.3157 -0.2787
 1193PYPI   C1B17509  16.868   1.155   6.485  0.2066  0.2612  0.1924
 1193PYPI   C2B17510  17.023   1.153   6.922 -0.0107 -0.0155 -0.1662
 1193PYPI   C3B17511  16.973   1.276   7.227  0.3374  0.2347  0.1164
 1193PYPI   C4B17512  16.963   0.987   7.556 -0.1358  0.0922  0.0146
 1194PYPI    C117513  11.765   7.057   5.318  0.0084  0.3011  0.0161
 1194PYPI    C217514  12.093   7.231   5.467  0.2120 -0.1199  0.0733
 1194PYPI    C317515  12.108   7.044   5.114  0.0283 -0.1235  0.0664
 1194PYPI   PO417516  11.687   6.904   5.559 -0.0743 -0.0078  0.1058
 1194PYPI   GL117517  11.868   6.921   5.985  0.1674 -0.0259  0.0729
 1194PYPI   GL217518  11.595   6.917   6.201  0.1117  0.0745  0.2812
 1194PYPI   C1A17519  12.157   6.916   6.296 -0.0726 -0.2694  0.1687
 1194PYPI   C2A17520  12.351   6.951   6.658  0.0752 -0.0290  0.0255
 1194PYPI   D3A17521  12.148   6.922   6.987  0.2293  0.0866  0.1184
 1194PYPI   C4A17522  12.196   7.052   7.428 -0.0997  0.0335 -0.2392
 1194PYPI   C1B17523  11.643   6.968   6.715 -0.1665 -0.0820 -0.0208
 1194PYPI   C2B17524  11.691   6.749   6.981  0.0400  0.2073  0.2006
 1194PYPI   C3B17525  11.713   6.910   7.347 -0.1114  0.0204  0.1573
 1194PYPI   C4B17526  11.791   6.951   7.805  0.1108  0.2499  0.0024
 1195PYPI    C117527   6.256   7.583   5.377 -0.1344 -0.0358 -0.0100
 1195PYPI    C217528   6.153   7.964   5.440  0.1310  0.0331  0.0210
 1195PYPI    C317529   6.147   7.814   5.069  0.2450  0.1345 -0.0226
 1195PYPI   PO417530   6.520   7.460   5.600 -0.4949 -0.3144 -0.0333
 1195PYPI   GL117531   6.783   7.542   5.893  0.0259  0.0775  0.2326
 1195PYPI   GL217532   6.539   7.281   6.033  0.2993 -0.0787 -0.0521
 1195PYPI   C1A17533   6.992   7.778   6.168  0.1505  0.1883 -0.0190
 1195PYPI   C2A17534   7.093   8.230   6.319  0.1084 -0.1277 -0.1853
 1195PYPI   D3A17535   7.150   8.468   6.675 -0.0987 -0.2617  0.0965
 1195PYPI   C4A17536   7.215   8.364   7.107  0.3257  0.0035  0.0682
 1195PYPI   C1B17537   6.613   7.438   6.498 -0.0854  0.0746 -0.0395
 1195PYPI   C2B17538   6.548   7.574   6.854 -0.1315  0.2360  0.1610
 1195PYPI   C3B17539   6.478   7.369   7.203 -0.1082 -0.0530 -0.0324
 1195PYPI   C4B17540   6.589   6.937   7.205 -0.0477 -0.1839  0.3300
 1196PYPI    C117541   3.187   2.708   5.076  0.1585  0.0023 -0.2302
 1196PYPI    C217542   2.822   2.692   4.913 -0.0007  0.2110  0.0952
 1196PYPI    C317543   3.047   2.362   4.932 -0.2273  0.0495  0.0162
 1196PYPI   PO417544   3.089   2.802   5.353 -0.3822 -0.4689  0.4068
 1196PYPI   GL117545   2.904   2.822   5.688 -0.2355  0.2790  0.0084
 1196PYPI   GL217546   2.830   2.551   5.863 -0.2601 -0.0570 -0.0731
 1196PYPI   C1A17547   3.166   2.875   6.046  0.0616  0.0904 -0.5126
 1196PYPI   C2A17548   3.049   2.882   6.464  0.0737 -0.2231 -0.0046
 1196PYPI   D3A17549   2.969   2.947   6.857 -0.1419 -0.2310  0.1518
 1196PYPI   C4A17550   2.614   2.804   7.063 -0.0227 -0.0586  0.1716
 1196PYPI   C1B17551   3.053   2.434   6.193  0.1292  0.0282  0.0475
 1196PYPI   C2B17552   3.310   2.128   6.510 -0.0352 -0.0546  0.1240
 1196PYPI   C3B17553   3.393   2.086   6.971  0.1493  0.0658  0.1176
 1196PYPI   C4B17554   3.356   2.124   7.337 -0.1397  0.0170  0.0255
 1197PYPI    C117555   1.676   5.456   5.368 -0.2533  0.1115  0.0028
 1197PYPI    C217556   1.808   5.079   5.367 -0.0281  0.1822  0.4694
 1197PYPI    C317557   1.442   5.163   5.229 -0.0073 -0.1749  0.1810
 1197PYPI   PO417558   1.769   5.624   5.633  0.0779  0.3303  0.2861
 1197PYPI   GL117559   1.931   5.600   5.966 -0.1323  0.3855 -0.1410
 1197PYPI   GL217560   1.775   5.595   6.254  0.2766  0.0573 -0.0478
 1197PYPI   C1A17561   2.290   5.767   6.164 -0.0278 -0.0026  0.0286
 1197PYPI   C2A17562   2.510   5.816   6.582 -0.1075  0.0282 -0.0712
 1197PYPI   D3A17563   2.694   5.480   6.874  0.5114  0.2313 -0.0228
 1197PYPI   C4A17564   2.920   5.431   7.340  0.1517  0.0183 -0.0311
 1197PYPI   C1B17565   1.992   5.601   6.585  0.2403 -0.2951  0.0901
 1197PYPI   C2B17566   2.209   5.741   6.990  0.0167  0.0826  0.0708
 1197PYPI   C3B17567   2.445   5.865   7.208 -0.1395  0.0790  0.1583
 1197PYPI   C4B17568   2.578   5.849   7.625 -0.0069  0.0578  0.1847
 1198PYPI    C117569   4.677  14.394   5.740 -0.0674 -0.2784 -0.0243
 1198PYPI    C217570   4.659  14.582   5.387 -0.2803  0.0761  0.1695
 1198PYPI    C317571   4.322  14.477   5.575 -0.1657 -0.3292  0.1594
 1198PYPI   PO417572   4.820  14.099   5.669 -0.0634 -0.0108 -0.0425
 1198PYPI   GL117573   4.715  13.738   5.969 -0.1597 -0.2175 -0.1016
 1198PYPI   GL217574   4.522  13.519   6.227  0.0544  0.2046 -0.0831
 1198PYPI   C1A17575   4.339  14.014   6.152 -0.2710  0.2908 -0.0711
 1198PYPI   C2A17576   4.131  14.098   6.595 -0.2808  0.0741 -0.2509
 1198PYPI   D3A17577   4.009  13.706   6.931 -0.1025 -0.0408  0.0045
 1198PYPI   C4A17578   4.130  13.831   7.367  0.0658  0.1505  0.2117
 1198PYPI   C1B17579   4.580  13.622   6.604 -0.0744 -0.1765 -0.5029
 1198PYPI   C2B17580   4.630  13.722   7.020  0.2443  0.0485  0.2208
 1198PYPI   C3B17581   4.470  13.461   7.372 -0.1643 -0.0304 -0.1262
 1198PYPI   C4B17582   4.187  13.395   7.682 -0.0728  0.2973  0.1898
 1199PYPI    C117583  15.828  13.121   5.750 -0.1631  0.1684 -0.0765
 1199PYPI    C217584  15.615  12.951   5.458 -0.0049  0.0750 -0.1393
 1199PYPI    C317585  15.878  13.239   5.371  0.0873  0.0039 -0.0972
 1199PYPI   PO417586  15.836  12.928   5.912  0.0727 -0.3227  0.0474
 1199PYPI   GL117587  15.635  12.734   6.255 -0.0578 -0.1285  0.0536
 1199PYPI   GL217588  15.946  12.817   6.358  0.0671  0.0071 -0.1037
 1199PYPI   C1A17589  15.565  12.610   6.647 -0.2470 -0.1399  0.1530
 1199PYPI   C2A17590  15.808  12.680   7.025  0.3223  0.1685  0.0162
 1199PYPI   D3A17591  16.227  12.971   7.237  0.0490  0.3210  0.0865
 1199PYPI   C4A17592  16.425  13.228   6.893 -0.0182  0.0184  0.0891
 1199PYPI   C1B17593  15.878  13.214   6.593 -0.0074  0.0857  0.1816
 1199PYPI   C2B17594  15.934  13.362   6.941 -0.2295 -0.2707 -0.3599
 1199PYPI   C3B17595  16.161  13.494   7.382  0.0889 -0.2441  0.1725
 1199PYPI   C4B17596  15.984  13.672   7.862 -0.1099  0.0861 -0.1473
 1200PYPI    C117597   7.352  12.177   5.349 -0.0800  0.0566  0.0901
 1200PYPI    C217598   7.190  11.827   5.243  0.3811 -0.1715  0.1142
 1200PYPI    C317599   7.447  12.011   4.998  0.0017  0.2498  0.0194
 1200PYPI   PO417600   7.184  12.218   5.547  0.1690  0.0451  0.0095
 1200PYPI   GL117601   7.278  12.181   6.018 -0.1691 -0.0048  0.0382
 1200PYPI   GL217602   7.521  12.227   6.160 -0.1799  0.4320  0.0095
 1200PYPI   C1A17603   7.053  12.247   6.422  0.0584  0.0829  0.1029
 1200PYPI   C2A17604   6.908  12.264   6.697 -0.1103 -0.0006 -0.1271
 1200PYPI   D3A17605   7.017  12.369   7.190  0.0472  0.1004  0.2072
 1200PYPI   C4A17606   6.722  12.209   7.502  0.0978 -0.0666  0.0534
 1200PYPI   C1B17607   7.450  12.154   6.684  0.4125 -0.0059  0.2225
 1200PYPI   C2B17608   7.199  11.939   7.037 -0.0220  0.1570  0.1102
 1200PYPI   C3B17609   7.285  11.903   7.454  0.0855 -0.0737  0.1754
 1200PYPI   C4B17610   7.543  11.953   7.795 -0.2662 -0.0388  0.2556
 1201PYPI    C117611  15.530   9.129   5.312 -0.0607 -0.0810 -0.0889
 1201PYPI    C217612  15.814   8.873   5.195 -0.0155  0.0083 -0.1750
 1201PYPI    C317613  15.543   9.005   4.932  0.0382  0.1473 -0.1615
 1201PYPI   PO417614  15.412   8.982   5.511  0.0308  0.2348 -0.5529
 1201PYPI   GL117615  15.493   8.975   5.922  0.0285  0.3081  0.0355
 1201PYPI   GL217616  15.315   8.952   6.206 -0.1849 -0.2128  0.3736
 1201PYPI   C1A17617  15.786   8.755   6.079 -0.3402  0.1462 -0.1012
 1201PYPI   C2A17618  15.811   8.609   6.483  0.2110 -0.1456  0.0421
 1201PYPI   D3A17619  15.651   8.487   6.846  0.2576 -0.0818 -0.1299
 1201PYPI   C4A17620  15.592   8.507   7.260 -0.1671 -0.3492  0.2785
 1201PYPI   C1B17621  15.298   8.745   6.562  0.0212  0.0023 -0.2333
 1201PYPI   C2B17622  15.245   8.711   6.983  0.2571  0.0588 -0.0563
 1201PYPI   C3B17623  15.217   9.016   7.305  0.3783  0.0691 -0.1470
 1201PYPI   C4B17624  15.107   8.955   7.755  0.1077 -0.0707  0.1612
 1202PYPI    C117625   2.401   9.099   5.366  0.2461  0.0876 -0.1270
 1202PYPI    C217626   2.285   8.800   5.126  0.2772  0.0238 -0.0627
 1202PYPI    C317627   2.656   8.946   5.098  0.2165  0.1543 -0.1935
 1202PYPI   PO417628   2.407   9.056   5.611  0.1623 -0.0295  0.4505
 1202PYPI   GL117629   2.190   9.123   5.941 -0.0238 -0.0257  0.1366
 1202PYPI   GL217630   2.572   9.117   6.047  0.0597 -0.1959  0.0392
 1202PYPI   C1A17631   2.062   9.038   6.308  0.0662 -0.2697 -0.0381
 1202PYPI   C2A17632   1.915   8.974   6.654  0.0934 -0.0848 -0.2939
 1202PYPI   D3A17633   1.713   8.720   6.972  0.0388  0.0542 -0.0293
 1202PYPI   C4A17634   1.263   8.790   7.119 -0.1220  0.0308  0.0074
 1202PYPI   C1B17635   2.676   8.897   6.334  0.4573  0.4572  0.0093
 1202PYPI   C2B17636   2.407   8.787   6.686 -0.2940  0.4023  0.2190
 1202PYPI   C3B17637   2.169   8.549   6.919  0.2061  0.0627  0.0494
 1202PYPI   C4B17638   1.893   8.267   7.041 -0.0038 -0.0553  0.1303
 1203PYPI    C117639   2.347   6.650   5.182 -0.0874 -0.0960 -0.0286
 1203PYPI    C217640   2.450   7.036   5.161  0.0161 -0.1083  0.2151
 1203PYPI    C317641   2.613   6.771   4.909 -0.2091  0.0367 -0.0897
 1203PYPI   PO417642   2.116   6.695   5.402 -0.2456 -0.1242  0.3429
 1203PYPI   GL117643   2.009   6.584   5.834  0.2712 -0.3030 -0.1298
 1203PYPI   GL217644   2.175   6.473   6.048  0.2299 -0.1070  0.1128
 1203PYPI   C1A17645   1.889   6.847   6.260  0.0604 -0.3524  0.0794
 1203PYPI   C2A17646   1.969   6.628   6.609 -0.1661  0.3324 -0.0561
 1203PYPI   D3A17647   2.178   6.654   7.058 -0.0465 -0.3312  0.3580
 1203PYPI   C4A17648   2.043   6.629   7.529  0.0530  0.1311 -0.4056
 1203PYPI   C1B17649   2.496   6.722   6.295  0.0960  0.0100 -0.0729
 1203PYPI   C2B17650   2.650   6.704   6.617  0.1339  0.0441 -0.2341
 1203PYPI   C3B17651   2.582   6.950   6.918  0.0165  0.0376  0.0665
 1203PYPI   C4B17652   2.354   7.254   7.081  0.1745 -0.1655 -0.0658
 1204PYPI    C117653  17.544   9.656   5.669  0.1295  0.1444 -0.2572
 1204PYPI    C217654  17.827   9.408   5.531 -0.1295 -0.0596 -0.4318
 1204PYPI    C317655  17.445   9.357   5.423 -0.2567  0.1285 -0.0890
 1204PYPI   PO417656  17.558   9.655   5.905  0.1592  0.0713  0.2596
 1204PYPI   GL117657  17.672   9.866   6.261  0.3150 -0.3077 -0.2648
 1204PYPI   GL217658  17.894   9.623   6.296 -0.1190  0.3394  0.2964
 1204PYPI   C1A17659  17.647   9.591   6.669  0.3062  0.1133 -0.3531
 1204PYPI   C2A17660  17.673   9.439   7.081  0.0550  0.1267  0.4667
 1204PYPI   D3A17661  17.608   9.536   7.528  0.0419 -0.0435 -0.1493
 1204PYPI   C4A17662  17.664   9.381   7.854 -0.0283 -0.2429 -0.0170
 1204PYPI   C1B17663  18.129   9.689   6.620  0.1379  0.3283 -0.1512
 1204PYPI   C2B17664  18.158   9.636   7.000 -0.0003 -0.2105 -0.0904
 1204PYPI   C3B17665  18.096   9.483   7.357  0.1804  0.1584  0.2444
 1204PYPI   C4B17666  18.147   9.369   7.796 -0.3125  0.2515  0.0423
 1205PYPI    C117667  14.465  14.346   5.936  0.1549  0.0426  0.0072
 1205PYPI    C217668  14.136  14.489   6.112  0.0746  0.0444 -0.1432
 1205PYPI    C317669  14.126  14.379   5.727  0.2976  0.2191 -0.2008
 1205PYPI   PO417670  14.565  14.283   6.203  0.0370  0.1395  0.2339
 1205PYPI   GL117671  14.442  14.194   6.475 -0.2348 -0.2264 -0.0950
 1205PYPI   GL217672  14.537  13.823   6.354 -0.0240 -0.2101  0.0036
 1205PYPI   C1A17673  14.677  14.079   6.803  0.4419 -0.0768 -0.0408
 1205PYPI   C2A17674  14.617  13.773   7.069 -0.0532 -0.2362 -0.0286
 1205PYPI   D3A17675  14.535  13.576   7.335  0.0291  0.0391  0.0125
 1205PYPI   C4A17676  14.682  13.319   7.689 -0.0217  0.3994  0.0982
 1205PYPI   C1B17677  14.583  13.441   6.564 -0.3162 -0.1064 -0.2130
 1205PYPI   C2B17678  14.479  13.114   6.864  0.0180 -0.0474  0.1740
 1205PYPI   C3B17679  14.192  13.025   7.170 -0.0605  0.1294  0.0311
 1205PYPI   C4B17680  14.394  12.900   7.556 -0.3054  0.2840 -0.0213
 1206PYPI    C117681   0.626  13.399   6.252  0.0001 -0.1162 -0.0756
 1206PYPI    C217682   0.531  13.134   5.967  0.2477 -0.1630 -0.1165
 1206PYPI    C317683   0.880  13.329   5.951  0.1421  0.0393  0.0068
 1206PYPI   PO417684   0.426  13.656   6.250  0.1411 -0.1237  0.2276
 1206PYPI   GL117685   0.135  14.005   6.490 -0.2576  0.0104 -0.2078
 1206PYPI   GL217686   0.140  13.727   6.693 -0.1308 -0.1434 -0.0449
 1206PYPI   C1A17687   0.375  14.216   6.801  0.0535 -0.2988 -0.1508
 1206PYPI   C2A17688   0.322  14.261   7.265  0.0829 -0.1828  0.1807
 1206PYPI   D3A17689   0.383  14.024   7.654 -0.0296  0.2009  0.2205
 1206PYPI   C4A17690   0.373  13.898   8.084  0.1983  0.0326  0.0596
 1206PYPI   C1B17691   0.087  13.746   7.045  0.2319  0.2334  0.0271
 1206PYPI   C2B17692   0.106  13.652   7.413 -0.0940  0.2373 -0.2830
 1206PYPI   C3B17693   0.254  13.477   7.811  0.1882  0.0550  0.1741
 1206PYPI   C4B17694   0.348  13.217   8.234  0.1281 -0.1864  0.1858
 1207PYPI    C117695   5.569   8.870   6.004  0.0123 -0.1734 -0.1313
 1207PYPI    C217696   5.546   8.656   5.667 -0.0242 -0.0971 -0.1774
 1207PYPI    C317697   5.621   9.049   5.650 -0.2340 -0.0529 -0.1087
 1207PYPI   PO417698   5.526   8.690   6.161  0.1332 -0.3146 -0.0765
 1207PYPI   GL117699   5.785   8.532   6.528  0.2122 -0.1231  0.0817
 1207PYPI   GL217700   5.717   8.223   6.382  0.0861 -0.2985 -0.1394
 1207PYPI   C1A17701   5.837   8.339   6.949 -0.3165  0.1570  0.1833
 1207PYPI   C2A17702   5.945   8.322   7.422  0.0871 -0.0147  0.3964
 1207PYPI   D3A17703   5.972   8.039   7.751 -0.0892 -0.0403  0.3227
 1207PYPI   C4A17704   6.219   7.880   8.089 -0.0759 -0.0177 -0.1018
 1207PYPI   C1B17705   5.393   8.229   6.678  0.0339  0.0332 -0.1415
 1207PYPI   C2B17706   5.382   8.259   7.127 -0.0888 -0.0553  0.0561
 1207PYPI   C3B17707   5.412   8.350   7.597  0.1485 -0.1885  0.0300
 1207PYPI   C4B17708   5.546   8.301   8.001  0.1022 -0.1141 -0.0045
 1208PYPI    C117709   9.380   9.595   5.784 -0.0479 -0.2101 -0.0147
 1208PYPI    C217710   9.128   9.847   5.603 -0.2524 -0.2885  0.1565
 1208PYPI    C317711   9.519   9.858   5.517 -0.2746  0.0119  0.0829
 1208PYPI   PO417712   9.314   9.619   6.035  0.0868  0.0999  0.1890
 1208PYPI   GL117713   9.038   9.728   6.448  0.1781 -0.2258  0.0579
 1208PYPI   GL217714   9.101  10.046   6.393  0.0541 -0.1092 -0.1397
 1208PYPI   C1A17715   9.018   9.775   6.880  0.1249 -0.0427  0.0643
 1208PYPI   C2A17716   8.926   9.660   7.385 -0.0301  0.5339 -0.1029
 1208PYPI   D3A17717   8.775   9.928   7.731  0.0252 -0.0303  0.3168
 1208PYPI   C4A17718   8.577   9.697   8.103  0.0020 -0.1333 -0.3064
 1208PYPI   C1B17719   9.076  10.287   6.763 -0.3030 -0.0715 -0.1359
 1208PYPI   C2B17720   8.998  10.205   7.180 -0.0011 -0.0104 -0.2211
 1208PYPI   C3B17721   9.059  10.350   7.579 -0.0050 -0.1194 -0.4444
 1208PYPI   C4B17722   8.890  10.466   7.989 -0.1412 -0.0981  0.1666
 1209PYPI    C117723  13.780   5.511   5.454 -0.0731 -0.1250 -0.1223
 1209PYPI    C217724  13.389   5.454   5.514 -0.1149  0.1398 -0.1302
 1209PYPI    C317725  13.513   5.736   5.259  0.0833  0.1367 -0.0389
 1209PYPI   PO417726  13.880   5.510   5.688  0.0882  0.2534 -0.2089
 1209PYPI   GL117727  14.038   5.562   6.113 -0.1788  0.0710  0.1776
 1209PYPI   GL217728  14.014   5.835   6.169  0.0738 -0.0056 -0.2148
 1209PYPI   C1A17729  14.291   5.443   6.468 -0.0005  0.2610 -0.3571
 1209PYPI   C2A17730  14.400   5.358   6.923 -0.0182  0.2277  0.4629
 1209PYPI   D3A17731  14.082   5.258   7.127  0.2254 -0.0781  0.0865
 1209PYPI   C4A17732  14.074   4.995   7.511 -0.1995  0.0106  0.0703
 1209PYPI   C1B17733  13.937   5.763   6.606  0.1699  0.0720 -0.0157
 1209PYPI   C2B17734  14.088   5.716   6.997  0.1651 -0.0317  0.0193
 1209PYPI   C3B17735  14.209   5.605   7.390 -0.1130  0.1589  0.2220
 1209PYPI   C4B17736  14.060   5.436   7.752 -0.1003  0.0861  0.2065
 1210PYPI    C117737   1.932   3.854   5.706  0.0026  0.0577  0.0925
 1210PYPI    C217738   1.842   3.548   5.948  0.0367  0.0757  0.1282
 1210PYPI    C317739   1.581   3.666   5.668  0.1212 -0.1405 -0.0450
 1210PYPI   PO417740   2.091   4.088   5.909 -0.1953  0.2420  0.1566
 1210PYPI   GL117741   2.232   4.105   6.298  0.0014 -0.0971  0.1156
 1210PYPI   GL217742   2.087   4.426   6.424  0.1631  0.1230 -0.1565
 1210PYPI   C1A17743   2.417   3.890   6.562 -0.0169  0.1044  0.1142
 1210PYPI   C2A17744   2.490   3.884   6.897 -0.2864  0.0600  0.0725
 1210PYPI   D3A17745   2.715   3.806   7.243  0.2089  0.0564  0.0687
 1210PYPI   C4A17746   2.965   3.858   7.739 -0.0351  0.0795 -0.3610
 1210PYPI   C1B17747   2.097   4.207   6.807 -0.3875 -0.0578 -0.2028
 1210PYPI   C2B17748   1.994   4.318   7.178  0.0613  0.0202  0.1031
 1210PYPI   C3B17749   2.005   4.425   7.689 -0.0165  0.1414  0.1685
 1210PYPI   C4B17750   1.969   4.678   7.938 -0.1493 -0.0538 -0.0163
 1211PYPI    C117751   1.446  16.653   5.586  0.1693  0.0068  0.0559
 1211PYPI    C217752   1.300  16.522   5.237 -0.1883  0.1272  0.1567
 1211PYPI    C317753   1.541  16.841   5.245 -0.0027 -0.0073 -0.0009
 1211PYPI   PO417754   1.601  16.551   5.740 -0.1517  0.3046 -0.0884
 1211PYPI   GL117755   1.657  16.470   6.200 -0.2873  0.2090  0.1334
 1211PYPI   GL217756   2.043  16.482   6.300  0.3835  0.4433  0.0140
 1211PYPI   C1A17757   1.515  16.443   6.603  0.1139 -0.0655 -0.0898
 1211PYPI   C2A17758   1.507  16.593   7.034  0.0804  0.0733  0.2591
 1211PYPI   D3A17759   1.769  16.650   7.314 -0.2546  0.0737 -0.4616
 1211PYPI   C4A17760   1.493  16.940   7.686 -0.2979  0.2174  0.0290
 1211PYPI   C1B17761   2.051  16.393   6.613  0.0054 -0.4490  0.3354
 1211PYPI   C2B17762   1.954  16.303   6.957  0.1469 -0.0433 -0.2438
 1211PYPI   C3B17763   2.167  16.346   7.299  0.2995 -0.0813 -0.0609
 1211PYPI   C4B17764   2.346  16.335   7.653 -0.0479 -0.1680  0.0031
 1212PYPI    C117765  10.438   6.820   5.900  0.3125  0.1766 -0.0872
 1212PYPI    C217766  10.294   7.021   5.586  0.1890  0.2320  0.0041
 1212PYPI    C317767  10.335   7.205   5.939 -0.1852  0.0277  0.1607
 1212PYPI   PO417768  10.267   6.607   6.019 -0.1892 -0.3665 -0.2570
 1212PYPI   GL117769  10.037   6.430   6.377  0.2453  0.0147 -0.2671
 1212PYPI   GL217770   9.834   6.626   6.320 -0.2538  0.3808 -0.0960
 1212PYPI   C1A17771   9.958   6.397   6.823 -0.0135  0.0386  0.2482
 1212PYPI   C2A17772   9.981   6.284   7.274  0.0106  0.0961  0.3468
 1212PYPI   D3A17773   9.993   6.304   7.803  0.0321 -0.2202  0.4348
 1212PYPI   C4A17774  10.260   6.162   8.228  0.3019  0.2937 -0.2151
 1212PYPI   C1B17775   9.894   6.904   6.704  0.0537 -0.1643 -0.4360
 1212PYPI   C2B17776   9.847   6.768   7.128  0.0427 -0.0283  0.1515
 1212PYPI   C3B17777   9.813   6.731   7.654 -0.0121 -0.2666 -0.1029
 1212PYPI   C4B17778   9.782   6.638   8.082  0.0211 -0.0720  0.1472
 1213PYPI    C117779  12.335  10.977   5.404 -0.0375 -0.1784 -0.0353
 1213PYPI    C217780  12.401  11.072   5.022 -0.4011 -0.0743 -0.0761
 1213PYPI    C317781  12.296  11.356   5.283 -0.1744 -0.1484  0.0988
 1213PYPI   PO417782  12.620  10.860   5.454 -0.0465 -0.1941 -0.0222
 1213PYPI   GL117783  12.661  10.728   5.844  0.2473  0.0790  0.0921
 1213PYPI   GL217784  12.859  10.685   6.070  0.0130  0.1689 -0.2272
 1213PYPI   C1A17785  12.414  10.470   6.157 -0.2914 -0.1989  0.4920
 1213PYPI   C2A17786  12.530  10.071   6.329 -0.2009 -0.1807  0.1330
 1213PYPI   D3A17787  12.561   9.942   6.659  0.2193  0.0197  0.2324
 1213PYPI   C4A17788  12.067  10.072   6.859  0.2288  0.3812 -0.3426
 1213PYPI   C1B17789  12.762  10.512   6.519  0.0180 -0.2534  0.1910
 1213PYPI   C2B17790  12.794  10.668   6.929 -0.1778  0.3136  0.0800
 1213PYPI   C3B17791  12.779  10.541   7.409 -0.2042  0.0929  0.0320
 1213PYPI   C4B17792  12.588  10.394   7.860 -0.2119 -0.0231  0.1823
 1214ERGO   ROH17793   3.977  11.959   6.165  0.0553  0.0049 -0.0499
 1214ERGO    R117794   3.790  11.971   6.376 -0.0904  0.2420 -0.1882
 1214ERGO    R217795   3.860  11.930   6.640 -0.4035 -0.3330 -0.1798
 1214ERGO    R317796   3.741  12.171   6.676  0.2483 -0.0202  0.0514
 1214ERGO    R417797   3.683  12.021   6.922 -0.4783 -0.2777 -0.2434
 1214ERGO    R517798   3.538  12.120   6.793 -0.0579  0.3665 -0.2772
 1214ERGO    C117799   3.468  12.301   7.121  0.0901  0.0483 -0.0634
 1214ERGO    C217800   3.423  12.230   7.429  0.0329 -0.0765  0.0068
 1215ERGO   ROH17801  12.337  16.958   5.995 -0.0106 -0.0217  0.0927
 1215ERGO    R117802  12.292  17.082   6.245  0.1281 -0.2728  0.2463
 1215ERGO    R217803  12.483  17.089   6.445  0.4833  0.0728 -0.0915
 1215ERGO    R317804  12.437  17.357   6.434 -0.1948 -0.0141  0.1290
 1215ERGO    R417805  12.532  17.309   6.707  0.5548  0.0593 -0.0928
 1215ERGO    R517806  12.348  17.411   6.650  0.1546 -0.3434  0.3701
 1215ERGO    C117807  12.518  17.688   6.850 -0.0403 -0.0298  0.1135
 1215ERGO    C217808  12.490  17.949   7.063  0.2392  0.0238  0.1227
 1216ERGO   ROH17809  18.083  11.582   6.546 -0.1365 -0.0931 -0.0249
 1216ERGO    R117810  17.979  11.376   6.710 -0.0568 -0.0072  0.1350
 1216ERGO    R217811  18.139  11.224   6.878  0.0285  0.0643  0.1159
 1216ERGO    R317812  17.962  11.305   7.067  0.1424  0.1651  0.1815
 1216ERGO    R417813  18.135  11.114   7.205  0.0859  0.0613  0.1163
 1216ERGO    R517814  17.917  11.109   7.196  0.0763  0.1863  0.1945
 1216ERGO    C117815  17.966  11.126   7.574  0.2264  0.1542  0.1781
 1216ERGO    C217816  18.100  11.213   7.915  0.0154 -0.0585 -0.0612
 1217ERGO   ROH17817  12.749  13.661   6.657  0.2141  0.0902 -0.1710
 1217ERGO    R117818  12.726  13.622   6.936  0.2740 -0.1713 -0.2000
 1217ERGO    R217819  12.937  13.535   7.091  0.4465  0.1271 -0.2591
 1217ERGO    R317820  12.881  13.759   7.236 -0.0120 -0.0853 -0.0886
 1217ERGO    R417821  13.043  13.592   7.416  0.5754  0.2128 -0.3150
 1217ERGO    R517822  12.846  13.678   7.459  0.3767 -0.3081 -0.1011
 1217ERGO    C117823  13.051  13.834   7.740  0.2201  0.0634 -0.1875
 1217ERGO    C217824  13.070  13.738   8.056  0.0515  0.1551 -0.3548
 1218ERGO   ROH17825   3.334  13.107   5.917  0.0239 -0.0565  0.0257
 1218ERGO    R117826   3.519  13.114   6.131  0.0286  0.1150  0.0209
 1218ERGO    R217827   3.565  13.342   6.281 -0.1229  0.1879 -0.0160
 1218ERGO    R317828   3.506  13.177   6.489 -0.0140  0.1783  0.0039
 1218ERGO    R417829   3.682  13.381   6.604  0.0013  0.1657 -0.0601
 1218ERGO    R517830   3.709  13.165   6.615  0.0245  0.1839 -0.0794
 1218ERGO    C117831   3.696  13.248   6.987  0.1759  0.1437 -0.0671
 1218ERGO    C217832   3.789  13.214   7.358 -0.3103 -0.0631  0.4895
 1219ERGO   ROH17833  17.908  17.016   6.551 -0.0674 -0.2126 -0.0353
 1219ERGO    R117834  18.079  17.042   6.775 -0.1124 -0.1893 -0.0038
 1219ERGO    R217835  18.107  17.279   6.914 -0.0189 -0.1326 -0.1213
 1219ERGO    R317836  18.041  17.125   7.128 -0.1596  0.0159 -0.0550
 1219ERGO    R417837  18.189  17.352   7.242  0.1588 -0.1242 -0.1663
 1219ERGO    R517838  18.232  17.140   7.272 -0.0982 -0.1742 -0.1107
 1219ERGO    C117839  18.175  17.248   7.634  0.1302  0.0201 -0.1303
 1219ERGO    C217840  18.116  17.486   7.823 -0.0564  0.0071 -0.1623
 1220ERGO   ROH17841  10.665   6.325   6.224 -0.2256  0.0353  0.0946
 1220ERGO    R117842  10.848   6.279   6.435 -0.1973  0.0935  0.0825
 1220ERGO    R217843  10.821   6.397   6.683 -0.2411  0.0535  0.0958
 1220ERGO    R317844  10.834   6.140   6.771 -0.1221  0.0493  0.0678
 1220ERGO    R417845  10.898   6.303   7.007 -0.3280  0.0611  0.1190
 1220ERGO    R517846  11.018   6.140   6.926 -0.1894  0.1440  0.1503
 1220ERGO    C117847  10.955   6.007   7.278 -0.2668  0.0616  0.1063
 1220ERGO    C217848  10.832   5.869   7.555 -0.0911 -0.0262  0.2773
 1221ERGO   ROH17849   4.951  13.834   6.386 -0.0213  0.0199 -0.0868
 1221ERGO    R117850   5.101  13.876   6.622 -0.1002 -0.1621 -0.0015
 1221ERGO    R217851   5.136  14.127   6.732  0.1492 -0.2006  0.0099
 1221ERGO    R317852   5.038  14.007   6.956 -0.1291 -0.0750 -0.0403
 1221ERGO    R417853   5.138  14.267   7.048  0.1458 -0.1900  0.0052
 1221ERGO    R517854   5.190  14.072   7.129 -0.1427 -0.2581  0.0434
 1221ERGO    C117855   5.047  14.236   7.442 -0.1174 -0.0658 -0.0446
 1221ERGO    C217856   5.198  14.350   7.777 -0.1919 -0.2822  0.2861
 1222ERGO   ROH17857   8.591  14.404   6.120 -0.0963  0.0072  0.0375
 1222ERGO    R117858   8.495  14.504   6.367 -0.2490 -0.1629  0.0513
 1222ERGO    R217859   8.375  14.342   6.556  0.2641 -0.4403  0.1712
 1222ERGO    R317860   8.565  14.448   6.720  0.0833  0.1273  0.0348
 1222ERGO    R417861   8.332  14.408   6.893  0.3033 -0.5212  0.1907
 1222ERGO    R517862   8.444  14.593   6.866 -0.2378 -0.1962  0.0942
 1222ERGO    C117863   8.485  14.545   7.242  0.1565 -0.0356  0.0741
 1222ERGO    C217864   8.354  14.632   7.569  0.2670  0.0079 -0.4566
 1223ERGO   ROH17865  13.345  10.826   6.191 -0.0324 -0.0480 -0.1909
 1223ERGO    R117866  13.448  10.845   6.455 -0.0112 -0.0905 -0.1965
 1223ERGO    R217867  13.356  11.030   6.637  0.0755 -0.0532 -0.1931
 1223ERGO    R317868  13.317  10.810   6.792 -0.0071 -0.0364 -0.1889
 1223ERGO    R417869  13.294  11.036   6.977  0.1794 -0.0255 -0.1739
 1223ERGO    R517870  13.424  10.863   6.999  0.0867 -0.1041 -0.2184
 1223ERGO    C117871  13.221  10.833   7.321  0.1624  0.0063 -0.1588
 1223ERGO    C217872  13.051  10.824   7.663 -0.1325 -0.1231  0.0461
 1224ERGO   ROH17873   1.762   9.621   6.002  0.0287  0.0267  0.1383
 1224ERGO    R117874   1.674   9.558   6.263  0.0110  0.0683  0.1414
 1224ERGO    R217875   1.847   9.488   6.466 -0.0124  0.0270  0.1405
 1224ERGO    R317876   1.724   9.691   6.598  0.0511  0.0691  0.1367
 1224ERGO    R417877   1.887   9.557   6.803 -0.1164 -0.0938  0.1786
 1224ERGO    R517878   1.673   9.599   6.813 -0.1022  0.0355  0.0918
 1224ERGO    C117879   1.794   9.787   7.122 -0.1174 -0.1245  0.1973
 1224ERGO    C217880   1.837   9.738   7.387 -0.1273 -0.1884 -0.1715
 1225ERGO   ROH17881   4.103   7.035   6.020 -0.0076 -0.1682 -0.0829
 1225ERGO    R117882   3.999   6.991   6.279 -0.0090 -0.1028 -0.0715
 1225ERGO    R217883   4.008   6.745   6.404  0.0015 -0.0713 -0.0023
 1225ERGO    R317884   4.130   6.886   6.602 -0.0064 -0.0089 -0.0424
 1225ERGO    R417885   4.057   6.630   6.726 -0.0790  0.0643  0.0586
 1225ERGO    R517886   4.006   6.829   6.800 -0.0511  0.1052 -0.0393
 1225ERGO    C117887   4.199   6.694   7.100 -0.1332  0.2018  0.0564
 1225ERGO    C217888   4.270   6.667   7.430  0.0844 -0.0603 -0.0054
 1226ERGO   ROH17889   4.522   6.839   6.092 -0.0860 -0.0630  0.0909
 1226ERGO    R117890   4.478   6.778   6.365 -0.0280 -0.1398  0.0825
 1226ERGO    R217891   4.569   6.545   6.482  0.0619 -0.1336  0.0137
 1226ERGO    R317892   4.683   6.716   6.659  0.0309 -0.1418  0.0431
 1226ERGO    R417893   4.656   6.463   6.806 -0.1065 -0.1283  0.0620
 1226ERGO    R517894   4.583   6.659   6.869 -0.0837 -0.0949  0.0073
 1226ERGO    C117895   4.814   6.577   7.161 -0.2337 -0.1329  0.1177
 1226ERGO    C217896   4.782   6.472   7.489  0.0795 -0.1941 -0.0227
 1227ERGO   ROH17897  18.047   6.755   5.960  0.0143  0.1902 -0.0213
 1227ERGO    R117898  17.879   6.816   6.179  0.0151  0.1901 -0.0202
 1227ERGO    R217899  17.651   6.671   6.237 -0.0462  0.2588 -0.0850
 1227ERGO    R317900  17.767   6.648   6.481 -0.0789  0.1438 -0.0803
 1227ERGO    R417901  17.508   6.512   6.508 -0.1885  0.3403 -0.1117
 1227ERGO    R517902  17.585   6.671   6.636 -0.0723  0.2690 -0.0902
 1227ERGO    C117903  17.534   6.397   6.896 -0.3024  0.2799 -0.1227
 1227ERGO    C217904  17.533   6.228   7.133 -0.1643  0.0815 -0.1479
 1228ERGO   ROH17905   1.318  18.062   6.520  0.0265  0.1289 -0.1341
 1228ERGO    R117906   1.265  18.033   6.797 -0.0274  0.1058 -0.1457
 1228ERGO    R217907   1.466  18.034   6.987 -0.0462 -0.0591 -0.1165
 1228ERGO    R317908   1.314  18.231   7.098  0.0624  0.0166 -0.1020
 1228ERGO    R417909   1.467  18.120   7.322 -0.0369 -0.1150 -0.1029
 1228ERGO    R517910   1.251  18.144   7.312 -0.0192  0.0217 -0.1260
 1228ERGO    C117911   1.326  18.355   7.621  0.0705 -0.0762 -0.0815
 1228ERGO    C217912   1.430  18.391   7.915 -0.1676 -0.0041  0.1178
 1229ERGO   ROH17913   9.768   3.684   5.914 -0.2274 -0.1906 -0.0093
 1229ERGO    R117914   9.623   3.653   6.155 -0.1084 -0.2699  0.0516
 1229ERGO    R217915   9.710   3.491   6.362  0.1424 -0.1060  0.0699
 1229ERGO    R317916   9.681   3.718   6.508 -0.0553 -0.0904  0.0131
 1229ERGO    R417917   9.654   3.501   6.702  0.3140 -0.0821  0.0997
 1229ERGO    R517918   9.514   3.664   6.670  0.0899 -0.2551  0.1210
 1229ERGO    C117919   9.594   3.720   7.038  0.2284 -0.0536  0.0636
 1229ERGO    C217920   9.744   3.661   7.366  0.1286  0.1217  0.1952
 1230ERGO   ROH17921   6.385   4.717   5.773 -0.2369  0.1471 -0.0761
 1230ERGO    R117922   6.524   4.597   5.988 -0.0766  0.1696 -0.1677
 1230ERGO    R217923   6.574   4.730   6.225 -0.1340  0.1050 -0.1247
 1230ERGO    R317924   6.453   4.513   6.335  0.0867 -0.0552 -0.1855
 1230ERGO    R417925   6.579   4.652   6.561 -0.2068  0.1171 -0.1192
 1230ERGO    R517926   6.604   4.442   6.507  0.0950  0.1430 -0.1054
 1230ERGO    C117927   6.468   4.403   6.861 -0.0419 -0.0262 -0.1730
 1230ERGO    C217928   6.363   4.320   7.129  0.1906 -0.0657  0.1349
 1231ERGO   ROH17929  13.517  15.414   6.523 -0.1847 -0.1269  0.1689
 1231ERGO    R117930  13.571  15.336   6.789 -0.1915 -0.0018  0.2076
 1231ERGO    R217931  13.806  15.401   6.919 -0.1307 -0.0709  0.1288
 1231ERGO    R317932  13.636  15.502   7.106 -0.0363  0.1466  0.1001
 1231ERGO    R417933  13.899  15.497   7.237 -0.0446 -0.1322  0.1226
 1231ERGO    R517934  13.714  15.409   7.312 -0.1556  0.0838  0.1199
 1231ERGO    C117935  13.794  15.648   7.599  0.0943  0.0364  0.0919
 1231ERGO    C217936  13.894  15.660   7.985  0.3531  0.1572 -0.0301
 1232ERGO   ROH17937   3.059  14.965   6.163 -0.0210 -0.1371  0.0449
 1232ERGO    R117938   3.044  15.118   6.401 -0.1314 -0.1911  0.0724
 1232ERGO    R217939   2.915  15.027   6.628  0.0909 -0.4055  0.1123
 1232ERGO    R317940   3.154  15.081   6.746  0.0696 -0.0884  0.0227
 1232ERGO    R417941   2.962  15.081   6.966  0.1433 -0.3957  0.1042
 1232ERGO    R517942   3.102  15.240   6.917 -0.0924 -0.1830  0.0697
 1232ERGO    C117943   3.214  15.162   7.274  0.1539 -0.0924  0.0154
 1232ERGO    C217944   3.387  15.016   7.532 -0.1039 -0.2305 -0.3887
 1233ERGO   ROH17945  11.298  17.438   6.084 -0.0251  0.1502  0.0680
 1233ERGO    R117946  11.186  17.414   6.342 -0.0365  0.0677  0.0557
 1233ERGO    R217947  11.286  17.241   6.532  0.0119  0.0737  0.0349
 1233ERGO    R317948  11.298  17.466   6.685 -0.0819  0.0534  0.0732
 1233ERGO    R417949  11.264  17.247   6.877  0.1594 -0.0133  0.0464
 1233ERGO    R517950  11.141  17.426   6.861  0.0223 -0.0961  0.1357
 1233ERGO    C117951  11.263  17.462   7.221  0.1572 -0.0831  0.0892
 1233ERGO    C217952  11.208  17.390   7.620  0.1527 -0.0050 -0.0341
 1234ERGO   ROH17953   9.554   1.724   5.564  0.1557 -0.0891  0.0083
 1234ERGO    R117954   9.672   1.663   5.814  0.1610  0.3825  0.1309
 1234ERGO    R217955   9.687   1.847   6.020 -0.5458  0.5492  0.0631
 1234ERGO    R317956   9.563   1.650   6.161 -0.0747  0.2286  0.0530
 1234ERGO    R417957   9.708   1.805   6.363 -0.2494  0.4148  0.0325
 1234ERGO    R517958   9.720   1.590   6.331  0.1544  0.4486 -0.0761
 1234ERGO    C117959   9.603   1.596   6.694  0.3654  0.0355  0.0052
 1234ERGO    C217960   9.710   1.768   7.019 -0.2115  0.1259  0.1287
 1235ERGO   ROH17961   4.153   0.507   6.012  0.2506  0.0299 -0.0863
 1235ERGO    R117962   4.079   0.610   6.265  0.2116  0.0723 -0.1164
 1235ERGO    R217963   4.015   0.448   6.480  0.1397  0.1117 -0.1160
 1235ERGO    R317964   4.207   0.594   6.605  0.1315  0.0967 -0.0830
 1235ERGO    R417965   4.018   0.523   6.817  0.1616 -0.0289 -0.0833
 1235ERGO    R517966   4.087   0.723   6.767  0.1209  0.0104 -0.0140
 1235ERGO    C117967   4.200   0.704   7.131  0.1668 -0.1248 -0.0333
 1235ERGO    C217968   4.419   0.762   7.419 -0.0377  0.1641 -0.0754
 1236ERGO   ROH17969  11.217   7.399   6.280  0.0251  0.0042  0.0597
 1236ERGO    R117970  11.343   7.319   6.520  0.1055  0.0982  0.0494
 1236ERGO    R217971  11.338   7.474   6.749 -0.0822  0.0475  0.0810
 1236ERGO    R317972  11.240   7.246   6.861  0.1702 -0.0902  0.0298
 1236ERGO    R417973  11.307   7.419   7.089 -0.1483 -0.0073  0.0665
 1236ERGO    R517974  11.375   7.214   7.057  0.1362  0.0792  0.0829
 1236ERGO    C117975  11.198   7.174   7.392  0.0501 -0.1685  0.0099
 1236ERGO    C217976  11.000   7.370   7.611  0.4792 -0.2410  0.1041
 1237ERGO   ROH17977  11.544   1.429   6.037 -0.0144  0.1470  0.0692
 1237ERGO    R117978  11.583   1.234   6.238 -0.0175  0.1136  0.0384
 1237ERGO    R217979  11.833   1.137   6.306 -0.0154  0.1121  0.0370
 1237ERGO    R317980  11.760   1.214   6.556 -0.0347  0.0680  0.0444
 1237ERGO    R417981  12.007   1.061   6.594  0.0975  0.2758  0.0130
 1237ERGO    R517982  11.816   1.027   6.694  0.1439  0.1249  0.0480
 1237ERGO    C117983  12.040   1.089   6.998  0.1451  0.3298  0.0060
 1237ERGO    C217984  12.220   1.020   7.209 -0.1371  0.2616  0.0788
 1238ERGO   ROH17985   4.124   5.676   6.109 -0.0814  0.0140  0.0163
 1238ERGO    R117986   4.092   5.712   6.388 -0.0970 -0.0365  0.0212
 1238ERGO    R217987   3.857   5.651   6.520 -0.0971 -0.0808  0.0006
 1238ERGO    R317988   4.022   5.501   6.675 -0.0902 -0.0921 -0.0177
 1238ERGO    R417989   3.792   5.561   6.847 -0.0518 -0.0465  0.0191
 1238ERGO    R517990   4.002   5.597   6.894 -0.0380 -0.0723 -0.0213
 1238ERGO    C117991   3.908   5.367   7.184 -0.0191 -0.0371  0.0127
 1238ERGO    C217992   3.792   5.296   7.513 -0.2690 -0.3052  0.0749
 1239ERGO   ROH17993   3.702  15.843   5.999  0.0295 -0.2355  0.1532
 1239ERGO    R117994   3.721  15.963   6.255  0.0614  0.0228  0.0339
 1239ERGO    R217995   3.669  15.826   6.488  0.0336  0.2706  0.1820
 1239ERGO    R317996   3.917  15.911   6.557  0.0549  0.2845  0.0846
 1239ERGO    R417997   3.767  15.907   6.809  0.1712  0.2244  0.1507
 1239ERGO    R517998   3.878  16.076   6.727  0.1153  0.2490  0.1307
 1239ERGO    C117999   4.058  16.035   7.061  0.2713  0.2105  0.0411
 1239ERGO    C218000   3.998  16.008   7.388  0.2132  0.3093  0.0755
 1240ERGO   ROH18001   5.676  10.428   6.344 -0.1745  0.1006 -0.1071
 1240ERGO    R118002   5.666  10.394   6.625 -0.2518  0.0423 -0.1148
 1240ERGO    R218003   5.806  10.557   6.799 -0.0076 -0.2132 -0.0552
 1240ERGO    R318004   5.561  10.593   6.911  0.0300  0.1398 -0.0780
 1240ERGO    R418005   5.749  10.612   7.136  0.0286 -0.2229 -0.0490
 1240ERGO    R518006   5.576  10.481   7.123 -0.1771  0.0543 -0.1112
 1240ERGO    C118007   5.486  10.677   7.437  0.0850  0.1028 -0.0667
 1240ERGO    C218008   5.257  10.924   7.605 -0.2150  0.1659  0.0091
 1241ERGO   ROH18009  14.114   8.103   6.236  0.1877  0.2808 -0.1002
 1241ERGO    R118010  14.108   8.181   6.508 -0.0790  0.0124 -0.0227
 1241ERGO    R218011  14.090   7.999   6.715  0.2743 -0.2381 -0.2010
 1241ERGO    R318012  14.314   8.127   6.803 -0.0351  0.2011 -0.0176
 1241ERGO    R418013  14.192   8.013   7.045  0.1472 -0.3131 -0.1579
 1241ERGO    R518014  14.249   8.222   7.013 -0.3200 -0.1420  0.0571
 1241ERGO    C118015  14.461   8.141   7.320 -0.2173  0.0557  0.0393
 1241ERGO    C218016  14.444   8.086   7.593 -0.2002  0.2437  0.1866
 1242ERGO   ROH18017  17.583   8.714   6.027  0.0006 -0.0623 -0.0214
 1242ERGO    R118018  17.734   8.592   6.233  0.0658 -0.0584 -0.0673
 1242ERGO    R218019  17.914   8.733   6.389 -0.0396 -0.0103  0.0110
 1242ERGO    R318020  17.768   8.630   6.593  0.0127 -0.2040 -0.0465
 1242ERGO    R418021  18.036   8.671   6.706 -0.0487  0.0102  0.0191
 1242ERGO    R518022  17.921   8.486   6.709  0.1214 -0.0971 -0.0567
 1242ERGO    C118023  17.970   8.539   7.083 -0.0047 -0.1596 -0.0302
 1242ERGO    C218024  18.099   8.539   7.420  0.1577  0.0575  0.1265
 1243ERGO   ROH18025  14.710   4.718   5.808  0.1691  0.3024 -0.1945
 1243ERGO    R118026  14.640   4.655   6.075 -0.0726  0.2250 -0.2731
 1243ERGO    R218027  14.812   4.693   6.287 -0.0861 -0.2615 -0.1581
 1243ERGO    R318028  14.604   4.834   6.390  0.1275  0.0585 -0.1536
 1243ERGO    R418029  14.743   4.725   6.624 -0.0853 -0.2249 -0.1620
 1243ERGO    R518030  14.530   4.705   6.577 -0.1149  0.1343 -0.1963
 1243ERGO    C118031  14.506   4.877   6.916  0.1156  0.0969 -0.1601
 1243ERGO    C218032  14.562   4.872   7.191 -0.1928 -0.0656  0.2227
 1244ERGO   ROH18033  17.460  17.938   6.670  0.0043  0.1531 -0.1641
 1244ERGO    R118034  17.572  18.092   6.880 -0.0381 -0.0157 -0.0143
 1244ERGO    R218035  17.567  18.368   6.882  0.2804 -0.0031  0.0305
 1244ERGO    R318036  17.451  18.333   7.125 -0.0239  0.0772 -0.0993
 1244ERGO    R418037  17.610  18.577   7.154  0.2775 -0.1437  0.1388
 1244ERGO    R518038  17.619  18.400   7.281 -0.0936 -0.1959  0.0981
 1244ERGO    C118039  17.526  18.665   7.540 -0.0096 -0.1503  0.0799
 1244ERGO    C218040  17.530  18.721   7.891  0.2612  0.0642 -0.0417
 1245ERGO   ROH18041   8.951   5.277   6.032 -0.1993  0.2051 -0.0270
 1245ERGO    R118042   9.034   5.416   6.264 -0.0239  0.0165  0.0251
 1245ERGO    R218043   8.855   5.510   6.454  0.0817  0.2735 -0.0032
 1245ERGO    R318044   9.011   5.366   6.624 -0.1980 -0.0271  0.0099
 1245ERGO    R418045   8.844   5.532   6.798  0.1588  0.3763 -0.0066
 1245ERGO    R518046   9.061   5.518   6.801  0.1439 -0.0845 -0.0276
 1245ERGO    C118047   8.984   5.411   7.159 -0.0590  0.1539  0.0037
 1245ERGO    C218048   9.108   5.371   7.533  0.1369 -0.0556 -0.1524
 1246ERGO   ROH18049   2.065  15.939   6.090  0.0954 -0.0093 -0.0100
 1246ERGO    R118050   2.117  15.935   6.369  0.1462 -0.0872 -0.0206
 1246ERGO    R218051   2.251  15.727   6.492  0.3315 -0.0349 -0.1341
 1246ERGO    R318052   2.412  15.927   6.582  0.1909  0.0539 -0.0745
 1246ERGO    R418053   2.333  15.781   6.824  0.0993  0.0682 -0.0911
 1246ERGO    R518054   2.312  15.995   6.789  0.0288  0.0550 -0.1493
 1246ERGO    C118055   2.531  16.000   7.101 -0.1679  0.2117 -0.0102
 1246ERGO    C218056   2.606  15.993   7.399 -0.1776  0.0003 -0.1262
 1247ERGO   ROH18057   0.353   4.820   6.110 -0.1332  0.2176  0.2342
 1247ERGO    R118058   0.218   4.840   6.357 -0.0648  0.0666  0.2862
 1247ERGO    R218059   0.308   4.715   6.587  0.0747  0.0342  0.2218
 1247ERGO    R318060   0.293   4.966   6.690 -0.0185 -0.0048  0.3013
 1247ERGO    R418061   0.320   4.792   6.924  0.3673 -0.0327  0.2288
 1247ERGO    R518062   0.164   4.940   6.891  0.2150 -0.1517  0.4306
 1247ERGO    C118063   0.312   5.072   7.217  0.4503 -0.1082  0.3075
 1247ERGO    C218064   0.384   5.239   7.442  0.1739 -0.0732 -0.1895
 1248ERGO   ROH18065  18.100  10.150   6.307  0.0379  0.1259  0.0665
 1248ERGO    R118066  18.061  10.247   6.570 -0.2673  0.1223  0.0260
 1248ERGO    R218067  17.848  10.169   6.727 -0.1587 -0.3045 -0.0265
 1248ERGO    R318068  18.043  10.105   6.905 -0.0681  0.1762  0.0605
 1248ERGO    R418069  17.793  10.072   7.055 -0.0859 -0.5836 -0.0938
 1248ERGO    R518070  17.965  10.193   7.114 -0.4449 -0.1117  0.0514
 1248ERGO    C118071  17.945   9.956   7.412  0.0416 -0.2949 -0.0512
 1248ERGO    C218072  18.006   9.875   7.781 -0.0966 -0.1124  0.0653
 1249ERGO   ROH18073  13.725  15.812   6.726 -0.3301  0.1090 -0.0058
 1249ERGO    R118074  13.875  15.882   6.955 -0.1378 -0.0968 -0.0649
 1249ERGO    R218075  13.841  16.122   7.088  0.2421 -0.0461 -0.0433
 1249ERGO    R318076  13.805  15.961   7.303  0.1088 -0.0045 -0.0346
 1249ERGO    R418077  13.832  16.229   7.416  0.1425 -0.0024 -0.0602
 1249ERGO    R518078  13.947  16.053   7.472  0.0668 -0.0261  0.0097
 1249ERGO    C118079  13.793  16.140   7.810 -0.0406  0.0624 -0.0619
 1249ERGO    C218080  13.758  16.134   8.174  0.2306 -0.1229 -0.0545
 1250ERGO   ROH18081   4.695  15.628   6.060  0.1205  0.0652  0.0945
 1250ERGO    R118082   4.592  15.547   6.311  0.0710 -0.1524  0.0057
 1250ERGO    R218083   4.592  15.282   6.392  0.3462 -0.1875 -0.0926
 1250ERGO    R318084   4.722  15.383   6.609  0.0987 -0.1026  0.0207
 1250ERGO    R418085   4.593  15.139   6.707  0.4926 -0.4061 -0.1900
 1250ERGO    R518086   4.575  15.339   6.792  0.1107 -0.4899 -0.0556
 1250ERGO    C118087   4.715  15.150   7.093  0.3455 -0.4538 -0.1404
 1250ERGO    C218088   4.777  15.041   7.502  0.1317  0.1210  0.1875
 1251ERGO   ROH18089   8.578  16.060   5.903 -0.1154  0.1819 -0.0994
 1251ERGO    R118090   8.473  15.973   6.151 -0.0414  0.1119 -0.0924
 1251ERGO    R218091   8.633  15.869   6.351  0.0326  0.1551 -0.1289
 1251ERGO    R318092   8.515  16.062   6.501 -0.0239  0.0906 -0.0887
 1251ERGO    R418093   8.633  15.878   6.697 -0.0784  0.0152 -0.1238
 1251ERGO    R518094   8.426  15.945   6.690 -0.0803  0.0095 -0.1639
 1251ERGO    C118095   8.523  16.066   7.039 -0.1959 -0.1268 -0.0832
 1251ERGO    C218096   8.568  16.011   7.401  0.0108  0.0076  0.1912
 1252ERGO   ROH18097  13.332  12.901   6.189 -0.1408  0.0099  0.1294
 1252ERGO    R118098  13.299  12.767   6.436 -0.1219 -0.0444  0.1029
 1252ERGO    R218099  13.442  12.539   6.502 -0.0366  0.0022  0.0870
 1252ERGO    R318100  13.510  12.684   6.722 -0.1289 -0.0041  0.1193
 1252ERGO    R418101  13.400  12.435   6.829 -0.1162 -0.0289  0.0669
 1252ERGO    R518102  13.337  12.637   6.880 -0.1669 -0.0460  0.0638
 1252ERGO    C118103  13.440  12.510   7.225 -0.2492 -0.0528  0.0856
 1252ERGO    C218104  13.463  12.308   7.529  0.0443  0.0105  0.0895
 1253ERGO   ROH18105   8.619  13.944   6.086 -0.0099  0.0165 -0.0266
 1253ERGO    R118106   8.680  13.842   6.343  0.1501  0.0053 -0.0686
 1253ERGO    R218107   8.821  13.987   6.531 -0.0312  0.1325 -0.0292
 1253ERGO    R318108   8.607  13.932   6.688  0.0526 -0.2187 -0.0289
 1253ERGO    R418109   8.793  14.077   6.863 -0.2849  0.3297 -0.1010
 1253ERGO    R518110   8.702  13.883   6.903  0.1297  0.1508  0.0289
 1253ERGO    C118111   8.574  14.078   7.204 -0.3539  0.1150 -0.1426
 1253ERGO    C218112   8.600  14.157   7.543  0.0207  0.1708 -0.0033
 1254ERGO   ROH18113  17.365   1.811   6.261 -0.1747  0.1806 -0.1061
 1254ERGO    R118114  17.307   2.009   6.455 -0.0928  0.1519 -0.0512
 1254ERGO    R218115  17.105   1.980   6.642 -0.0622  0.1552 -0.0144
 1254ERGO    R318116  17.306   2.031   6.819 -0.0138  0.0732 -0.0462
 1254ERGO    R418117  17.064   2.007   6.984  0.0209  0.0735  0.0019
 1254ERGO    R518118  17.205   2.174   6.983  0.0496  0.0479  0.0138
 1254ERGO    C118119  17.228   2.070   7.349  0.1146 -0.0509 -0.0185
 1254ERGO    C218120  17.138   2.022   7.701  0.0660 -0.0063  0.3032
 1255ERGO   ROH18121   1.423  12.006   6.193  0.2499  0.1852  0.1430
 1255ERGO    R118122   1.427  11.951   6.471  0.4226  0.0803  0.1217
 1255ERGO    R218123   1.319  11.721   6.578 -0.0148  0.2859  0.1538
 1255ERGO    R318124   1.566  11.693   6.687  0.0586 -0.3383 -0.1282
 1255ERGO    R418125   1.393  11.515   6.846 -0.2506  0.2209  0.1716
 1255ERGO    R518126   1.524  11.673   6.923  0.2842 -0.0905 -0.0664
 1255ERGO    C118127   1.669  11.370   7.105 -0.3191 -0.4029 -0.0828
 1255ERGO    C218128   1.907  11.241   7.354 -0.3312  0.0354 -0.3390
 1256ERGO   ROH18129  15.417  17.956   6.440  0.2276 -0.1364 -0.0572
 1256ERGO    R118130  15.353  18.079   6.687  0.1278 -0.1354 -0.0836
 1256ERGO    R218131  15.104  18.059   6.803  0.1318 -0.2732 -0.1046
 1256ERGO    R318132  15.246  17.970   7.017  0.1667 -0.1469 -0.0737
 1256ERGO    R418133  14.998  18.080   7.132 -0.0442 -0.5177 -0.1420
 1256ERGO    R518134  15.203  18.133   7.188 -0.1327 -0.2522 -0.0391
 1256ERGO    C118135  15.070  18.009   7.524 -0.1138 -0.5416 -0.1348
 1256ERGO    C218136  14.849  18.082   7.744  0.2056  0.1787  0.0581
 1257ERGO   ROH18137  12.006   6.473   6.119  0.0395 -0.2142  0.1329
 1257ERGO    R118138  12.018   6.360   6.378  0.0671 -0.1292  0.1684
 1257ERGO    R218139  12.198   6.446   6.569 -0.0357  0.0576  0.1802
 1257ERGO    R318140  11.974   6.477   6.720 -0.0900 -0.0611  0.1261
 1257ERGO    R418141  12.192   6.457   6.915 -0.0911  0.2860  0.1740
 1257ERGO    R518142  12.010   6.336   6.911  0.0250  0.1006  0.2278
 1257ERGO    C118143  11.978   6.492   7.257 -0.1742  0.3075  0.1197
 1257ERGO    C218144  12.081   6.609   7.632 -0.2221  0.0766  0.2955
 1258ERGO   ROH18145   9.610   0.426   5.777  0.0110 -0.1747  0.0552
 1258ERGO    R118146   9.753   0.585   5.963  0.0657 -0.2165  0.0481
 1258ERGO    R218147   9.631   0.706   6.179  0.0850 -0.0659 -0.0281
 1258ERGO    R318148   9.823   0.575   6.320 -0.0469 -0.1544  0.0729
 1258ERGO    R418149   9.717   0.775   6.507  0.1838  0.1360 -0.0935
 1258ERGO    R518150   9.926   0.746   6.453  0.1521 -0.1435 -0.0876
 1258ERGO    C118151   9.947   0.691   6.830  0.1176  0.1704 -0.0368
 1258ERGO    C218152  10.051   0.656   7.170  0.3277  0.1058  0.1135
 1259ERGO   ROH18153   1.056   6.477   6.252 -0.1003  0.2359  0.0465
 1259ERGO    R118154   0.946   6.549   6.503 -0.0954  0.0884  0.0928
 1259ERGO    R218155   0.911   6.367   6.708  0.0053 -0.0137  0.0269
 1259ERGO    R318156   1.056   6.548   6.850 -0.0448 -0.0126  0.0752
 1259ERGO    R418157   0.934   6.377   7.053 -0.1021 -0.0042  0.0336
 1259ERGO    R518158   0.922   6.594   7.043 -0.1015 -0.0109  0.0302
 1259ERGO    C118159   1.083   6.553   7.387 -0.2116  0.0023  0.0828
 1259ERGO    C218160   1.214   6.480   7.687  0.0691 -0.0314 -0.3358
 1260ERGO   ROH18161   0.545   1.620   5.877  0.1751  0.0854  0.1065
 1260ERGO    R118162   0.568   1.608   6.158  0.1095  0.0340  0.1101
 1260ERGO    R218163   0.750   1.759   6.300  0.0668  0.0187  0.1822
 1260ERGO    R318164   0.530   1.838   6.438  0.0300 -0.0209  0.1452
 1260ERGO    R418165   0.754   1.884   6.622 -0.0170 -0.1063  0.2315
 1260ERGO    R518166   0.573   1.768   6.663 -0.0391 -0.1122  0.1324
 1260ERGO    C118167   0.549   2.030   6.940 -0.1003 -0.2163  0.2254
 1260ERGO    C218168   0.680   1.995   7.266  0.0942  0.0217 -0.0834
 1261ERGO   ROH18169  15.104  15.559   6.502 -0.1674  0.0965 -0.1019
 1261ERGO    R118170  14.916  15.626   6.703 -0.1726 -0.0286 -0.0648
 1261ERGO    R218171  14.861  15.460   6.916  0.1064  0.0070  0.0375
 1261ERGO    R318172  14.922  15.681   7.062 -0.0996  0.1543 -0.0932
 1261ERGO    R418173  14.844  15.480   7.261  0.4827  0.0627  0.0581
 1261ERGO    R518174  14.762  15.681   7.240  0.1069 -0.0799  0.0996
 1261ERGO    C118175  14.891  15.699   7.599  0.5086  0.2333 -0.0524
 1261ERGO    C218176  14.806  15.628   7.957 -0.0882 -0.2845  0.0826
 1262ERGO   ROH18177   5.475   7.739   6.421 -0.1374  0.0783 -0.0435
 1262ERGO    R118178   5.552   7.661   6.682 -0.1939  0.0121 -0.0467
 1262ERGO    R218179   5.701   7.823   6.848 -0.1703 -0.0582  0.0006
 1262ERGO    R318180   5.495   7.780   7.021 -0.2052 -0.0301 -0.0336
 1262ERGO    R418181   5.720   7.858   7.192 -0.1745 -0.2256  0.0185
 1262ERGO    R518182   5.598   7.678   7.212 -0.2702 -0.1721 -0.0722
 1262ERGO    C118183   5.539   7.837   7.553 -0.2097 -0.2966 -0.0031
 1262ERGO    C218184   5.373   7.866   7.739  0.1003  0.2395  0.2242
 1263ERGO   ROH18185  14.066  16.625   6.668 -0.0079  0.1232 -0.0641
 1263ERGO    R118186  13.895  16.716   6.874  0.0524  0.0247  0.0307
 1263ERGO    R218187  13.887  16.598   7.124  0.2974  0.0522  0.0548
 1263ERGO    R318188  13.934  16.851   7.210  0.1639  0.1012 -0.0122
 1263ERGO    R418189  13.918  16.690   7.455  0.3923  0.1290  0.0245
 1263ERGO    R518190  13.804  16.871   7.410  0.2449  0.0438  0.0471
 1263ERGO    C118191  13.982  16.982   7.729  0.3223  0.2198 -0.0560
 1263ERGO    C218192  13.796  17.127   8.064  0.0091  0.0245  0.3163
 1264ERGO   ROH18193   5.101   4.894   5.691  0.3032  0.0983 -0.1473
 1264ERGO    R118194   5.076   4.740   5.927 -0.0736  0.1393 -0.1550
 1264ERGO    R218195   5.265   4.745   6.129 -0.0164 -0.3765 -0.1840
 1264ERGO    R318196   5.050   4.806   6.284  0.1541  0.1898 -0.1452
 1264ERGO    R418197   5.263   4.746   6.475  0.0118 -0.5553 -0.1823
 1264ERGO    R518198   5.065   4.656   6.470 -0.2781  0.0288 -0.2249
 1264ERGO    C118199   5.060   4.804   6.821  0.1883 -0.1278 -0.1449
 1264ERGO    C218200   4.962   4.782   7.259 -0.1588 -0.3133  0.1752
 1265ERGO   ROH18201   0.805   4.884   6.217 -0.3531  0.1235  0.0075
 1265ERGO    R118202   0.699   4.895   6.479 -0.2425 -0.1256  0.0667
 1265ERGO    R218203   0.817   4.764   6.693  0.0987  0.0213 -0.0192
 1265ERGO    R318204   0.811   5.012   6.805 -0.2755 -0.0071  0.0349
 1265ERGO    R418205   0.851   4.829   7.031  0.2112  0.0115 -0.0295
 1265ERGO    R518206   0.696   4.981   7.013 -0.0807 -0.2630  0.1081
 1265ERGO    C118207   0.866   5.100   7.333 -0.0745 -0.0208  0.0153
 1265ERGO    C218208   0.843   5.298   7.596 -0.1550  0.0338  0.2296
 1266ERGO   ROH18209   8.493  11.986   6.136 -0.1187  0.0530 -0.0093
 1266ERGO    R118210   8.555  12.039   6.407 -0.0146 -0.0024 -0.0220
 1266ERGO    R218211   8.361  12.072   6.601  0.0562  0.1331  0.0244
 1266ERGO    R318212   8.500  11.877   6.728 -0.0569  0.0265 -0.0135
 1266ERGO    R418213   8.369  12.028   6.944  0.0254  0.0668  0.0167
 1266ERGO    R518214   8.582  11.983   6.927  0.0033 -0.0546  0.0083
 1266ERGO    C118215   8.505  11.819   7.263 -0.0987 -0.0720 -0.0234
 1266ERGO    C218216   8.334  11.809   7.564 -0.3045  0.2006 -0.0004
 1267ERGO   ROH18217  10.148   7.000   6.329 -0.1160  0.0400 -0.0810
 1267ERGO    R118218  10.298   7.133   6.528 -0.1988 -0.1438  0.1056
 1267ERGO    R218219  10.350   7.405   6.518  0.1973 -0.2238  0.1288
 1267ERGO    R318220  10.240   7.402   6.767 -0.1471 -0.0232 -0.0112
 1267ERGO    R418221  10.387   7.655   6.753  0.3470 -0.2664  0.1539
 1267ERGO    R518222  10.407   7.502   6.906 -0.1317 -0.3134  0.2020
 1267ERGO    C118223  10.306   7.799   7.123  0.1106 -0.1028  0.0371
 1267ERGO    C218224  10.231   7.826   7.356  0.0254 -0.1723  0.0290
 1268ERGO   ROH18225  17.077   5.424   5.727  0.2642 -0.2957  0.1229
 1268ERGO    R118226  17.090   5.309   5.985  0.3274 -0.1614  0.1824
 1268ERGO    R218227  17.269   5.395   6.179  0.1179  0.2051  0.2324
 1268ERGO    R318228  17.043   5.423   6.328 -0.0002 -0.0689  0.1089
 1268ERGO    R418229  17.252   5.354   6.521 -0.0519  0.0915  0.2103
 1268ERGO    R518230  17.061   5.253   6.495  0.0696 -0.0950  0.0690
 1268ERGO    C118231  17.031   5.356   6.861 -0.2618 -0.2318  0.0815
 1268ERGO    C218232  17.050   5.291   7.121 -0.0963 -0.0581  0.2073
 1269ERGO   ROH18233  11.734  15.954   6.803  0.0370  0.0401 -0.1405
 1269ERGO    R118234  11.758  15.998   7.082 -0.0078 -0.0475 -0.1224
 1269ERGO    R218235  11.969  16.138   7.193  0.0335 -0.1765 -0.0330
 1269ERGO    R318236  11.769  16.285   7.304  0.0762 -0.1129 -0.0419
 1269ERGO    R418237  11.971  16.265   7.514  0.1224 -0.0496 -0.0833
 1269ERGO    R518238  11.760  16.214   7.532  0.1230 -0.0212 -0.0119
 1269ERGO    C118239  11.785  16.478   7.805  0.2141  0.0839 -0.1210
 1269ERGO    C218240  11.786  16.622   8.092 -0.0735  0.0129  0.0151
 1270ERGO   ROH18241  12.368   3.203   6.223 -0.1527 -0.0404  0.1313
 1270ERGO    R118242  12.227   3.137   6.460 -0.2012  0.1607  0.1602
 1270ERGO    R218243  12.317   2.944   6.637 -0.4313  0.0425  0.1462
 1270ERGO    R318244  12.293   3.146   6.818 -0.1204  0.0830  0.1489
 1270ERGO    R418245  12.311   2.902   6.980 -0.4048  0.0505  0.1482
 1270ERGO    R518246  12.155   3.054   6.991 -0.2059  0.2636  0.1832
 1270ERGO    C118247  12.285   3.067   7.349 -0.0976  0.0931  0.1519
 1270ERGO    C218248  12.394   3.176   7.691  0.1238  0.1699  0.0623
 1271ERGO   ROH18249   5.211  17.807   5.794 -0.0293  0.0276  0.0120
 1271ERGO    R118250   5.300  17.905   6.045 -0.0456  0.1204 -0.0187
 1271ERGO    R218251   5.138  17.910   6.269 -0.0249  0.1017 -0.0053
 1271ERGO    R318252   5.343  17.772   6.381  0.0448  0.2135  0.0076
 1271ERGO    R418253   5.212  17.905   6.606 -0.1603 -0.0039  0.0242
 1271ERGO    R518254   5.424  17.915   6.555 -0.1438  0.1961  0.1134
 1271ERGO    C118255   5.448  17.772   6.908 -0.1737  0.0398  0.0534
 1271ERGO    C218256   5.457  17.870   7.174  0.3140 -0.0377 -0.0285
 1272ERGO   ROH18257   0.108   5.801   6.244  0.0548  0.0757 -0.1260
 1272ERGO    R118258   0.236   5.772   6.495  0.0302  0.0620 -0.1161
 1272ERGO    R218259   0.378   5.976   6.614 -0.0779  0.0882 -0.0415
 1272ERGO    R318260   0.212   5.926   6.823 -0.0833 -0.0400 -0.0741
 1272ERGO    R418261   0.417   6.106   6.932 -0.2717  0.1775 -0.0522
 1272ERGO    R518262   0.358   5.912   7.013 -0.1080  0.1273 -0.0367
 1272ERGO    C118263   0.283   6.135   7.314 -0.3894  0.1092 -0.0890
 1272ERGO    C218264   0.228   6.250   7.654 -0.1605  0.1812  0.2189
 1273ERGO   ROH18265   2.986   9.398   6.170  0.1911 -0.1994  0.0220
 1273ERGO    R118266   2.847   9.452   6.410  0.0612 -0.2803 -0.0340
 1273ERGO    R218267   2.857   9.284   6.629  0.2637 -0.1586  0.0523
 1273ERGO    R318268   2.934   9.510   6.759 -0.0917  0.0236 -0.0429
 1273ERGO    R418269   2.817   9.339   6.968  0.2717 -0.1270  0.0479
 1273ERGO    R518270   2.762   9.546   6.922 -0.1093 -0.2312 -0.0005
 1273ERGO    C118271   2.866   9.584   7.287 -0.0574  0.0627 -0.0440
 1273ERGO    C218272   2.978   9.711   7.442 -0.1029  0.1753  0.3598
 1274ERGO   ROH18273   9.847  14.621   6.144  0.0830  0.1314  0.1166
 1274ERGO    R118274   9.761  14.797   6.348  0.2936  0.2119  0.1398
 1274ERGO    R218275   9.550  14.738   6.516  0.0350  0.5559 -0.0422
 1274ERGO    R318276   9.733  14.788   6.711  0.0100  0.0779  0.1161
 1274ERGO    R418277   9.477  14.873   6.826  0.1030  0.5513 -0.0248
 1274ERGO    R518278   9.658  14.993   6.811  0.3662  0.1854  0.1662
 1274ERGO    C118279   9.606  14.999   7.189  0.1192  0.1000  0.1338
 1274ERGO    C218280   9.640  15.175   7.484  0.4703 -0.2992  0.2499
 1275ERGO   ROH18281  13.739  14.479   6.441  0.1225 -0.0228  0.0681
 1275ERGO    R118282  13.759  14.550   6.714  0.0163 -0.0034  0.0715
 1275ERGO    R218283  13.615  14.422   6.912  0.1319 -0.1650  0.0575
 1275ERGO    R318284  13.861  14.387   7.023  0.1620  0.1003  0.0778
 1275ERGO    R418285  13.673  14.359   7.247  0.1709 -0.2355  0.0374
 1275ERGO    R518286  13.844  14.493   7.237 -0.0003 -0.0134  0.1199
 1275ERGO    C118287  13.938  14.290   7.546  0.2220 -0.0274  0.0447
 1275ERGO    C218288  13.925  14.134   7.781  0.1941 -0.1784  0.1875
 1276ERGO   ROH18289  10.556   6.768   6.432 -0.0662  0.2328 -0.0388
 1276ERGO    R118290  10.482   6.688   6.693 -0.0488  0.1617 -0.0551
 1276ERGO    R218291  10.617   6.774   6.918 -0.0499  0.1221 -0.0379
 1276ERGO    R318292  10.369   6.852   6.998 -0.0555  0.0764 -0.0118
 1276ERGO    R418293  10.521   6.823   7.247 -0.0349  0.0662 -0.0254
 1276ERGO    R518294  10.330   6.729   7.200 -0.0244  0.0452 -0.0250
 1276ERGO    C118295  10.233   6.924   7.513 -0.0313 -0.0091  0.0062
 1276ERGO    C218296  10.155   6.949   7.909  0.0685 -0.3575 -0.1214
 1277ERGO   ROH18297   0.537   0.527   6.326  0.0595 -0.2957  0.0631
 1277ERGO    R118298   0.486   0.631   6.584  0.1381 -0.1543  0.0218
 1277ERGO    R218299   0.279   0.540   6.743  0.0616  0.0739  0.0518
 1277ERGO    R318300   0.479   0.504   6.925  0.0269 -0.0165  0.0734
 1277ERGO    R418301   0.242   0.568   7.086  0.0471  0.1663  0.0431
 1277ERGO    R518302   0.436   0.668   7.093  0.1138  0.0480  0.0374
 1277ERGO    C118303   0.407   0.551   7.455  0.0060  0.1353  0.0583
 1277ERGO    C218304   0.361   0.639   7.794 -0.2051  0.1696  0.0579
 1278ERGO   ROH18305   1.078  15.311   6.545 -0.0976 -0.0690 -0.0119
 1278ERGO    R118306   1.209  15.309   6.796 -0.2444 -0.1175  0.0661
 1278ERGO    R218307   1.418  15.480   6.857  0.0102 -0.4138  0.0654
 1278ERGO    R318308   1.261  15.543   7.070 -0.0191 -0.0099 -0.0668
 1278ERGO    R418309   1.536  15.564   7.170 -0.0455 -0.1707  0.0232
 1278ERGO    R518310   1.375  15.446   7.257 -0.1993  0.0914  0.0946
 1278ERGO    C118311   1.458  15.672   7.553 -0.1055  0.3499 -0.1255
 1278ERGO    C218312   1.479  15.777   7.827 -0.1295 -0.0690  0.0009
 1279ERGO   ROH18313   8.779  17.971   5.748  0.0766 -0.1778 -0.0288
 1279ERGO    R118314   8.799  18.124   5.985  0.0730 -0.0778 -0.0905
 1279ERGO    R218315   8.676  18.049   6.221  0.0228  0.0473 -0.0685
 1279ERGO    R318316   8.928  18.073   6.322  0.0156  0.0381 -0.0525
 1279ERGO    R418317   8.752  18.145   6.545  0.0153  0.0053 -0.0554
 1279ERGO    R518318   8.917  18.264   6.466  0.0124  0.0142 -0.0290
 1279ERGO    C118319   9.032  18.223   6.827  0.0042 -0.0277 -0.0327
 1279ERGO    C218320   9.157  18.193   7.189 -0.1772  0.1581  0.0095
 1280ERGO   ROH18321   7.400  16.592   5.884  0.1294  0.1497  0.0011
 1280ERGO    R118322   7.576  16.583   6.106  0.0686  0.0280  0.0445
 1280ERGO    R218323   7.533  16.730   6.336  0.0464 -0.0420  0.0802
 1280ERGO    R318324   7.555  16.488   6.456 -0.0452 -0.0879  0.0084
 1280ERGO    R418325   7.554  16.681   6.677  0.2694 -0.1245  0.0567
 1280ERGO    R518326   7.703  16.526   6.640  0.1295 -0.2348 -0.0934
 1280ERGO    C118327   7.587  16.424   6.989  0.3133 -0.2152 -0.0244
 1280ERGO    C218328   7.547  16.368   7.336  0.1361  0.1749 -0.1198
 1281ERGO   ROH18329   0.519   2.065   5.973 -0.0425 -0.1935  0.0686
 1281ERGO    R118330   0.628   2.203   6.195  0.0050 -0.2130  0.0581
 1281ERGO    R218331   0.496   2.413   6.319  0.2084  0.0480 -0.1492
 1281ERGO    R318332   0.535   2.261   6.542 -0.1469  0.1186 -0.0340
 1281ERGO    R418333   0.560   2.538   6.635  0.4083  0.1427 -0.2260
 1281ERGO    R518334   0.704   2.377   6.664  0.0756 -0.1424 -0.0875
 1281ERGO    C118335   0.633   2.468   7.028  0.1912  0.2642 -0.1626
 1281ERGO    C218336   0.520   2.451   7.388  0.1652  0.1455  0.0629
 1282ERGO   ROH18337  17.580  15.984   6.327  0.0193  0.1005 -0.0199
 1282ERGO    R118338  17.590  16.115   6.578 -0.0164  0.0888 -0.0131
 1282ERGO    R218339  17.490  16.002   6.809 -0.0422  0.0770 -0.0348
 1282ERGO    R318340  17.739  16.052   6.904 -0.0574  0.0803  0.0056
 1282ERGO    R418341  17.568  16.053   7.142 -0.0477 -0.3111  0.0319
 1282ERGO    R518342  17.706  16.211   7.080 -0.1280 -0.1567  0.2172
 1282ERGO    C118343  17.848  16.130   7.424 -0.0653 -0.5340  0.1085
 1282ERGO    C218344  17.910  16.078   7.808 -0.0176 -0.2625 -0.1315
 1283ERGO   ROH18345   6.737   9.073   6.489  0.0392  0.1399  0.0821
 1283ERGO    R118346   6.764   8.869   6.684 -0.2718  0.0707  0.0567
 1283ERGO    R218347   6.967   8.869   6.872 -0.1865 -0.3365 -0.0329
 1283ERGO    R318348   6.760   8.849   7.047 -0.1518  0.0542  0.0576
 1283ERGO    R418349   6.999   8.859   7.215 -0.0561 -0.3475 -0.0445
 1283ERGO    R518350   6.843   8.708   7.221 -0.3265 -0.0727  0.0402
 1283ERGO    C118351   6.824   8.835   7.580  0.0524  0.0128  0.0338
 1283ERGO    C218352   6.574   8.877   7.874  0.2138 -0.1203  0.1975
 1284ERGO   ROH18353   3.395   1.275   6.001  0.1386 -0.3411  0.2158
 1284ERGO    R118354   3.461   1.470   6.195  0.2506 -0.2805  0.1169
 1284ERGO    R218355   3.296   1.527   6.410  0.2667 -0.0505  0.0619
 1284ERGO    R318356   3.521   1.476   6.554  0.2126 -0.1226  0.1235
 1284ERGO    R418357   3.347   1.625   6.738  0.2771  0.1279  0.0092
 1284ERGO    R518358   3.553   1.674   6.686  0.3290 -0.0507  0.0022
 1284ERGO    C118359   3.587   1.633   7.064  0.2323  0.1641  0.0363
 1284ERGO    C218360   3.659   1.656   7.392  0.1129 -0.0787 -0.1906
 1285ERGO   ROH18361   6.967  10.766   6.318  0.1716  0.1731  0.0076
 1285ERGO    R118362   6.949  10.659   6.580  0.0964  0.1034 -0.0261
 1285ERGO    R218363   7.117  10.460   6.671  0.0811  0.0945 -0.0258
 1285ERGO    R318364   7.165  10.637   6.872  0.0041  0.0430  0.0391
 1285ERGO    R418365   7.183  10.372   6.998  0.1541 -0.0046 -0.0665
 1285ERGO    R518366   7.058  10.539   7.063  0.0684 -0.0925  0.0103
 1285ERGO    C118367   7.267  10.487   7.378  0.1243 -0.1105 -0.0291
 1285ERGO    C218368   7.533  10.456   7.627  0.1377  0.4064 -0.0555
 1286ERGO   ROH18369   0.370  11.449   6.237  0.3662  0.2260 -0.0425
 1286ERGO    R118370   0.300  11.351   6.493  0.3289  0.4307  0.0275
 1286ERGO    R218371   0.337  11.087   6.566 -0.1145  0.3779  0.0818
 1286ERGO    R318372   0.474  11.198   6.774  0.2124  0.1926 -0.0268
 1286ERGO    R418373   0.475  10.910   6.829 -0.2608  0.1895  0.0340
 1286ERGO    R518374   0.409  11.068   6.964  0.0961  0.3457  0.0430
 1286ERGO    C118375   0.684  10.910   7.177 -0.0391 -0.0940 -0.0959
 1286ERGO    C218376   0.927  10.751   7.265 -0.2196 -0.0294  0.1711
 1287ERGO   ROH18377   5.759   9.071   6.421 -0.0387 -0.2836  0.0194
 1287ERGO    R118378   5.712   9.072   6.700  0.0067 -0.0991  0.0277
 1287ERGO    R218379   5.878   8.943   6.879 -0.0118 -0.0524  0.0775
 1287ERGO    R318380   5.886   9.188   6.997  0.0973  0.0157 -0.0688
 1287ERGO    R418381   5.906   8.997   7.220 -0.2429  0.1315  0.0697
 1287ERGO    R518382   5.762   9.161   7.200 -0.0934  0.2442 -0.1489
 1287ERGO    C118383   5.930   9.259   7.528 -0.2751  0.3025 -0.0721
 1287ERGO    C218384   6.145   9.195   7.838 -0.1392  0.1942  0.3906
 1288ERGO   ROH18385   8.556  10.165   6.352 -0.0984  0.0851  0.1049
 1288ERGO    R118386   8.642  10.038   6.590 -0.0072  0.1129  0.0880
 1288ERGO    R218387   8.627  10.159   6.837  0.0297  0.1189  0.0904
 1288ERGO    R318388   8.491   9.933   6.904  0.0972  0.0908  0.1306
 1288ERGO    R418389   8.550  10.063   7.160  0.1965  0.0707  0.1156
 1288ERGO    R518390   8.597   9.857   7.105  0.2027  0.0857  0.0718
 1288ERGO    C118391   8.378   9.796   7.411  0.3570  0.0164  0.1681
 1288ERGO    C218392   8.231   9.738   7.808  0.1822 -0.2596  0.1160
 1289ERGO   ROH18393  12.575   6.552   6.220 -0.0085 -0.0401 -0.0794
 1289ERGO    R118394  12.718   6.479   6.454 -0.0632 -0.0419 -0.0465
 1289ERGO    R218395  12.758   6.653   6.664 -0.0424 -0.0178 -0.0713
 1289ERGO    R318396  12.647   6.452   6.810 -0.1216  0.0395 -0.0516
 1289ERGO    R418397  12.884   6.533   6.962  0.0411 -0.1912 -0.1749
 1289ERGO    R518398  12.834   6.331   6.896 -0.1668 -0.1368 -0.1937
 1289ERGO    C118399  12.853   6.274   7.273  0.0156 -0.2383 -0.2167
 1289ERGO    C218400  12.975   6.261   7.559 -0.0771  0.1035  0.0480
 1290ERGO   ROH18401  15.580   0.192   6.327  0.0150  0.0905  0.2109
 1290ERGO    R118402  15.742   0.220   6.557 -0.0100 -0.0021  0.2408
 1290ERGO    R218403  15.693   0.411   6.751  0.0545  0.0175  0.2406
 1290ERGO    R318404  15.697   0.196   6.917 -0.0870  0.0077  0.2314
 1290ERGO    R418405  15.670   0.427   7.095  0.0641  0.0155  0.2411
 1290ERGO    R518406  15.821   0.270   7.108 -0.0395 -0.0834  0.2350
 1290ERGO    C118407  15.660   0.235   7.452 -0.0632  0.0051  0.2326
 1290ERGO    C218408  15.584   0.264   7.764 -0.1059 -0.4787 -0.0481
 1291ERGO   ROH18409  11.085   3.667   6.214 -0.1686 -0.1066 -0.1131
 1291ERGO    R118410  10.972   3.753   6.459 -0.0684 -0.1194 -0.0624
 1291ERGO    R218411  11.041   3.642   6.702  0.0275 -0.1348 -0.0981
 1291ERGO    R318412  11.094   3.900   6.769  0.0583 -0.1398 -0.1014
 1291ERGO    R418413  11.019   3.772   7.022 -0.1148 -0.0919 -0.1244
 1291ERGO    R518414  10.931   3.952   6.937 -0.0222 -0.0778 -0.1959
 1291ERGO    C118415  11.055   4.090   7.270 -0.1684 -0.0715 -0.1427
 1291ERGO    C218416  11.113   4.085   7.657  0.0949 -0.2275  0.2635
 1292ERGO   ROH18417  16.661   0.405   6.211  0.0208  0.1201 -0.0826
 1292ERGO    R118418  16.762   0.427   6.475  0.0004 -0.0900 -0.0542
 1292ERGO    R218419  16.794   0.671   6.603  0.2034 -0.1683  0.0633
 1292ERGO    R318420  16.642   0.553   6.794  0.0598 -0.1212 -0.0217
 1292ERGO    R418421  16.781   0.769   6.934  0.0993 -0.2257  0.0759
 1292ERGO    R518422  16.778   0.559   6.991 -0.0325 -0.2260  0.0395
 1292ERGO    C118423  16.631   0.715   7.307 -0.0960 -0.2150  0.0033
 1292ERGO    C218424  16.514   0.793   7.613 -0.0724  0.3404 -0.1518
 1293ERGO   ROH18425   7.941  16.686   5.756  0.2683 -0.0591 -0.0905
 1293ERGO    R118426   8.074  16.689   6.006  0.1357 -0.0224 -0.0195
 1293ERGO    R218427   8.073  16.910   6.173  0.0036 -0.0160 -0.0282
 1293ERGO    R318428   7.980  16.731   6.355 -0.0575 -0.0268 -0.0699
 1293ERGO    R418429   8.049  16.968   6.513 -0.1852 -0.0049 -0.0426
 1293ERGO    R518430   8.118  16.764   6.548 -0.1634  0.0088  0.0016
 1293ERGO    C118431   7.947  16.834   6.881 -0.3524 -0.0088 -0.0902
 1293ERGO    C218432   8.048  16.783   7.230 -0.1972  0.1757  0.0334
 1294ERGO   ROH18433   9.668   6.072   6.234 -0.0611 -0.0276 -0.2219
 1294ERGO    R118434   9.706   5.913   6.464 -0.1351  0.0394 -0.1612
 1294ERGO    R218435   9.923   5.942   6.632 -0.0054 -0.1356 -0.2804
 1294ERGO    R318436   9.732   5.969   6.823  0.1126  0.1943 -0.2038
 1294ERGO    R418437   9.957   5.841   6.961 -0.0367 -0.1156 -0.2723
 1294ERGO    R518438   9.751   5.770   6.955 -0.1432  0.1976 -0.1701
 1294ERGO    C118439   9.797   5.808   7.332  0.0559  0.2058 -0.1956
 1294ERGO    C218440   9.932   5.777   7.737 -0.1289  0.0681 -0.1811
 1295ERGO   ROH18441  13.002   8.115   6.264 -0.1128 -0.2397 -0.0402
 1295ERGO    R118442  12.846   8.163   6.495 -0.0505 -0.2522  0.0048
 1295ERGO    R218443  12.728   7.959   6.640  0.0566 -0.2674  0.0750
 1295ERGO    R318444  12.862   8.072   6.847  0.0936 -0.1973  0.0131
 1295ERGO    R418445  12.670   7.889   6.973 -0.0808  0.0552  0.1228
 1295ERGO    R518446  12.695   8.101   7.017  0.0734  0.0747 -0.0491
 1295ERGO    C118447  12.762   7.954   7.362 -0.1262  0.3088  0.0926
 1295ERGO    C218448  12.639   7.751   7.527  0.1132  0.1644  0.0345
 1296ERGO   ROH18449   1.038   3.624   6.044  0.1679  0.1229 -0.0833
 1296ERGO    R118450   0.913   3.641   6.297  0.0969  0.0761 -0.1153
 1296ERGO    R218451   0.726   3.457   6.384  0.1019  0.0395 -0.1872
 1296ERGO    R318452   0.893   3.436   6.597  0.0459  0.0406 -0.1423
 1296ERGO    R418453   0.625   3.450   6.714  0.0093  0.0083 -0.2154
 1296ERGO    R518454   0.795   3.577   6.764 -0.0144  0.0217 -0.1597
 1296ERGO    C118455   0.723   3.426   7.107 -0.0971 -0.0089 -0.1897
 1296ERGO    C218456   0.768   3.355   7.381  0.4272 -0.2191 -0.0946
 1297ERGO   ROH18457  16.760  17.060   6.528 -0.2931 -0.0889 -0.1234
 1297ERGO    R118458  16.747  17.204   6.771 -0.0502 -0.0485 -0.1313
 1297ERGO    R218459  16.521  17.207   6.931 -0.0040  0.2342 -0.0624
 1297ERGO    R318460  16.695  17.125   7.123 -0.0405  0.0435 -0.1094
 1297ERGO    R418461  16.523  17.320   7.257  0.1071  0.1103 -0.0197
 1297ERGO    R518462  16.741  17.323   7.251  0.1076 -0.0360 -0.0390
 1297ERGO    C118463  16.687  17.309   7.628  0.1376 -0.1411 -0.0389
 1297ERGO    C218464  16.572  17.296   8.010 -0.1663 -0.2005  0.1591
 1298ERGO   ROH18465  17.242   7.700   5.943  0.0184  0.0560 -0.0418
 1298ERGO    R118466  17.260   7.584   6.200  0.1554  0.0182 -0.0671
 1298ERGO    R218467  17.474   7.629   6.369  0.0956  0.2533 -0.0458
 1298ERGO    R318468  17.279   7.703   6.543 -0.0119 -0.0322 -0.0403
 1298ERGO    R418469  17.502   7.620   6.714  0.0789  0.2061 -0.0462
 1298ERGO    R518470  17.297   7.547   6.723  0.1690 -0.0527 -0.0772
 1298ERGO    C118471  17.334   7.684   7.077 -0.0317 -0.0893 -0.0413
 1298ERGO    C218472  17.301   7.654   7.384 -0.3228 -0.0694  0.1354
 1299ERGO   ROH18473  16.723   8.638   6.018  0.2117  0.1187 -0.0058
 1299ERGO    R118474  16.756   8.757   6.273  0.1920  0.0746  0.0177
 1299ERGO    R218475  16.584   8.707   6.484  0.0683  0.1775 -0.0547
 1299ERGO    R318476  16.813   8.641   6.613 -0.0287  0.0027  0.0316
 1299ERGO    R418477  16.633   8.733   6.825 -0.0002  0.2340 -0.0489
 1299ERGO    R518478  16.835   8.806   6.785  0.0780  0.0341 -0.0138
 1299ERGO    C118479  16.878   8.686   7.144 -0.1312  0.1028  0.0355
 1299ERGO    C218480  17.070   8.623   7.395  0.1673  0.1268  0.0809
 1300ERGO   ROH18481  10.730  16.030   6.407  0.2447  0.0497  0.0230
 1300ERGO    R118482  10.672  15.985   6.680  0.1849  0.0560  0.0110
 1300ERGO    R218483  10.855  15.874   6.854  0.1240  0.0047  0.0377
 1300ERGO    R318484  10.804  16.098   7.001  0.1558  0.0114  0.0400
 1300ERGO    R418485  10.831  15.883   7.199 -0.0694 -0.0402  0.0270
 1300ERGO    R518486  10.663  16.020   7.179  0.0103  0.0534 -0.0514
 1300ERGO    C118487  10.769  16.098   7.537 -0.1519 -0.0602  0.0228
 1300ERGO    C218488  10.763  16.106   7.868 -0.0379 -0.2000 -0.2136
 1301ERGO   ROH18489   7.901   2.193   5.637 -0.0020  0.0509  0.0361
 1301ERGO    R118490   7.720   2.221   5.853 -0.1085  0.0244 -0.0493
 1301ERGO    R218491   7.670   2.017   6.033 -0.0066  0.0845  0.0456
 1301ERGO    R318492   7.738   2.205   6.217 -0.2347  0.2463 -0.0313
 1301ERGO    R418493   7.619   1.988   6.373  0.2106  0.0658  0.0782
 1301ERGO    R518494   7.560   2.198   6.377 -0.1494 -0.0250  0.0581
 1301ERGO    C118495   7.652   2.148   6.744  0.1229  0.2068  0.0252
 1301ERGO    C218496   7.803   1.981   7.049 -0.1896  0.0402  0.0513
 1302ERGO   ROH18497  14.459  16.874   6.635  0.0930 -0.1438  0.1224
 1302ERGO    R118498  14.304  16.969   6.852  0.0935  0.0592  0.0353
 1302ERGO    R218499  14.332  16.872   7.108 -0.1754  0.0208  0.0482
 1302ERGO    R318500  14.367  17.134   7.170  0.1305 -0.0204  0.0712
 1302ERGO    R418501  14.354  16.998   7.429 -0.0042 -0.0425  0.0633
 1302ERGO    R518502  14.233  17.167   7.365  0.1793  0.1090  0.0886
 1302ERGO    C118503  14.399  17.318   7.674  0.3828 -0.1179  0.0935
 1302ERGO    C218504  14.203  17.306   7.996  0.0676  0.0612 -0.2929
 1303ERGO   ROH18505   2.247   3.285   6.265  0.0178 -0.0876  0.1467
 1303ERGO    R118506   2.322   3.220   6.530 -0.0918 -0.1488  0.1628
 1303ERGO    R218507   2.378   3.413   6.721  0.1015 -0.1940  0.1516
 1303ERGO    R318508   2.189   3.281   6.864 -0.0711  0.0323  0.1397
 1303ERGO    R418509   2.316   3.460   7.057  0.1452 -0.1241  0.1503
 1303ERGO    R518510   2.291   3.245   7.078 -0.1208 -0.0980  0.1437
 1303ERGO    C118511   2.102   3.363   7.388  0.0087  0.1290  0.1384
 1303ERGO    C218512   2.052   3.529   7.586 -0.0952 -0.1240  0.0895
 1304ERGO   ROH18513  11.981   2.531   6.189  0.0079 -0.1297  0.2675
 1304ERGO    R118514  11.846   2.633   6.416 -0.2418 -0.3045  0.2029
 1304ERGO    R218515  11.786   2.477   6.636  0.2029 -0.3046  0.3405
 1304ERGO    R318516  11.917   2.674   6.770 -0.2897  0.1692  0.1626
 1304ERGO    R418517  11.773   2.524   6.978  0.4561 -0.3213  0.3531
 1304ERGO    R518518  11.764   2.739   6.943 -0.3194 -0.3343  0.3371
 1304ERGO    C118519  11.889   2.735   7.304  0.1411  0.1137  0.1935
 1304ERGO    C218520  11.904   2.822   7.583  0.0375 -0.2249  0.1463
 1305ERGO   ROH18521   1.356   1.216   6.229  0.1946  0.2259 -0.0637
 1305ERGO    R118522   1.374   1.105   6.489  0.3157  0.2618 -0.0564
 1305ERGO    R218523   1.491   1.240   6.700  0.0161  0.4806 -0.0224
 1305ERGO    R318524   1.253   1.190   6.822  0.0611  0.0564 -0.0938
 1305ERGO    R418525   1.429   1.284   7.037 -0.2216  0.5687 -0.0763
 1305ERGO    R518526   1.314   1.099   7.035  0.1657  0.3178 -0.0094
 1305ERGO    C118527   1.169   1.263   7.347 -0.3177  0.2217 -0.1748
 1305ERGO    C218528   1.232   1.396   7.648 -0.0440 -0.0239  0.0873
 1306ERGO   ROH18529  10.254   9.756   6.270  0.0325  0.0497  0.0293
 1306ERGO    R118530  10.320   9.612   6.505  0.0734 -0.0484 -0.0418
 1306ERGO    R218531  10.579   9.587   6.597  0.0631  0.1196  0.0341
 1306ERGO    R318532  10.472   9.686   6.826 -0.1085 -0.1241  0.0635
 1306ERGO    R418533  10.727   9.566   6.908 -0.0542  0.0039  0.0832
 1306ERGO    R518534  10.531   9.525   6.993 -0.0616 -0.2032 -0.0284
 1306ERGO    C118535  10.713   9.647   7.305 -0.2838 -0.2922  0.1395
 1306ERGO    C218536  10.712   9.566   7.583 -0.2083  0.0090  0.3062
 1307ERGO   ROH18537   2.677  18.129   6.056 -0.2588 -0.0735 -0.0876
 1307ERGO    R118538   2.582  18.288   6.269 -0.2557 -0.1780 -0.0052
 1307ERGO    R218539   2.517  18.183   6.517  0.0203 -0.2625  0.0430
 1307ERGO    R318540   2.692  18.371   6.606 -0.0837 -0.1066 -0.0795
 1307ERGO    R418541   2.521  18.312   6.837  0.0124 -0.1060 -0.0204
 1307ERGO    R518542   2.562  18.509   6.752 -0.1348 -0.1234 -0.1172
 1307ERGO    C118543   2.688  18.563   7.108 -0.0899  0.1316 -0.1723
 1307ERGO    C218544   2.624  18.606   7.460 -0.0223  0.0048  0.1317
 1308ERGO   ROH18545   0.960  13.010   6.390 -0.0886 -0.2668  0.0264
 1308ERGO    R118546   1.148  12.880   6.556  0.0311  0.0311  0.1331
 1308ERGO    R218547   1.252  12.997   6.784 -0.2886  0.1994  0.2027
 1308ERGO    R318548   1.163  12.769   6.903  0.0042  0.0468  0.1383
 1308ERGO    R418549   1.322  12.903   7.109 -0.1563  0.1805  0.1689
 1308ERGO    R518550   1.346  12.698   7.040  0.0995  0.2322  0.1058
 1308ERGO    C118551   1.280  12.634   7.410  0.1956  0.0263  0.0888
 1308ERGO    C218552   1.265  12.416   7.757 -0.1517  0.1763 -0.0243
 1309ERGO   ROH18553   4.403   2.370   5.832  0.2951 -0.2132 -0.1967
 1309ERGO    R118554   4.581   2.412   6.049  0.1749 -0.1801 -0.1072
 1309ERGO    R218555   4.556   2.626   6.222  0.0919 -0.1510 -0.1762
 1309ERGO    R318556   4.555   2.431   6.411 -0.0182 -0.1009 -0.1196
 1309ERGO    R418557   4.600   2.679   6.560  0.0781 -0.0513 -0.1875
 1309ERGO    R518558   4.723   2.500   6.568  0.0056 -0.1165 -0.1219
 1309ERGO    C118559   4.624   2.528   6.935 -0.0332  0.0538 -0.1410
 1309ERGO    C218560   4.727   2.730   7.276 -0.0373  0.0509 -0.0850
 1310ERGO   ROH18561   5.183   8.966   6.503  0.0631  0.1546  0.0144
 1310ERGO    R118562   5.213   8.861   6.764 -0.0561  0.1690  0.0356
 1310ERGO    R218563   5.450   8.750   6.853 -0.1837 -0.1162  0.0465
 1310ERGO    R318564   5.420   8.930   7.055  0.0518 -0.0294  0.0057
 1310ERGO    R418565   5.550   8.698   7.180 -0.3516 -0.2123  0.0835
 1310ERGO    R518566   5.367   8.796   7.247 -0.2126  0.0937  0.0175
 1310ERGO    C118567   5.581   8.837   7.560 -0.2283 -0.1868  0.0666
 1310ERGO    C218568   5.721   8.862   7.838 -0.0489  0.0974  0.0357
 1311ERGO   ROH18569  16.570   6.311   5.907  0.1684 -0.0328 -0.0150
 1311ERGO    R118570  16.606   6.249   6.181  0.2355  0.1798  0.0249
 1311ERGO    R218571  16.621   6.444   6.376 -0.1331  0.3187 -0.0825
 1311ERGO    R318572  16.420   6.300   6.490  0.0959  0.0277 -0.0313
 1311ERGO    R418573  16.579   6.397   6.716 -0.0504  0.3738 -0.0638
 1311ERGO    R518574  16.523   6.190   6.676  0.2837  0.2594  0.0094
 1311ERGO    C118575  16.366   6.235   7.021  0.2126  0.1326 -0.0047
 1311ERGO    C218576  16.385   6.297   7.398 -0.0449 -0.2065  0.1065
 1312ERGO   ROH18577  15.103   7.155   5.936 -0.0538  0.1119  0.1321
 1312ERGO    R118578  15.247   7.103   6.174 -0.0488 -0.0016  0.1055
 1312ERGO    R218579  15.343   7.304   6.337 -0.0642 -0.0759  0.2139
 1312ERGO    R318580  15.204   7.171   6.529 -0.0565 -0.1901  0.1408
 1312ERGO    R418581  15.422   7.304   6.673 -0.1709 -0.1246  0.2390
 1312ERGO    R518582  15.372   7.092   6.680 -0.0689 -0.1462  0.1722
 1312ERGO    C118583  15.337   7.178   7.049 -0.2258 -0.2601  0.1849
 1312ERGO    C218584  15.370   7.205   7.435  0.1156 -0.2469 -0.2185
 1313ERGO   ROH18585   1.578   4.538   6.560  0.0609 -0.1243 -0.0284
 1313ERGO    R118586   1.623   4.488   6.835 -0.1308 -0.1883 -0.0066
 1313ERGO    R218587   1.722   4.679   7.006  0.2566 -0.3758 -0.0042
 1313ERGO    R318588   1.500   4.619   7.151  0.0653  0.1419 -0.0646
 1313ERGO    R418589   1.706   4.681   7.352  0.2526 -0.6162 -0.0021
 1313ERGO    R518590   1.584   4.500   7.341 -0.2787 -0.2680 -0.1582
 1313ERGO    C118591   1.487   4.626   7.688  0.0706 -0.2701 -0.0576
 1313ERGO    C218592   1.523   4.891   7.913  0.3023  0.0227  0.2668
 1314ERGO   ROH18593  10.780  11.352   6.155 -0.1551  0.1224  0.0490
 1314ERGO    R118594  10.718  11.177   6.369 -0.0061  0.0192  0.0099
 1314ERGO    R218595  10.902  11.109   6.563  0.0031  0.2752  0.0945
 1314ERGO    R318596  10.708  11.197   6.732 -0.2092 -0.0120  0.0076
 1314ERGO    R418597  10.910  11.075   6.907 -0.1382  0.2097  0.0912
 1314ERGO    R518598  10.696  11.029   6.902 -0.0814 -0.0686 -0.0366
 1314ERGO    C118599  10.732  11.137   7.265 -0.4198 -0.0980  0.0076
 1314ERGO    C218600  10.749  11.009   7.632  0.1143 -0.1378 -0.0489
 1315ERGO   ROH18601  11.243   4.753   6.121 -0.0638  0.2660  0.0175
 1315ERGO    R118602  11.133   4.846   6.364  0.0003  0.2780  0.0428
 1315ERGO    R218603  11.240   4.781   6.610  0.0084  0.2090  0.0242
 1315ERGO    R318604  11.243   5.051   6.644  0.1124  0.2041  0.0523
 1315ERGO    R418605  11.367   4.944   6.887 -0.0515  0.1302  0.0983
 1315ERGO    R518606  11.198   5.082   6.877  0.0166  0.2038  0.0320
 1315ERGO    C118607  11.444   5.292   7.080  0.0112  0.0797  0.1679
 1315ERGO    C218608  11.747   5.467   7.300 -0.0935 -0.0001 -0.0117
 1316ERGO   ROH18609   0.757  15.004   6.623  0.1067 -0.1181 -0.2000
 1316ERGO    R118610   0.749  15.166   6.854  0.0847 -0.0941 -0.2173
 1316ERGO    R218611   0.745  15.061   7.110 -0.1039 -0.0711 -0.2083
 1316ERGO    R318612   0.962  15.222   7.145 -0.0268 -0.1932 -0.1160
 1316ERGO    R418613   0.837  15.206   7.410 -0.3799  0.1975 -0.2488
 1316ERGO    R518614   0.887  15.388   7.301 -0.1063  0.0402 -0.3940
 1316ERGO    C118615   1.093  15.441   7.618 -0.4682  0.2393 -0.1857
 1316ERGO    C218616   1.120  15.442   7.886  0.0182 -0.0107 -0.0974
 1317ERGO   ROH18617   6.468   9.806   6.494 -0.1321 -0.0067  0.0107
 1317ERGO    R118618   6.462   9.693   6.753 -0.0792 -0.0408 -0.0029
 1317ERGO    R218619   6.609   9.797   6.963 -0.0510 -0.0569 -0.0146
 1317ERGO    R318620   6.367   9.803   7.087 -0.0304 -0.0909  0.0278
 1317ERGO    R418621   6.563   9.779   7.305  0.0283  0.2200  0.0126
 1317ERGO    R518622   6.391   9.650   7.270  0.0980  0.0843  0.1616
 1317ERGO    C118623   6.309   9.775   7.621  0.0940  0.3492  0.0682
 1317ERGO    C218624   6.159   9.678   7.971  0.2267  0.0840  0.0325
 1318ERGO   ROH18625  17.924   4.026   6.111 -0.0793  0.1237 -0.1139
 1318ERGO    R118626  17.725   4.085   6.304 -0.1113  0.2729 -0.1894
 1318ERGO    R218627  17.720   3.964   6.553 -0.4679  0.0457 -0.2955
 1318ERGO    R318628  17.717   4.221   6.641 -0.0949 -0.0214 -0.0688
 1318ERGO    R418629  17.518   4.085   6.806 -0.2269  0.1141 -0.1325
 1318ERGO    R518630  17.487   4.266   6.690 -0.0183  0.2561  0.0371
 1318ERGO    C118631  17.398   4.396   7.037  0.2637  0.0910  0.1752
 1318ERGO    C218632  17.447   4.544   7.364 -0.6110  0.2769  0.1883
 1319ERGO   ROH18633  13.431  17.198   6.317 -0.2165 -0.0324  0.1266
 1319ERGO    R118634  13.323  17.125   6.568 -0.0503 -0.1925  0.1538
 1319ERGO    R218635  13.463  16.974   6.752  0.1932 -0.0453  0.0940
 1319ERGO    R318636  13.405  17.181   6.919 -0.0065 -0.1307  0.1341
 1319ERGO    R418637  13.491  16.963   7.096  0.5074  0.0051  0.0722
 1319ERGO    R518638  13.305  17.077   7.110  0.3250 -0.2966  0.2262
 1319ERGO    C118639  13.454  17.152   7.453  0.5028 -0.0457  0.0973
 1319ERGO    C218640  13.466  17.094   7.717 -0.2209 -0.0270  0.1359
 1320ERGO   ROH18641  17.999  14.509   6.376 -0.1506  0.1643 -0.1704
 1320ERGO    R118642  18.030  14.664   6.611 -0.1451  0.0434 -0.0908
 1320ERGO    R218643  17.870  14.630   6.834 -0.1302 -0.0804 -0.1001
 1320ERGO    R318644  18.108  14.601   6.961 -0.1225 -0.1344 -0.1263
 1320ERGO    R418645  17.920  14.675   7.173 -0.0327  0.1760 -0.1461
 1320ERGO    R518646  18.109  14.773   7.127  0.0274  0.0106 -0.2717
 1320ERGO    C118647  18.173  14.674   7.489  0.0311  0.2746 -0.1974
 1320ERGO    C218648  18.183  14.339   7.743 -0.1310 -0.0778  0.1934
 1321ERGO   ROH18649   1.495   2.221   5.889  0.1298  0.1195 -0.0119
 1321ERGO    R118650   1.532   2.147   6.160  0.0880  0.0475 -0.0257
 1321ERGO    R218651   1.781   2.107   6.270  0.0755  0.1332  0.0309
 1321ERGO    R318652   1.695   2.289   6.452 -0.0647  0.0301  0.0700
 1321ERGO    R418653   1.856   2.099   6.607  0.2022  0.1920  0.0051
 1321ERGO    R518654   1.651   2.160   6.649  0.1444 -0.0351  0.0787
 1321ERGO    C118655   1.819   2.265   6.975  0.1444  0.1293  0.0267
 1321ERGO    C218656   2.119   2.371   7.283  0.2065  0.1602  0.1834
 1322ERGO   ROH18657   0.251  12.449   6.646  0.2379  0.0830  0.0567
 1322ERGO    R118658   0.325  12.241   6.824  0.0726 -0.0441 -0.0197
 1322ERGO    R218659   0.483  12.285   7.046  0.1917 -0.2693 -0.0542
 1322ERGO    R318660   0.276  12.166   7.177  0.1006 -0.0815 -0.0245
 1322ERGO    R418661   0.501  12.152   7.365  0.1318 -0.3461 -0.0829
 1322ERGO    R518662   0.378  11.985   7.297 -0.0563 -0.2083 -0.0817
 1322ERGO    C118663   0.318  11.963   7.673  0.0114 -0.2147 -0.0716
 1322ERGO    C218664   0.170  11.776   7.886  0.0636 -0.2828  0.0346
 1323ERGO   ROH18665   8.367  10.610   6.230  0.1803  0.0311  0.2182
 1323ERGO    R118666   8.347  10.570   6.509  0.0581 -0.0434  0.1994
 1323ERGO    R218667   8.104  10.539   6.637 -0.0021 -0.0381  0.0912
 1323ERGO    R318668   8.219  10.310   6.730 -0.0783 -0.0840  0.0736
 1323ERGO    R418669   8.044  10.400   6.948  0.0228  0.0001  0.1136
 1323ERGO    R518670   8.256  10.353   6.963  0.0036 -0.0922  0.0600
 1323ERGO    C118671   8.116  10.105   7.216 -0.0342 -0.0208  0.1101
 1323ERGO    C218672   7.898  10.071   7.587 -0.2528  0.3437  0.2380
 1324ERGO   ROH18673   2.638  13.601   6.293  0.1601  0.2847  0.0250
 1324ERGO    R118674   2.783  13.537   6.528  0.1338  0.0007 -0.0343
 1324ERGO    R218675   2.785  13.700   6.751  0.3595 -0.1153  0.0446
 1324ERGO    R318676   2.706  13.473   6.877  0.1304 -0.0926 -0.0504
 1324ERGO    R418677   2.750  13.666   7.093  0.4167 -0.2378  0.0397
 1324ERGO    R518678   2.837  13.467   7.077  0.1867 -0.3399 -0.0855
 1324ERGO    C118679   2.655  13.433   7.411  0.2349 -0.2876 -0.0523
 1324ERGO    C218680   2.547  13.300   7.714  0.0712 -0.0464 -0.1259
 1325ERGO   ROH18681   7.415  13.437   6.208 -0.0566  0.1147 -0.1101
 1325ERGO    R118682   7.454  13.494   6.482  0.1410  0.0033 -0.1132
 1325ERGO    R218683   7.642  13.675   6.572 -0.0037  0.1972 -0.1979
 1325ERGO    R318684   7.428  13.785   6.699 -0.0281 -0.1523  0.0816
 1325ERGO    R418685   7.661  13.874   6.853  0.0478  0.2525 -0.2406
 1325ERGO    R518686   7.485  13.773   6.931  0.3143 -0.0449  0.0118
 1325ERGO    C118687   7.472  14.095   7.136  0.0549 -0.0433 -0.0031
 1325ERGO    C218688   7.384  14.538   7.298 -0.2132 -0.3906 -0.0197
 1326ERGO   ROH18689  16.260  11.844   6.297  0.0775  0.0657  0.1040
 1326ERGO    R118690  16.146  11.733   6.531  0.1180  0.0060  0.0952
 1326ERGO    R218691  16.232  11.494   6.640  0.1610 -0.0013  0.0393
 1326ERGO    R318692  16.261  11.645   6.865  0.1643 -0.0429  0.0674
 1326ERGO    R418693  16.242  11.370   6.962 -0.1887 -0.0386  0.0390
 1326ERGO    R518694  16.120  11.539   7.026 -0.0610  0.0876 -0.0347
 1326ERGO    C118695  16.274  11.439   7.361 -0.3891 -0.0994  0.0652
 1326ERGO    C218696  16.477  11.439   7.520  0.1869 -0.1121 -0.3501
 1327ERGO   ROH18697   8.261  13.947   6.340  0.1696  0.1411  0.0026
 1327ERGO    R118698   8.091  13.948   6.566 -0.0047  0.2279 -0.1270
 1327ERGO    R218699   8.166  13.839   6.809 -0.3631 -0.0985 -0.1557
 1327ERGO    R318700   8.100  14.085   6.903 -0.0352 -0.0626 -0.0042
 1327ERGO    R418701   8.159  13.928   7.143 -0.1502 -0.2661 -0.1035
 1327ERGO    R518702   7.977  14.042   7.103 -0.0282 -0.0212  0.0107
 1327ERGO    C118703   8.093  14.212   7.425  0.2818 -0.3301  0.0690
 1327ERGO    C218704   7.833  14.449   7.606 -0.1478 -0.0417  0.1488
 1328ERGO   ROH18705  10.636   8.003   6.055 -0.2138 -0.1221  0.0113
 1328ERGO    R118706  10.608   8.147   6.296  0.1130  0.1037 -0.0797
 1328ERGO    R218707  10.516   8.031   6.530 -0.3503  0.4957 -0.0530
 1328ERGO    R318708  10.747   8.130   6.632 -0.0758 -0.1405 -0.0104
 1328ERGO    R418709  10.576   8.085   6.866 -0.3422  0.5071 -0.0560
 1328ERGO    R518710  10.677   8.270   6.813  0.2567  0.1893 -0.1231
 1328ERGO    C118711  10.828   8.209   7.158 -0.0799 -0.0835 -0.0177
 1328ERGO    C218712  11.016   8.174   7.372 -0.0539  0.3915 -0.1529
 1329ERGO   ROH18713   9.533  11.098   6.213  0.1089 -0.1340  0.0333
 1329ERGO    R118714   9.558  10.917   6.428  0.0643 -0.1476  0.0267
 1329ERGO    R218715   9.794  10.883   6.568  0.0470 -0.1866  0.0463
 1329ERGO    R318716   9.636  10.937   6.783  0.0348 -0.1753  0.0348
 1329ERGO    R418717   9.889  10.840   6.898 -0.0545 -0.3909  0.0503
 1329ERGO    R518718   9.689  10.763   6.940 -0.1147 -0.2778 -0.0272
 1329ERGO    C118719   9.795  10.865   7.292 -0.1251 -0.4993  0.0419
 1329ERGO    C218720   9.668  10.861   7.606  0.0675 -0.0150 -0.1012
 1330ERGO   ROH18721   8.377   1.240   5.935  0.0578 -0.2579 -0.0036
 1330ERGO    R118722   8.431   1.374   6.178 -0.1142 -0.1282 -0.0345
 1330ERGO    R218723   8.246   1.391   6.382 -0.1759 -0.2290 -0.0769
 1330ERGO    R318724   8.447   1.286   6.531 -0.1077 -0.0010 -0.0035
 1330ERGO    R418725   8.251   1.378   6.728 -0.3800 -0.4148 -0.0787
 1330ERGO    R518726   8.463   1.430   6.722 -0.4533 -0.0835  0.0896
 1330ERGO    C118727   8.444   1.271   7.068 -0.4348 -0.3090 -0.0108
 1330ERGO    C218728   8.616   1.252   7.494  0.0668 -0.1751 -0.1024
 1331ERGO   ROH18729  15.186  10.006   5.912  0.1623  0.1657  0.0460
 1331ERGO    R118730  15.176   9.891   6.170  0.1995  0.0052 -0.0248
 1331ERGO    R218731  15.397   9.878   6.335  0.1610  0.1256  0.0242
 1331ERGO    R318732  15.232  10.002   6.512 -0.0103 -0.1413  0.0618
 1331ERGO    R418733  15.400   9.829   6.677  0.4251  0.2212  0.0388
 1331ERGO    R518734  15.182   9.835   6.676  0.3954 -0.2076  0.1355
 1331ERGO    C118735  15.248   9.917   7.042  0.4182  0.0263  0.0826
 1331ERGO    C218736  15.125   9.872   7.412  0.0134  0.2131 -0.0693
 1332ERGO   ROH18737   6.208   8.242   6.301  0.0369 -0.3509  0.0474
 1332ERGO    R118738   6.189   8.239   6.584  0.1485 -0.2502  0.0572
 1332ERGO    R218739   6.098   8.019   6.724  0.0774 -0.1559  0.1649
 1332ERGO    R318740   6.335   8.046   6.856  0.1483 -0.2481  0.0579
 1332ERGO    R418741   6.167   7.885   7.036  0.0799  0.0301  0.2453
 1332ERGO    R518742   6.271   8.070   7.086  0.2516 -0.0162  0.0637
 1332ERGO    C118743   6.428   7.833   7.341  0.1479  0.0520  0.1917
 1332ERGO    C218744   6.443   7.849   7.657  0.0200  0.0715  0.0858
 1333ERGO   ROH18745  11.244  13.038   6.242 -0.1971  0.2247 -0.1152
 1333ERGO    R118746  11.291  12.951   6.508 -0.0429  0.0328 -0.2029
 1333ERGO    R218747  11.321  13.126   6.719  0.1902 -0.1147 -0.1080
 1333ERGO    R318748  11.122  12.977   6.829  0.2014 -0.0948 -0.0611
 1333ERGO    R418749  11.168  13.193   7.021  0.2753 -0.1070 -0.0667
 1333ERGO    R518750  11.168  12.980   7.064  0.2616 -0.1074 -0.0735
 1333ERGO    C118751  10.891  13.093   7.300  0.3356 -0.0836  0.0015
 1333ERGO    C218752  10.743  12.908   7.520  0.2058  0.2163 -0.2122
 1334ERGO   ROH18753   9.362   3.422   5.838  0.0248  0.1823  0.0314
 1334ERGO    R118754   9.210   3.379   6.072 -0.0162  0.2308  0.0136
 1334ERGO    R218755   9.289   3.204   6.271 -0.2151  0.0188 -0.0904
 1334ERGO    R318756   9.258   3.422   6.430  0.0558 -0.0323  0.0379
 1334ERGO    R418757   9.292   3.198   6.616 -0.2997 -0.2020 -0.0920
 1334ERGO    R518758   9.128   3.342   6.616 -0.0999  0.0315 -0.0412
 1334ERGO    C118759   9.265   3.399   6.968 -0.0947 -0.3785  0.0275
 1334ERGO    C218760   9.244   3.556   7.328 -0.1927  0.2040  0.1301
 1335ERGO   ROH18761   9.003   4.218   5.495  0.3019 -0.5205  0.0323
 1335ERGO    R118762   8.794   4.233   5.685  0.2169 -0.2559 -0.0786
 1335ERGO    R218763   8.616   4.026   5.728  0.0179 -0.0840 -0.0745
 1335ERGO    R318764   8.697   4.053   5.986 -0.0919 -0.0391 -0.0435
 1335ERGO    R418765   8.409   4.000   6.004 -0.1104  0.0047 -0.1605
 1335ERGO    R518766   8.516   4.167   6.094 -0.1258  0.0110 -0.1491
 1335ERGO    C118767   8.365   4.009   6.407 -0.2882  0.0985 -0.1814
 1335ERGO    C218768   8.311   3.977   6.752  0.1045 -0.0030  0.0121
 1336ERGO   ROH18769   2.562   4.462   6.408  0.0891 -0.0594  0.0264
 1336ERGO    R118770   2.543   4.330   6.658 -0.3026  0.0126  0.0405
 1336ERGO    R218771   2.740   4.347   6.851 -0.2377 -0.5422  0.0393
 1336ERGO    R318772   2.533   4.427   7.008 -0.0225  0.0867  0.0300
 1336ERGO    R418773   2.740   4.337   7.196 -0.2384 -0.4121  0.0437
 1336ERGO    R518774   2.533   4.270   7.189 -0.4369  0.1457  0.0890
 1336ERGO    C118775   2.546   4.407   7.545 -0.0368  0.2540  0.0376
 1336ERGO    C218776   2.562   4.300   7.866 -0.0425  0.1764  0.0229
 1337ERGO   ROH18777   3.596   6.636   5.968  0.2838  0.0630  0.0363
 1337ERGO    R118778   3.502   6.695   6.229  0.1848 -0.0144  0.0183
 1337ERGO    R218779   3.450   6.498   6.417  0.1931 -0.0640 -0.0342
 1337ERGO    R318780   3.620   6.645   6.569  0.0968 -0.0347  0.0467
 1337ERGO    R418781   3.534   6.427   6.744 -0.0710  0.0342  0.0590
 1337ERGO    R518782   3.524   6.639   6.788 -0.0764  0.0538 -0.0226
 1337ERGO    C118783   3.743   6.523   7.078 -0.3152  0.1189  0.1892
 1337ERGO    C218784   3.813   6.420   7.332 -0.1577 -0.2091  0.0445
 1338ERGO   ROH18785   4.297  17.321   5.775 -0.0363  0.0888 -0.1218
 1338ERGO    R118786   4.355  17.436   6.027  0.0126  0.0154 -0.0989
 1338ERGO    R218787   4.214  17.373   6.256  0.0376 -0.0292 -0.0952
 1338ERGO    R318788   4.461  17.317   6.355  0.0452 -0.0839 -0.1452
 1338ERGO    R418789   4.290  17.341   6.592  0.1034 -0.0229 -0.1095
 1338ERGO    R518790   4.476  17.448   6.555  0.1223 -0.0728 -0.1583
 1338ERGO    C118791   4.567  17.270   6.879  0.1488 -0.0708 -0.1648
 1338ERGO    C218792   4.575  17.409   7.147  0.0323  0.0509  0.0946
 1339ERGO   ROH18793  14.213   8.438   5.923 -0.0034 -0.2269  0.0436
 1339ERGO    R118794  14.348   8.453   6.171  0.0659 -0.0045 -0.0049
 1339ERGO    R218795  14.408   8.693   6.294 -0.0590  0.1029 -0.1501
 1339ERGO    R318796  14.275   8.583   6.503  0.0817  0.1205 -0.0502
 1339ERGO    R418797  14.433   8.800   6.621 -0.0230  0.2871 -0.2115
 1339ERGO    R518798  14.431   8.591   6.684  0.1356  0.3172 -0.1035
 1339ERGO    C118799  14.322   8.758   7.009  0.1299  0.4111 -0.1534
 1339ERGO    C218800  14.373   8.855   7.297  0.1346  0.1763  0.1159
 1340ERGO   ROH18801   9.976  17.574   6.024 -0.1432 -0.1811  0.1384
 1340ERGO    R118802   9.888  17.668   6.276 -0.0957 -0.0800  0.1178
 1340ERGO    R218803   9.679  17.551   6.414 -0.1109  0.0152  0.1750
 1340ERGO    R318804   9.863  17.534   6.613 -0.0965  0.0324  0.1631
 1340ERGO    R418805   9.604  17.523   6.750 -0.0892  0.1905  0.1951
 1340ERGO    R518806   9.768  17.661   6.793 -0.0316  0.1482  0.1181
 1340ERGO    C118807   9.734  17.492   7.133 -0.0629  0.3090  0.1956
 1340ERGO    C218808   9.593  17.577   7.430 -0.1234  0.2646  0.0195
 1341ERGO   ROH18809  16.231   7.345   5.993  0.3611 -0.2867  0.0582
 1341ERGO    R118810  16.307   7.253   6.249  0.3620 -0.1403  0.1118
 1341ERGO    R218811  16.497   7.381   6.403  0.0627  0.1918  0.2195
 1341ERGO    R318812  16.300   7.381   6.589 -0.0563 -0.1196  0.0995
 1341ERGO    R418813  16.548   7.353   6.743 -0.0893  0.3653  0.2581
 1341ERGO    R518814  16.373   7.222   6.753  0.1342  0.0481  0.1801
 1341ERGO    C118815  16.392   7.336   7.117 -0.2897  0.1741  0.1679
 1341ERGO    C218816  16.353   7.443   7.452 -0.0382  0.4633 -0.1578
 1342ERGO   ROH18817   1.765  13.974   6.341  0.0683 -0.1619 -0.0371
 1342ERGO    R118818   1.709  14.047   6.609  0.0361  0.0181 -0.0920
 1342ERGO    R218819   1.634  13.863   6.800 -0.1775  0.1746 -0.0245
 1342ERGO    R318820   1.844  13.969   6.938 -0.1385  0.0743 -0.0055
 1342ERGO    R418821   1.699  13.805   7.135 -0.2352  0.1361 -0.0197
 1342ERGO    R518822   1.754  14.016   7.155 -0.1373  0.1126 -0.0115
 1342ERGO    C118823   1.933  13.871   7.459 -0.2321  0.0195  0.0009
 1342ERGO    C218824   1.938  13.735   7.767  0.2648 -0.1478 -0.1603
 1343ERGO   ROH18825   1.892   6.092   6.084  0.0494  0.0161 -0.1112
 1343ERGO    R118826   1.855   6.191   6.346  0.0922  0.0251 -0.1086
 1343ERGO    R218827   1.739   6.041   6.547 -0.0494  0.0983 -0.1342
 1343ERGO    R318828   1.968   6.101   6.681 -0.0179 -0.0875 -0.1011
 1343ERGO    R418829   1.768   6.055   6.891 -0.0731  0.0256 -0.1289
 1343ERGO    R518830   1.894   6.231   6.868  0.0578 -0.0616 -0.0894
 1343ERGO    C118831   2.000   6.120   7.217 -0.0574 -0.1909 -0.0948
 1343ERGO    C218832   2.216   6.207   7.474 -0.1845  0.0731 -0.0906
 1344ERGO   ROH18833  13.515   3.714   5.864  0.0003 -0.3127 -0.1616
 1344ERGO    R118834  13.445   3.777   6.131  0.1063 -0.0955 -0.1828
 1344ERGO    R218835  13.262   3.630   6.275 -0.0875  0.2161 -0.0990
 1344ERGO    R318836  13.465   3.613   6.455 -0.0907  0.0199 -0.1112
 1344ERGO    R418837  13.220   3.615   6.618 -0.0786  0.2846 -0.0949
 1344ERGO    R518838  13.392   3.748   6.639  0.0617  0.1099 -0.1163
 1344ERGO    C118839  13.387   3.591   6.987 -0.0763  0.1403 -0.1039
 1344ERGO    C218840  13.354   3.477   7.308 -0.1190 -0.1037  0.0628
 1345ERGO   ROH18841  10.080   4.315   5.957 -0.3523  0.0256 -0.1107
 1345ERGO    R118842  10.177   4.339   6.223 -0.1888  0.0544 -0.1707
 1345ERGO    R218843  10.158   4.573   6.368 -0.2198  0.0350 -0.1370
 1345ERGO    R318844  10.035   4.413   6.550 -0.0157 -0.0495 -0.0716
 1345ERGO    R418845  10.145   4.634   6.708 -0.1315  0.0488 -0.1363
 1345ERGO    R518846  10.177   4.421   6.742  0.0544  0.0799 -0.1306
 1345ERGO    C118847  10.022   4.519   7.076  0.1116 -0.0224 -0.0745
 1345ERGO    C218848   9.999   4.425   7.372 -0.0063 -0.2015  0.2807
 1346ERGO   ROH18849  17.538  12.364   6.625  0.2599  0.2928  0.1368
 1346ERGO    R118850  17.483  12.166   6.819  0.0509  0.2037 -0.0097
 1346ERGO    R218851  17.669  12.084   7.006 -0.0774 -0.0362  0.0193
 1346ERGO    R318852  17.472  12.147   7.182 -0.1100 -0.0194 -0.0240
 1346ERGO    R418853  17.611  11.920   7.305 -0.1030  0.0198  0.0448
 1346ERGO    R518854  17.397  11.935   7.266 -0.0995 -0.0105  0.0092
 1346ERGO    C118855  17.392  11.882   7.643 -0.1490  0.0681  0.0191
 1346ERGO    C218856  17.415  11.830   8.029  0.1329  0.1842  0.0977
 1347ERGO   ROH18857   5.342  11.972   6.145 -0.0579 -0.0341 -0.0373
 1347ERGO    R118858   5.341  11.982   6.428 -0.1975  0.0315 -0.0383
 1347ERGO    R218859   5.513  12.146   6.571 -0.1137 -0.0930  0.0122
 1347ERGO    R318860   5.281  12.235   6.682 -0.0954  0.1527 -0.1329
 1347ERGO    R418861   5.489  12.317   6.870 -0.1407 -0.2399  0.0948
 1347ERGO    R518862   5.311  12.202   6.917 -0.3404 -0.0307 -0.1246
 1347ERGO    C118863   5.259  12.500   7.149 -0.1392 -0.0949  0.0068
 1347ERGO    C218864   4.939  12.669   7.320 -0.0062 -0.1400  0.4115
 1348ERGO   ROH18865   0.729  13.952   6.551  0.0704 -0.0156  0.0651
 1348ERGO    R118866   0.789  13.924   6.826 -0.2165  0.1719  0.1511
 1348ERGO    R218867   0.595  13.882   7.018 -0.3740 -0.3356 -0.1040
 1348ERGO    R318868   0.749  13.668   7.081  0.1310  0.0720  0.1105
 1348ERGO    R418869   0.609  13.736   7.330 -0.3958 -0.2709 -0.0727
 1348ERGO    R518870   0.825  13.714   7.304 -0.2815  0.3037  0.2137
 1348ERGO    C118871   0.763  13.450   7.572  0.0656  0.1493  0.1470
 1348ERGO    C218872   0.603  13.162   7.833  0.0379 -0.2049 -0.0903
 1349W        W18873  17.366  11.747   3.598  0.0314 -0.0249 -0.3733
 1350W        W18874  15.043  15.821  14.214  0.1774  0.3025  0.1613
 1351W        W18875  16.803   1.805  14.470 -0.0954  0.0633  0.1212
 1352W        W18876  17.622  14.767   2.551  0.2977  0.0098 -0.2224
 1353W        W18877   6.798  13.813   3.448 -0.0806 -0.1046  0.0515
 1354W        W18878   7.442  13.277  15.901 -0.2175 -0.0236  0.1255
 1355W        W18879   9.527   0.092   0.800 -0.0598  0.0063 -0.4435
 1356W        W18880   6.466   9.450   0.074  0.0193 -0.1469 -0.1231
 1357W        W18881   7.389  16.013  13.372  0.1141  0.0286 -0.0086
 1358W        W18882   5.090  11.849  14.819 -0.0991 -0.0778 -0.1010
 1359W        W18883  12.804   5.502   2.468  0.1907  0.1154 -0.1036
 1360W        W18884   2.700  12.917   1.513  0.0840 -0.0540  0.0591
 1361W        W18885  18.034  17.365  12.771  0.0664  0.0253 -0.0568
 1362W        W18886  13.711   1.558  14.810 -0.0015 -0.0670 -0.0271
 1363W        W18887  12.945  10.343   0.864  0.1196  0.0319 -0.2213
 1364W        W18888   7.840  16.418   3.568  0.2828 -0.1794 -0.2513
 1365W        W18889   9.067  12.642  11.606  0.0986 -0.0906 -0.0422
 1366W        W18890   5.320   6.729  14.868  0.1637  0.1743 -0.1531
 1367W        W18891  12.677  17.542  11.494  0.2624 -0.1504 -0.0655
 1368W        W18892  11.234  16.293  13.015 -0.2049 -0.0209  0.1230
 1369W        W18893   7.683  11.086  11.983 -0.0665 -0.0227 -0.0964
 1370W        W18894   4.797   7.825  11.957  0.2394  0.1139  0.0637
 1371W        W18895   7.460   1.731  15.534  0.1765 -0.0603  0.1423
 1372W        W18896  12.689   1.335  13.335 -0.2572 -0.1369 -0.0563
 1373W        W18897   9.810  12.353  14.175  0.4444  0.0245  0.2626
 1374W        W18898  11.338  10.081   4.015 -0.1785 -0.0258 -0.1339
 1375W        W18899   2.785  10.843   2.302 -0.3299  0.0920  0.1052
 1376W        W18900   0.490  13.342   1.517  0.1843 -0.1076 -0.1307
 1377W        W18901   0.242   9.888  12.349 -0.1268 -0.1650 -0.1464
 1378W        W18902   2.422  13.981  12.188  0.1095 -0.2110  0.0750
 1379W        W18903   3.712   2.917   0.067 -0.0689  0.1966  0.0877
 1380W        W18904  14.530  12.736   4.572  0.0411  0.0492 -0.2043
 1381W        W18905   5.908   4.632  14.071  0.2673 -0.0239 -0.1939
 1382W        W18906   1.766   4.724  15.991  0.0999  0.0910 -0.0121
 1383W        W18907   2.505  13.096   3.537 -0.3681 -0.1417  0.3199
 1384W        W18908  10.025   6.711   2.406  0.2018 -0.0876 -0.0263
 1385W        W18909  13.932   9.625  12.165 -0.1891  0.1574  0.2100
 1386W        W18910   0.698   7.586  12.531  0.0790 -0.3154 -0.1183
 1387W        W18911   4.578   2.189  12.971 -0.2800  0.1471 -0.0288
 1388W        W18912   0.067   8.928  15.705 -0.0068 -0.2109  0.1309
 1389W        W18913  12.104  15.617   5.566  0.0707 -0.0915 -0.0294
 1390W        W18914   3.095  17.463   2.323  0.4715  0.2112  0.0466
 1391W        W18915   0.031   4.865   4.022 -0.1600 -0.0562 -0.4420
 1392W        W18916   1.266  15.531  12.913  0.3619  0.0553  0.1011
 1393W        W18917   9.894  10.281   0.292  0.0518  0.1927  0.0971
 1394W        W18918   6.019  12.569   2.991 -0.0788  0.0793 -0.0708
 1395W        W18919   5.991   9.969  14.227 -0.2310  0.3288  0.1320
 1396W        W18920   0.339   0.751   5.943  0.1129  0.0998 -0.0754
 1397W        W18921  12.071  11.933  14.371 -0.1620  0.2163  0.3490
 1398W        W18922  11.726   6.919   3.323 -0.2088  0.3891  0.1185
 1399W        W18923  15.008  13.846   2.752 -0.1290  0.2806 -0.0405
 1400W        W18924  16.824   6.103   1.206  0.1206 -0.1869  0.0231
 1401W        W18925  17.104   2.271  12.410  0.1518  0.3185 -0.1327
 1402W        W18926   8.330   7.990  15.501 -0.0560 -0.0278 -0.3184
 1403W        W18927   1.982   4.546   5.032  0.1106  0.0236  0.1533
 1404W        W18928  17.628   2.618  15.828  0.0352 -0.0041  0.0390
 1405W        W18929   1.952   7.887   2.560  0.2431  0.0122 -0.1053
 1406W        W18930   1.299   9.586  15.388 -0.0365 -0.4488  0.1631
 1407W        W18931   7.170   2.537  12.404  0.4679 -0.0371  0.2058
 1408W        W18932   9.069  17.455   1.155  0.1199 -0.0425  0.0281
 1409W        W18933  15.834   0.691  15.503  0.0635  0.0601  0.2176
 1410W        W18934   4.462   2.578   3.461  0.2869 -0.5866 -0.0691
 1411W        W18935   2.489  12.567  13.257  0.0051 -0.1516  0.1288
 1412W        W18936   3.746  12.902   2.876  0.0368  0.0296 -0.4516
 1413W        W18937  17.972  15.388  13.182 -0.1640 -0.0213 -0.1781
 1414W        W18938   2.428   2.144  15.363  0.1190 -0.1039  0.0079
 1415W        W18939  11.536   5.399  15.982 -0.0881 -0.0415 -0.1055
 1416W        W18940  18.023  16.391  14.085  0.1628  0.0005  0.4478
 1417W        W18941   2.971   5.227  13.799 -0.1090 -0.1146  0.0365
 1418W        W18942  11.917   9.031  15.988  0.1662 -0.1236  0.1911
 1419W        W18943  17.443   1.980   2.069 -0.0641  0.0109  0.0236
 1420W        W18944  13.277  17.813   1.395  0.0963  0.1682 -0.2773
 1421W        W18945  14.777  12.217   3.895  0.1410 -0.1372 -0.1073
 1422W        W18946   6.245   7.088  14.933 -0.0363 -0.3564 -0.2843
 1423W        W18947   2.664   1.629   2.713 -0.0862  0.1339 -0.1557
 1424W        W18948   4.914  12.240  11.002 -0.1790 -0.4451  0.2911
 1425W        W18949   1.991   3.537   2.445 -0.0125 -0.0637 -0.0152
 1426W        W18950  11.400  10.177  13.991  0.1520  0.0461  0.0357
 1427W        W18951  14.757  14.905  15.535  0.0082  0.0973  0.0203
 1428W        W18952  17.641  16.386  11.961 -0.2771  0.1528 -0.1062
 1429W        W18953   8.448  10.721   1.821  0.3237  0.3644 -0.1519
 1430W        W18954  14.292   0.009   1.171  0.1301  0.1666  0.0493
 1431W        W18955   6.136  17.096  14.805 -0.0113 -0.0615  0.0456
 1432W        W18956   4.251  12.595   3.814  0.1358 -0.0508 -0.0186
 1433W        W18957  12.360  14.440   5.280 -0.0520  0.2427 -0.0629
 1434W        W18958   5.261   2.717  13.603  0.0676  0.2382  0.2988
 1435W        W18959   1.192   8.522   2.508  0.0157  0.3704 -0.2525
 1436W        W18960   6.811  12.203  14.219 -0.0944 -0.2143  0.0909
 1437W        W18961   1.920  13.323  13.776  0.5202  0.4133  0.3218
 1438W        W18962  11.583  11.088   3.681 -0.2474 -0.0253 -0.2780
 1439W        W18963   3.478  17.365  11.842  0.0078  0.0527  0.1928
 1440W        W18964   5.142   7.792   2.370 -0.2406 -0.0367  0.3386
 1441W        W18965   8.238   0.290   0.660 -0.1810 -0.5363 -0.3886
 1442W        W18966  10.590   5.117   2.234 -0.1380  0.2329  0.1566
 1443W        W18967   0.998  15.246   2.506  0.2535 -0.2908 -0.1122
 1444W        W18968  11.262   1.461  11.686 -0.0039 -0.0253 -0.0579
 1445W        W18969   4.031   5.579   5.121 -0.3493 -0.1463 -0.2743
 1446W        W18970   3.723   5.602   1.295  0.1702  0.0250 -0.0477
 1447W        W18971   2.991  10.227   1.122  0.0666  0.1311  0.2175
 1448W        W18972   8.314   3.323   2.600 -0.1892 -0.0972  0.0722
 1449W        W18973  10.112  10.997   0.846  0.0822  0.3116 -0.2547
 1450W        W18974  12.401  17.092  14.304 -0.0452 -0.0707 -0.0446
 1451W        W18975  14.503  13.800   1.995  0.1553 -0.2343 -0.3148
 1452W        W18976   2.423   1.341   3.183 -0.0479 -0.3627 -0.0863
 1453W        W18977   8.173  13.659   2.531  0.1259  0.0799  0.0933
 1454W        W18978   9.945  14.868  10.576  0.2244  0.1127 -0.0703
 1455W        W18979   9.030   6.607  12.975  0.3529 -0.2402  0.0573
 1456W        W18980   7.061  11.038   4.069 -0.2802 -0.2706 -0.0381
 1457W        W18981   3.890   6.950  11.029 -0.1636  0.0824  0.0089
 1458W        W18982  14.222   5.059   2.736  0.0208 -0.0774  0.0264
 1459W        W18983   7.491   1.962  14.152  0.0136 -0.2476 -0.2115
 1460W        W18984  13.442   0.039   1.772  0.0779 -0.2395  0.2568
 1461W        W18985  15.093   1.919   4.134  0.0598 -0.0461  0.1581
 1462W        W18986   8.348   6.742  13.592  0.0547  0.2011 -0.4135
 1463W        W18987  16.246  16.412  14.392 -0.2964 -0.2378  0.1311
 1464W        W18988  17.365   3.087   3.687  0.0000 -0.1617 -0.0623
 1465W        W18989  16.969   0.130  11.783 -0.0833  0.0382  0.3195
 1466W        W18990  13.222   2.162  11.688  0.0705  0.1622 -0.0501
 1467W        W18991   2.140   9.674  15.941  0.0351 -0.3535  0.1449
 1468W        W18992   3.845  11.599   4.021  0.2191  0.3304 -0.1051
 1469W        W18993   6.179   6.746  14.136  0.0684  0.0920  0.2664
 1470W        W18994   4.736  10.516   4.623 -0.1208  0.2755 -0.1235
 1471W        W18995   6.377   6.330  13.897 -0.0815  0.0202  0.2541
 1472W        W18996  17.807   6.538   5.342 -0.3655  0.2787 -0.2386
 1473W        W18997   2.727  15.669  15.093  0.1599 -0.0461  0.2522
 1474W        W18998   2.180   5.649  11.712 -0.2328 -0.0575 -0.1299
 1475W        W18999   9.529   1.525   1.667 -0.0336 -0.2793  0.0039
 1476W        W19000  14.499   6.240  13.761 -0.0294  0.0589 -0.0597
 1477W        W19001   1.077  11.457   1.008  0.3848  0.3200 -0.2545
 1478W        W19002   3.134   9.682  15.010  0.0532  0.1112 -0.0194
 1479W        W19003   8.977  15.423   3.141 -0.1207 -0.1238 -0.0049
 1480W        W19004  17.271  14.244  12.745  0.0314  0.1421 -0.2676
 1481W        W19005  16.757   8.580  13.687 -0.0628  0.2642 -0.0475
 1482W        W19006   4.188   4.696  16.027 -0.2993  0.1526  0.3508
 1483W        W19007  10.693  11.589   1.358  0.0568  0.0012  0.2459
 1484W        W19008  15.277   4.176   0.320  0.0274  0.2273 -0.1163
 1485W        W19009  14.094   4.794   4.282 -0.0323 -0.0960  0.1009
 1486W        W19010  13.112  10.140   1.584  0.0787  0.1055 -0.0092
 1487W        W19011  16.655   2.301  10.927 -0.2606 -0.0686 -0.1433
 1488W        W19012   0.876   8.927   2.569 -0.0143 -0.0433 -0.2059
 1489W        W19013  14.213   1.927   2.719 -0.0285  0.2773 -0.0936
 1490W        W19014  10.921   8.936  15.698  0.0046 -0.0134  0.2683
 1491W        W19015   4.799   2.898  13.277  0.1292 -0.1851  0.0452
 1492W        W19016   8.276  13.161   2.904  0.0955 -0.3419  0.3318
 1493W        W19017   0.449   2.988   1.293 -0.0629  0.2131  0.0112
 1494W        W19018  15.170  10.235  15.191  0.1283  0.1799  0.0321
 1495W        W19019   2.665   3.754  11.789 -0.1985 -0.0135 -0.2356
 1496W        W19020   7.246  10.224   1.694 -0.0409  0.1900  0.0601
 1497W        W19021   1.863   0.629  14.506  0.0451  0.0407 -0.0033
 1498W        W19022   7.818   5.203  13.559  0.2206 -0.1016  0.0464
 1499W        W19023   1.753   9.347   3.553  0.3363 -0.1284  0.0399
 1500W        W19024  15.968   1.215   1.202  0.1557 -0.0502  0.1144
 1501W        W19025  10.515  17.563   4.694 -0.1076 -0.0732  0.0692
 1502W        W19026  15.710   3.933   0.952 -0.1759  0.0778 -0.0125
 1503W        W19027   7.877  15.980  13.326 -0.1492 -0.0179 -0.0356
 1504W        W19028  16.108  13.137  12.824 -0.0798 -0.1334 -0.0429
 1505W        W19029  15.166  17.175   4.653  0.1030 -0.1609 -0.2319
 1506W        W19030   4.891   3.611  12.363  0.1554  0.0078  0.0880
 1507W        W19031   5.731  17.856  14.376  0.0027  0.0612  0.1431
 1508W        W19032  10.615  13.086  13.424 -0.0158  0.2132 -0.1241
 1509W        W19033   7.892   6.244  12.789 -0.0567  0.0442  0.1911
 1510W        W19034  17.903  13.634  14.696  0.3316  0.1198 -0.2050
 1511W        W19035  10.214  14.893  11.964 -0.3223 -0.0972 -0.0089
 1512W        W19036   7.842   8.969  12.302 -0.3211 -0.0948  0.1518
 1513W        W19037  15.515   4.086   4.611  0.0876  0.1524  0.1669
 1514W        W19038   2.842   1.687   3.854 -0.0870 -0.1399  0.0055
 1515W        W19039   0.519   2.546   2.602  0.1150  0.2787  0.0727
 1516W        W19040  15.245   4.107   0.859  0.0036  0.0853  0.1388
 1517W        W19041   5.528   6.325  10.666 -0.0020 -0.3986 -0.0578
 1518W        W19042  12.258   2.683  13.195  0.0056 -0.0837 -0.2011
 1519W        W19043  13.821  17.042  14.623 -0.3425 -0.0125 -0.2158
 1520W        W19044   1.844   7.701  13.523  0.1305  0.0654  0.0218
 1521W        W19045  10.720   5.191   3.564 -0.3196 -0.1567 -0.1625
 1522W        W19046   8.184   4.071   1.844  0.1147  0.0716  0.1831
 1523W        W19047   5.446   8.022  15.038  0.1364 -0.0626 -0.0658
 1524W        W19048  13.184   6.392  11.499 -0.2442  0.1234  0.2133
 1525W        W19049   8.897   8.256  11.075  0.1521  0.0907  0.1281
 1526W        W19050  10.322   7.399  15.319  0.3325 -0.1271 -0.0619
 1527W        W19051   9.931  10.543   3.186  0.1075  0.2230  0.1384
 1528W        W19052   9.299   3.329   3.864  0.0108 -0.1447 -0.1236
 1529W        W19053  16.348   5.852  12.540  0.0911  0.0793  0.0668
 1530W        W19054   9.581   8.831   2.819  0.2847 -0.0321 -0.2661
 1531W        W19055   1.564   0.233  12.270  0.0210  0.0678  0.2230
 1532W        W19056  12.893   0.476   3.765  0.0430  0.3758 -0.4171
 1533W        W19057   0.424   7.156  15.874 -0.1697 -0.0375  0.0135
 1534W        W19058  14.527   7.620   2.718  0.0305  0.0887  0.1531
 1535W        W19059   1.971   3.883   2.890 -0.3698 -0.0030  0.2454
 1536W        W19060   4.323   6.146   4.987  0.0511  0.1143 -0.2223
 1537W        W19061   5.803   6.849   1.383 -0.1713 -0.0604 -0.3318
 1538W        W19062  11.052  11.567  12.840  0.1013  0.1705  0.2570
 1539W        W19063  12.350   4.257  14.479  0.3868  0.1075  0.2444
 1540W        W19064  15.412   7.134  14.084 -0.1400  0.1301 -0.1936
 1541W        W19065  16.607   5.641  15.826  0.1173  0.0903 -0.2550
 1542W        W19066   4.749   1.845  13.296  0.1330 -0.2047 -0.0983
 1543W        W19067   2.168   7.012   3.568 -0.1360  0.0195  0.2020
 1544W        W19068  17.215  10.206   1.064 -0.4939  0.2941  0.0144
 1545W        W19069   4.713   6.710   3.360  0.4403  0.2036  0.2368
 1546W        W19070  16.783   4.705   1.040  0.2266  0.0251  0.0726
 1547W        W19071   9.841  17.973  11.918 -0.1740 -0.1474 -0.0053
 1548W        W19072   7.758  11.534  13.696 -0.0910 -0.1012  0.0798
 1549W        W19073  11.415   9.640   3.783 -0.2045 -0.0199 -0.1148
 1550W        W19074   6.776  11.636   2.248  0.2108  0.1653  0.3120
 1551W        W19075   1.646  14.414  13.744 -0.0652  0.1182 -0.4731
 1552W        W19076   3.463   3.216   1.769  0.1812  0.1985  0.1910
 1553W        W19077   8.033   4.501   0.428  0.2531 -0.0718 -0.1634
 1554W        W19078  10.089   0.850   2.032 -0.2761  0.0420  0.2367
 1555W        W19079   4.869   7.946  13.627 -0.0672  0.0127 -0.0082
 1556W        W19080   5.260  16.467  12.286  0.1431 -0.0255  0.2161
 1557W        W19081  16.261  13.186  11.448 -0.0582 -0.1686  0.0089
 1558W        W19082  14.673   7.358  12.540  0.0221 -0.2947 -0.0989
 1559W        W19083  11.033  15.500  12.257  0.2916 -0.0713  0.0742
 1560W        W19084   3.495  17.988  15.914  0.2032 -0.0792  0.0749
 1561W        W19085   1.006   0.650  15.001 -0.0526 -0.2115 -0.3098
 1562W        W19086   3.386  15.496   3.070 -0.1370 -0.0058  0.0601
 1563W        W19087   8.180   5.050  15.566 -0.0705 -0.1138 -0.0203
 1564W        W19088  12.288   9.356   2.648  0.0736  0.1050 -0.1335
 1565W        W19089  16.312   8.482   0.647 -0.1302  0.0325  0.2499
 1566W        W19090   6.054  13.215   2.385 -0.1883  0.2543  0.0097
 1567W        W19091   9.228   9.254   4.406  0.1433 -0.1945  0.0812
 1568W        W19092  14.922  14.491  14.594  0.0955  0.0499 -0.0508
 1569W        W19093   4.557  11.135   3.786  0.2874  0.0328 -0.2641
 1570W        W19094  16.162  10.142  11.507 -0.0236 -0.2189  0.0761
 1571W        W19095  12.360   5.672  12.358 -0.0573 -0.2264  0.2743
 1572W        W19096  14.006  11.987   3.545  0.0456 -0.2099 -0.0210
 1573W        W19097   0.039  10.207  13.985  0.0815 -0.2901  0.0005
 1574W        W19098  15.513   8.030   0.847 -0.1194 -0.0847  0.0448
 1575W        W19099   0.673   4.358   4.362 -0.0305 -0.3547  0.0556
 1576W        W19100  16.434   0.800   2.208 -0.1880  0.1298  0.2567
 1577W        W19101  16.216   6.465   1.688 -0.1835 -0.0375  0.1977
 1578W        W19102  17.573   2.439   2.296 -0.0428 -0.0845  0.2738
 1579W        W19103   4.244  13.766  16.049  0.0735 -0.0507 -0.2857
 1580W        W19104  10.534  16.067  13.815  0.0110 -0.0766  0.2711
 1581W        W19105   8.533  10.255   4.761 -0.0031  0.1386  0.2856
 1582W        W19106   6.499  17.051   5.020  0.0124 -0.2547 -0.2989
 1583W        W19107  16.500   4.763   2.169  0.0568 -0.1559  0.1796
 1584W        W19108   2.925   8.669   4.036  0.2053 -0.0846 -0.0903
 1585W        W19109  14.993  16.584   2.157  0.0360 -0.1274 -0.3385
 1586W        W19110   7.920  13.629   1.203  0.1063 -0.2400  0.3233
 1587W        W19111  16.123  12.615   1.745 -0.1838 -0.1410 -0.0816
 1588W        W19112   4.781  16.798   0.292  0.2146  0.1140  0.0949
 1589W        W19113   9.828  13.967  11.446 -0.0041 -0.0850 -0.0343
 1590W        W19114   0.672   1.916  16.026 -0.1050 -0.2060 -0.5184
 1591W        W19115   7.666   4.634  13.481 -0.2689  0.0196  0.0502
 1592W        W19116  13.368  16.902   3.866 -0.1258 -0.0849  0.2874
 1593W        W19117   2.623   0.246  14.874 -0.1319  0.2062 -0.0224
 1594W        W19118  17.251   7.178   4.416  0.1418 -0.1342 -0.1027
 1595W        W19119  13.469   0.782  12.814  0.1297  0.0222 -0.0017
 1596W        W19120   4.724   5.296   5.532 -0.0366 -0.2202 -0.1637
 1597W        W19121  15.067   5.023   0.842 -0.2449 -0.2407  0.1585
 1598W        W19122  10.788  11.970   1.775 -0.3853  0.2829  0.3637
 1599W        W19123   5.886   3.744  14.418  0.1531 -0.0928 -0.0893
 1600W        W19124  12.364   6.323  12.722  0.1680  0.1540 -0.0066
 1601W        W19125   1.410   7.961  12.805 -0.0388  0.2215 -0.1913
 1602W        W19126  16.792   0.430   2.982  0.1077  0.2402  0.1845
 1603W        W19127  15.251  13.445   3.008 -0.2859  0.1481  0.0090
 1604W        W19128   1.374   5.861  14.719  0.0137  0.1033 -0.2621
 1605W        W19129   7.638   4.442  12.964 -0.1677  0.0572 -0.3607
 1606W        W19130   7.228   3.805   0.174 -0.2386 -0.0750 -0.1191
 1607W        W19131   7.971   4.598   2.568 -0.1678  0.1831 -0.0199
 1608W        W19132   1.097  10.020   1.059 -0.1037 -0.2851  0.0999
 1609W        W19133   1.371  10.261  14.513  0.0487 -0.3614 -0.0017
 1610W        W19134   2.689  12.721   0.944  0.1173  0.3410 -0.1426
 1611W        W19135   2.155  13.823   0.908  0.0216  0.0769 -0.1206
 1612W        W19136   8.105  11.311  12.290  0.0684  0.0592  0.3398
 1613W        W19137  10.409  13.784   0.637  0.2979 -0.0283 -0.0681
 1614W        W19138   0.676   7.866   1.102  0.1407  0.1571  0.1402
 1615W        W19139  14.625  11.012  11.656  0.0661  0.0288  0.0214
 1616W        W19140  16.924  13.002   0.677 -0.2273  0.0171 -0.1219
 1617W        W19141   1.946   2.952  14.735 -0.1001  0.1132 -0.3323
 1618W        W19142  12.000  10.611  11.662 -0.1730  0.1387 -0.0907
 1619W        W19143  11.464  17.098  13.433  0.1263  0.0698  0.1702
 1620W        W19144   7.007   7.450  12.461 -0.1272  0.0948 -0.1724
 1621W        W19145  11.076   9.290   3.414 -0.0160 -0.3904 -0.1606
 1622W        W19146   0.279   2.783   1.720  0.0994  0.1019  0.1704
 1623W        W19147  13.151  15.349  11.626  0.1097  0.0716 -0.0796
 1624W        W19148  11.101  17.759   4.582  0.0978 -0.0676 -0.2722
 1625W        W19149  15.283   5.622   2.030 -0.0786  0.2335 -0.2629
 1626W        W19150   9.107   9.411   4.880 -0.0161  0.0630 -0.0120
 1627W        W19151  11.271  15.975   4.979  0.1175 -0.1499 -0.3433
 1628W        W19152   6.243  10.631   5.142  0.1596 -0.1080 -0.0739
 1629W        W19153   6.979  17.869  13.679  0.1192  0.0759 -0.0031
 1630W        W19154  15.250   8.333   4.298 -0.2711  0.0607 -0.1540
 1631W        W19155   4.229  14.868   2.667 -0.2251 -0.0338 -0.2235
 1632W        W19156  15.702   3.725   3.747 -0.4144 -0.4493  0.1036
 1633W        W19157   3.733  14.710   2.691 -0.2894 -0.1137  0.1412
 1634W        W19158  16.401   6.593   2.517  0.1949 -0.0083  0.1154
 1635W        W19159   9.663   6.767   4.173 -0.0558  0.1980  0.2568
 1636W        W19160  14.750   9.453   1.835 -0.1414  0.1694  0.2770
 1637W        W19161  14.413  10.914  13.413  0.0295  0.2569  0.0107
 1638W        W19162  11.148   2.927   1.226  0.0282 -0.1110 -0.0125
 1639W        W19163   2.477  14.698   1.447  0.1432  0.2269  0.2571
 1640W        W19164   8.159  14.371   4.904 -0.0318 -0.0714  0.2843
 1641W        W19165  10.829   6.485   1.400  0.2185 -0.0449 -0.0275
 1642W        W19166   0.270   1.255   5.681 -0.4546  0.0765 -0.0448
 1643W        W19167   9.928   8.468   1.700 -0.0162  0.0580 -0.0310
 1644W        W19168   0.873  10.230   0.718  0.2721 -0.0885 -0.0450
 1645W        W19169   2.724  16.862   0.315 -0.2654 -0.3266 -0.1114
 1646W        W19170   5.301   1.655   3.644 -0.1405 -0.1627  0.2218
 1647W        W19171  18.117  15.173   3.996 -0.0078 -0.0638  0.1824
 1648W        W19172   2.225   5.753   1.868 -0.3427  0.3672 -0.0247
 1649W        W19173   3.843   3.974  10.095 -0.2030  0.0406  0.2189
 1650W        W19174  14.973  12.950   0.076  0.1394  0.4726 -0.0679
 1651W        W19175   7.111  10.579  13.496  0.3258  0.0608 -0.3001
 1652W        W19176   1.239  11.481  12.422  0.3079 -0.3470  0.4029
 1653W        W19177   6.919  10.658   0.231 -0.2789  0.1380 -0.3164
 1654W        W19178   4.637   3.717   2.764  0.0939  0.1693 -0.0706
 1655W        W19179   0.172   6.506   4.670 -0.1763  0.3837  0.0957
 1656W        W19180   6.680   9.432   1.562 -0.0233 -0.2174 -0.1002
 1657W        W19181  16.309   3.987  10.690  0.1711  0.0441 -0.2473
 1658W        W19182   3.892  17.588  11.256 -0.0709  0.1704  0.3871
 1659W        W19183   1.935   2.844   4.829  0.2028 -0.0148 -0.0278
 1660W        W19184   0.396  13.151  11.783 -0.0678 -0.1141  0.1308
 1661W        W19185   8.651  16.728  15.366 -0.3784 -0.1019  0.0146
 1662W        W19186   9.914   9.201  14.719  0.0124  0.0663  0.0490
 1663W        W19187   7.949  10.290  11.539  0.2613 -0.1128 -0.2492
 1664W        W19188   6.649   2.277  16.042  0.2185 -0.0154 -0.0542
 1665W        W19189   7.058  10.653   1.579 -0.3764 -0.1166 -0.1270
 1666W        W19190   7.614   7.095   1.168  0.1205  0.0639 -0.3429
 1667W        W19191   1.302   1.858   2.031  0.1180 -0.3040 -0.0530
 1668W        W19192  16.253   6.064   4.723  0.0095  0.1025  0.1982
 1669W        W19193  12.044   8.149  11.664 -0.2359  0.0311 -0.0160
 1670W        W19194  12.411   2.867   4.990 -0.1121  0.1073 -0.1327
 1671W        W19195  14.989   6.565   0.089 -0.0533  0.1140  0.0355
 1672W        W19196   0.245  10.299   0.525  0.2876  0.1276 -0.0587
 1673W        W19197  15.997  15.028  15.157  0.0938 -0.0899 -0.1100
 1674W        W19198   4.214   2.145  10.628 -0.2137 -0.2271 -0.2164
 1675W        W19199   2.497   2.647  13.547  0.1642  0.0730  0.1357
 1676W        W19200  10.104   4.329   1.111  0.4150 -0.0546  0.0108
 1677W        W19201   1.494   7.248  11.601 -0.0033  0.2240  0.1494
 1678W        W19202  16.247  12.029   4.045  0.0804  0.2106 -0.1305
 1679W        W19203   8.321  15.303   0.250  0.4511  0.2323 -0.3178
 1680W        W19204   8.248   6.491  11.329  0.2380  0.1845 -0.0366
 1681W        W19205   6.249  10.670   0.436 -0.1496  0.0301 -0.1303
 1682W        W19206   1.785   6.087   2.724  0.1573 -0.0424 -0.0436
 1683W        W19207   1.676   4.870   4.887  0.1458 -0.1141  0.2156
 1684W        W19208   4.469   1.929  14.308  0.0382 -0.1614 -0.0404
 1685W        W19209  16.415  16.346  13.119 -0.0613  0.2106 -0.3840
 1686W        W19210  10.682  11.824   2.308  0.0210 -0.2326 -0.4115
 1687W        W19211   6.248  18.089  10.849 -0.1603  0.0518  0.2458
 1688W        W19212   3.843   8.526  12.307 -0.1167  0.3645 -0.1866
 1689W        W19213   2.483  18.076  12.663  0.1028  0.2020 -0.0235
 1690W        W19214   2.327  12.386  12.304  0.1404 -0.0257 -0.1535
 1691W        W19215  10.568   6.936   1.090 -0.0945 -0.1674 -0.1321
 1692W        W19216  17.200   0.497  11.483 -0.1332 -0.1924  0.0096
 1693W        W19217   5.199   9.767   4.870 -0.0347 -0.1696  0.0811
 1694W        W19218   0.036   8.550   1.458 -0.3091  0.0402 -0.0963
 1695W        W19219   4.198   6.033  12.334 -0.1761  0.2139  0.1902
 1696W        W19220  15.718   2.300  13.994 -0.2005 -0.1202  0.0084
 1697W        W19221  12.645   2.542  12.546  0.1103 -0.3363  0.4974
 1698W        W19222  10.733   9.706   1.292 -0.1366 -0.0274  0.1447
 1699W        W19223  16.683  11.466   2.562  0.0626 -0.0003  0.4119
 1700W        W19224   5.873   6.885  12.508 -0.3376 -0.0650 -0.1216
 1701W        W19225   2.066  10.904   1.169 -0.1355 -0.1157 -0.0406
 1702W        W19226   6.046   6.167   3.044  0.0552 -0.2969  0.0733
 1703W        W19227   1.997   8.047   4.326 -0.0754 -0.3541  0.1609
 1704W        W19228  17.437   2.130  11.974  0.0878  0.2151  0.0831
 1705W        W19229  12.111  15.511  15.896  0.0731  0.0851  0.2456
 1706W        W19230   7.512  15.013   1.648  0.0808 -0.1325 -0.1332
 1707W        W19231  16.106  17.386  14.543 -0.3103  0.0778 -0.1409
 1708W        W19232  17.294  17.577   4.321 -0.0349 -0.2220 -0.1489
 1709W        W19233  15.628   1.132  13.440 -0.1847 -0.0160  0.1424
 1710W        W19234  15.504  14.905   2.353 -0.0361 -0.3085 -0.2026
 1711W        W19235   7.247   3.643  15.179  0.2890  0.0286 -0.0437
 1712W        W19236   3.210  15.816   1.737  0.0985  0.0655  0.3144
 1713W        W19237   8.780   8.585   1.043  0.0324  0.0967 -0.1326
 1714W        W19238   0.973  15.057  13.751  0.0981  0.2230 -0.2609
 1715W        W19239   1.051   3.681   3.973  0.2310  0.0460 -0.2464
 1716W        W19240  15.617  12.224   2.780 -0.1769  0.1586 -0.1458
 1717W        W19241   8.554  10.443   0.787  0.1166 -0.2317 -0.3260
 1718W        W19242   2.033  12.674   3.443  0.1185  0.0191  0.2351
 1719W        W19243  13.419   4.232  15.643 -0.1231  0.1913 -0.0280
 1720W        W19244  15.920  11.479  13.950  0.2923 -0.0885 -0.2833
 1721W        W19245   7.468  14.753  13.191  0.1104 -0.1771 -0.1084
 1722W        W19246  16.673   8.263   3.603  0.0865 -0.1486  0.1073
 1723W        W19247  14.895   3.287   0.649  0.1260  0.0088 -0.0326
 1724W        W19248  10.184  12.315   5.511 -0.0621  0.2833 -0.0820
 1725W        W19249   7.286   6.449  15.259  0.0737 -0.0099 -0.0802
 1726W        W19250   6.380   9.463  13.220  0.0073 -0.0394 -0.0723
 1727W        W19251  13.354   9.620   1.367 -0.2566 -0.3392  0.0214
 1728W        W19252  16.681   7.356  11.539 -0.1570  0.0245 -0.0571
 1729W        W19253   7.873   3.649  12.810  0.1745  0.0028  0.0547
 1730W        W19254   6.750   6.608  11.217 -0.0145  0.1007  0.1353
 1731W        W19255  16.116  17.881  14.683  0.0826  0.0440 -0.1735
 1732W        W19256   2.172   4.077   4.579 -0.0902 -0.1416 -0.0411
 1733W        W19257   2.031  14.323   3.062 -0.1672 -0.3811 -0.1309
 1734W        W19258   5.902  17.914  15.479 -0.3178 -0.0362  0.0764
 1735W        W19259  14.279   0.464  12.935  0.1619 -0.0430  0.2128
 1736W        W19260  14.378   0.919  11.825 -0.1703 -0.1087  0.3173
 1737W        W19261  16.266  13.055  12.379  0.4506 -0.0641  0.2688
 1738W        W19262  16.234   5.528   0.078 -0.2595 -0.0917 -0.0277
 1739W        W19263   3.452  14.336   3.960  0.0267  0.0750  0.3645
 1740W        W19264  14.990   1.996  13.518 -0.0120 -0.0473  0.1047
 1741W        W19265   3.330   1.909  15.224 -0.0472 -0.0855 -0.1651
 1742W        W19266   8.953  18.024  12.912 -0.1630  0.0143 -0.3023
 1743W        W19267  17.315  11.897  15.249 -0.2590 -0.0670  0.3449
 1744W        W19268   6.227   2.569  13.838 -0.0036 -0.2320 -0.2515
 1745W        W19269   2.907   8.971   5.605 -0.0583  0.3273 -0.1633
 1746W        W19270   8.344  17.598   2.002  0.0023 -0.0846 -0.1045
 1747W        W19271  11.256  16.070  12.588  0.1811 -0.0968  0.2483
 1748W        W19272  12.971   3.930   0.784  0.3457  0.2414  0.0538
 1749W        W19273  11.545  16.456   4.231 -0.2310  0.3023  0.2414
 1750W        W19274  12.007   3.050   4.186  0.1837  0.0183  0.2202
 1751W        W19275   6.883  15.971  13.264 -0.3750  0.4242 -0.7088
 1752W        W19276   0.779  17.238  14.414  0.0651  0.1798 -0.2117
 1753W        W19277  12.542   3.800   0.307 -0.0612 -0.0977  0.1075
 1754W        W19278  18.010   8.573   0.963  0.2562  0.0208 -0.0226
 1755W        W19279   4.519  18.076  12.278 -0.2304 -0.1092 -0.0030
 1756W        W19280   6.030   2.911   3.285  0.2053 -0.3202  0.1484
 1757W        W19281  11.923   7.407  13.724 -0.2576 -0.1058 -0.2772
 1758W        W19282  17.009   9.576   1.855 -0.0139  0.2225  0.2093
 1759W        W19283   4.646  13.775   1.387 -0.3182  0.3893  0.1497
 1760W        W19284   6.700   6.303  15.924 -0.1394 -0.0845 -0.0823
 1761W        W19285   6.151   1.266   0.051  0.1746  0.1196 -0.0932
 1762W        W19286  17.159   6.941  13.554  0.0078  0.1091 -0.3697
 1763W        W19287  16.784   8.404  13.098 -0.0616 -0.3871  0.0381
 1764W        W19288   3.748   6.581   2.975  0.1397 -0.1333  0.0687
 1765W        W19289   7.216   2.640   1.949  0.1543  0.0933  0.2903
 1766W        W19290   4.036  14.789  14.386  0.0455 -0.0064  0.0601
 1767W        W19291   0.249  11.298   3.465 -0.0137 -0.2392  0.1082
 1768W        W19292  11.269  16.974   5.921  0.0758  0.0088  0.1414
 1769W        W19293   6.638   8.571   0.267  0.3375 -0.0299 -0.0710
 1770W        W19294   2.188  16.097   2.888  0.2493 -0.0675 -0.1213
 1771W        W19295  16.303   0.655   4.920  0.1924  0.3067  0.1744
 1772W        W19296  14.823  15.478  13.116  0.2039 -0.1318  0.1735
 1773W        W19297  12.337  15.157   2.913  0.1924 -0.0451  0.0185
 1774W        W19298   4.656  15.269  11.428 -0.3252 -0.2141 -0.1281
 1775W        W19299  11.369   7.079   3.016 -0.0407 -0.1440 -0.0443
 1776W        W19300  11.426  15.776  11.592 -0.0668  0.2265  0.0839
 1777W        W19301   2.679  10.549   4.681 -0.0150  0.0902 -0.2566
 1778W        W19302  17.653  11.784   4.543  0.2864 -0.1985 -0.1223
 1779W        W19303   6.722   6.628  14.105  0.0352 -0.1989  0.2499
 1780W        W19304  14.083  13.531   4.292 -0.0008 -0.2498  0.0832
 1781W        W19305   5.745   8.342  14.539 -0.0068  0.2386  0.1110
 1782W        W19306  10.744   7.749  15.158 -0.2813 -0.0347 -0.0089
 1783W        W19307  13.227  15.100  12.749  0.0621  0.0627  0.0482
 1784W        W19308   2.815   8.062   0.979 -0.1865 -0.1568  0.1239
 1785W        W19309  12.656  14.880  13.276  0.1346  0.1304  0.2287
 1786W        W19310   7.533  16.529   2.120 -0.0927  0.0698 -0.3872
 1787W        W19311   1.313  13.907  12.348  0.1211 -0.0136 -0.4096
 1788W        W19312  15.118   5.098   2.781  0.0729  0.4106 -0.0183
 1789W        W19313   4.301  16.792  10.203 -0.3890  0.0696  0.2270
 1790W        W19314   9.149   0.530   4.103  0.2409  0.1416  0.0942
 1791W        W19315  15.284  10.155   0.034  0.0247 -0.0847 -0.2339
 1792W        W19316   7.804  14.245  12.648 -0.2461  0.0322  0.0425
 1793W        W19317   8.881  13.782   0.038 -0.0960 -0.1373  0.2023
 1794W        W19318  11.416  14.264  14.249 -0.0996  0.0600  0.2475
 1795W        W19319   8.450  17.984  15.388 -0.2773 -0.2534  0.1733
 1796W        W19320  10.727   2.353  11.386 -0.1960  0.1588 -0.2900
 1797W        W19321   4.066  12.635  13.001  0.0605 -0.2973  0.1048
 1798W        W19322  11.025   6.934  15.541 -0.1254 -0.2928 -0.4390
 1799W        W19323  15.034   7.652  13.313  0.1700 -0.0863 -0.2278
 1800W        W19324   9.956  10.611  15.959 -0.1173  0.2825 -0.1516
 1801W        W19325   3.850   7.047  13.758 -0.0471  0.1243 -0.0055
 1802W        W19326  12.934   2.503  12.012 -0.1050 -0.1156  0.4614
 1803W        W19327  15.218   5.675   1.546 -0.1893 -0.2729 -0.2598
 1804W        W19328   5.819  17.316   5.653 -0.2744 -0.1377  0.1800
 1805W        W19329   8.634   4.716   0.174  0.1670  0.0157 -0.1948
 1806W        W19330  10.129   1.350  14.336 -0.0232 -0.1606  0.2451
 1807W        W19331   4.665  11.262   4.230 -0.2506  0.1060  0.0841
 1808W        W19332  14.730   1.139  13.091 -0.1489 -0.1123 -0.1485
 1809W        W19333   5.119  12.023  11.579 -0.0563  0.2497  0.1132
 1810W        W19334   2.692   3.880   0.099 -0.0198 -0.0115 -0.1141
 1811W        W19335   3.647   0.720  15.875 -0.0472  0.0626 -0.0296
 1812W        W19336   8.493   4.280   1.519 -0.2541  0.2855  0.0154
 1813W        W19337   6.986   5.565   0.276  0.0866  0.0753  0.6118
 1814W        W19338   1.491   1.996  15.417 -0.2770  0.0619 -0.0977
 1815W        W19339  11.915  10.403   3.194 -0.2294  0.1015  0.2410
 1816W        W19340  10.224  17.219  10.673 -0.0832 -0.0163  0.1408
 1817W        W19341   6.043   3.836   3.753  0.0325 -0.2121 -0.1221
 1818W        W19342  12.865   8.350   3.358 -0.2889  0.2547  0.1077
 1819W        W19343  13.676   0.222  15.171 -0.0380 -0.0214 -0.0444
 1820W        W19344   4.264  14.158   4.718  0.1682  0.0419  0.1477
 1821W        W19345   1.824   2.890  11.942 -0.2782  0.1957  0.0223
 1822W        W19346   4.517  13.589   2.986  0.1362  0.2221  0.1555
 1823W        W19347   5.112   2.052  13.025  0.0862 -0.1569 -0.0137
 1824W        W19348   9.517   6.456  12.076 -0.3238  0.0985  0.0165
 1825W        W19349  17.330   9.287   4.105 -0.0437 -0.1904 -0.0667
 1826W        W19350   4.451  16.677   1.242  0.2645  0.0387  0.1986
 1827W        W19351  14.932   7.279   3.467 -0.3071 -0.0467  0.0718
 1828W        W19352  13.074   0.091   0.594  0.1287 -0.0525 -0.0212
 1829W        W19353   8.109   4.279  11.306 -0.0494 -0.2020  0.0793
 1830W        W19354   1.312   4.765  14.869 -0.0212 -0.1590  0.1988
 1831W        W19355   7.405  17.198   3.985  0.1641 -0.2130 -0.1147
 1832W        W19356  14.082  13.895  12.277  0.2601 -0.1373  0.1037
 1833W        W19357   3.363  10.261  15.029 -0.0997 -0.1374  0.2194
 1834W        W19358   5.087  15.137  14.586 -0.0818  0.0757 -0.1383
 1835W        W19359  12.353   2.385   2.444  0.0422 -0.1796  0.0330
 1836W        W19360   5.634  16.353  13.762 -0.1179  0.3681 -0.0164
 1837W        W19361   6.354  17.649  13.498 -0.1489 -0.0439  0.3282
 1838W        W19362  11.663  11.538  11.904  0.0539  0.0375 -0.1856
 1839W        W19363   6.058  10.662  12.592 -0.3522  0.0167 -0.2957
 1840W        W19364  10.267   1.797   3.130 -0.1763  0.0126  0.2051
 1841W        W19365  11.714   8.743   2.099 -0.0662 -0.1472  0.0996
 1842W        W19366  16.716   1.056   1.844  0.0709 -0.0618 -0.0221
 1843W        W19367   7.978  14.368  14.086  0.1700  0.0008  0.1408
 1844W        W19368  16.258   0.142   4.975  0.1939  0.1155 -0.3057
 1845W        W19369  14.784  16.578  15.478 -0.3002  0.2498 -0.2772
 1846W        W19370  12.155   5.851   1.869  0.0779 -0.2155  0.2868
 1847W        W19371   0.871   6.693  12.710  0.1316  0.2550  0.1144
 1848W        W19372   8.706   0.699   4.198 -0.1050  0.1217  0.2742
 1849W        W19373  17.383  14.316  15.522  0.3804 -0.4322 -0.0445
 1850W        W19374  13.932   8.174  13.828 -0.0574 -0.0775  0.2863
 1851W        W19375  12.901   9.597  14.813 -0.1312 -0.1271  0.2353
 1852W        W19376  14.188   0.481   0.731 -0.1662 -0.0391 -0.0712
 1853W        W19377   0.087   6.080  14.790  0.0243  0.3969  0.3016
 1854W        W19378   6.540  15.429   1.798 -0.1500  0.0051  0.0797
 1855W        W19379  15.973   7.350  11.244  0.1798  0.0881 -0.0457
 1856W        W19380  12.445   2.849   2.664  0.0803  0.0015  0.1762
 1857W        W19381   0.437  17.749  15.750 -0.0005  0.3013 -0.0653
 1858W        W19382   9.299  14.447   3.390 -0.1366 -0.0491 -0.0967
 1859W        W19383   0.495   6.484   4.337 -0.0200  0.2752 -0.1045
 1860W        W19384  10.142   8.996  11.190  0.2044  0.0538 -0.1471
 1861W        W19385  15.393  10.133   1.708 -0.1553  0.0823  0.3366
 1862W        W19386   3.785   1.406  13.079 -0.1400 -0.1974  0.2973
 1863W        W19387   1.011   8.648   0.722 -0.1980  0.1984  0.0812
 1864W        W19388   6.431   2.880  14.205 -0.2435 -0.0675 -0.1387
 1865W        W19389   7.150   4.620  12.766  0.1261  0.1533  0.0892
 1866W        W19390   2.643  12.835  11.696 -0.1572  0.2126 -0.1573
 1867W        W19391   6.216   4.983  11.734 -0.1093  0.0092 -0.0910
 1868W        W19392   5.466   7.550   2.046 -0.0538  0.2338 -0.2839
 1869W        W19393   5.155  12.941   2.822 -0.0699  0.0943  0.0389
 1870W        W19394  11.610   1.694   2.823 -0.2724 -0.0353  0.1850
 1871W        W19395  13.327   7.555  14.257 -0.1215 -0.1578 -0.1358
 1872W        W19396   2.593  15.373   4.725  0.1651 -0.3347  0.0037
 1873W        W19397  15.164  11.251  15.814 -0.1170 -0.0260  0.1059
 1874W        W19398   7.999  17.507   3.290  0.0942  0.0782  0.1793
 1875W        W19399   9.074   7.327  15.262  0.2251  0.0082 -0.4774
 1876W        W19400  10.412   7.895  12.692 -0.0278 -0.0209 -0.0958
 1877W        W19401   3.290   1.160   4.589 -0.0587  0.0074  0.1044
 1878W        W19402   4.228  11.898  14.921 -0.1573 -0.2224 -0.0278
 1879W        W19403   9.769   6.075  13.290 -0.0212 -0.2535 -0.0221
 1880W        W19404   6.434   7.671  11.776 -0.2564  0.2159  0.2293
 1881W        W19405  11.983  11.362   3.821 -0.0715  0.0616 -0.2576
 1882W        W19406   1.955   1.321   4.417 -0.0478  0.0950 -0.2893
 1883W        W19407   7.480  15.150  14.421 -0.1699 -0.2161  0.1894
 1884W        W19408   0.573  10.270  12.370 -0.0765 -0.2401 -0.1936
 1885W        W19409  11.259  13.265  11.698  0.0096 -0.0322 -0.1146
 1886W        W19410   3.502  16.385   4.139 -0.0485  0.0507  0.2247
 1887W        W19411  10.613   7.023  13.052 -0.1409  0.1741 -0.1656
 1888W        W19412  15.262   2.977   1.683 -0.0705  0.1140 -0.0635
 1889W        W19413  13.352   1.076  14.106 -0.2822 -0.1687 -0.2223
 1890W        W19414   5.549  13.793   2.613 -0.0694 -0.3702  0.1492
 1891W        W19415   7.500  11.427   2.654 -0.3960 -0.0412 -0.1272
 1892W        W19416  12.225  10.574   4.073  0.0478 -0.1246  0.2190
 1893W        W19417   1.755  12.759  14.330 -0.0109 -0.1076  0.1431
 1894W        W19418   9.558   4.234   4.789 -0.1903  0.0745 -0.0452
 1895W        W19419   2.720  15.196  12.337 -0.0746  0.1502 -0.2964
 1896W        W19420   0.303   8.736   1.859  0.3111  0.3340 -0.0283
 1897W        W19421   2.984  10.702   1.306  0.0171  0.0055  0.0939
 1898W        W19422  17.274   0.235   4.039 -0.0599 -0.0013  0.0058
 1899W        W19423  15.178   5.656  11.827  0.0153 -0.1821  0.0167
 1900W        W19424  15.677  12.069   1.056 -0.1777  0.0967 -0.2991
 1901W        W19425   6.670   4.155   1.871 -0.0254 -0.1069  0.4573
 1902W        W19426  10.274  12.828  15.343  0.2144  0.0119  0.1988
 1903W        W19427   1.471  17.872   5.219 -0.7826  0.2818 -0.2307
 1904W        W19428   7.475   1.738  15.046  0.0940  0.0477  0.0962
 1905W        W19429   5.012   9.451   3.909 -0.1058 -0.3348 -0.1005
 1906W        W19430  14.726  17.952   3.588 -0.1698 -0.0920  0.0258
 1907W        W19431  14.152   7.203   5.010  0.3637  0.0421  0.0508
 1908W        W19432  16.964   3.332   3.885  0.1814 -0.1207  0.0721
 1909W        W19433  10.163  13.485   0.366 -0.0212  0.1373 -0.3118
 1910W        W19434   7.021  13.617   1.304  0.0078  0.2557  0.0756
 1911W        W19435  17.064   7.822  13.959  0.2320 -0.0459  0.0405
 1912W        W19436   4.553  11.306  13.296  0.1615 -0.0020  0.0584
 1913W        W19437   9.283  13.612  14.709 -0.0989  0.1447 -0.2092
 1914W        W19438   0.628  11.164   2.644  0.1270 -0.2410 -0.0001
 1915W        W19439   1.944  13.570   4.011  0.2925  0.0604  0.0053
 1916W        W19440  14.746   8.578   2.881 -0.1110  0.0415 -0.0847
 1917W        W19441  12.705  14.723   4.014  0.0775  0.0255 -0.0201
 1918W        W19442  11.541  13.523  14.346  0.2453  0.0671 -0.0787
 1919W        W19443   2.282   8.519  11.977  0.0047 -0.1020  0.0249
 1920W        W19444   2.026  16.139  12.502 -0.3922  0.0603 -0.1146
 1921W        W19445   4.063  12.292   3.451  0.1554  0.1969  0.0171
 1922W        W19446  17.271  11.045   0.449  0.1592  0.1325  0.2323
 1923W        W19447   6.221   6.355   3.453  0.0878 -0.0341 -0.0765
 1924W        W19448   0.409   0.795  12.938  0.3731 -0.1582  0.1105
 1925W        W19449   0.960   0.415   3.699 -0.2976  0.1174 -0.1118
 1926W        W19450  11.260  18.049  14.019 -0.4606 -0.1991 -0.0195
 1927W        W19451  16.854   6.745   5.715  0.0105 -0.0989 -0.0682
 1928W        W19452   2.007   2.533  15.432 -0.1761  0.0659  0.4752
 1929W        W19453   6.158  10.329  13.923  0.0633  0.2454  0.1135
 1930W        W19454  10.551   6.253  10.494  0.0121  0.3697 -0.0118
 1931W        W19455  15.691  10.484   2.723  0.0131  0.0983 -0.0826
 1932W        W19456  12.569  15.636   1.518  0.0006 -0.1367 -0.3296
 1933W        W19457   4.540  14.911   1.652  0.0404 -0.2563  0.0985
 1934W        W19458   7.846   5.633  12.443 -0.1025 -0.1600 -0.1150
 1935W        W19459  16.701  14.746   1.571  0.0487  0.1167 -0.0399
 1936W        W19460   9.948   9.069   0.580 -0.0076  0.1064  0.1246
 1937W        W19461  11.181  10.487  14.587 -0.0303 -0.0380 -0.1485
 1938W        W19462  15.318   1.992  13.113  0.1103 -0.1133  0.0611
 1939W        W19463  12.878  15.074  13.726 -0.1343  0.0200 -0.0072
 1940W        W19464   3.423  14.981  12.880  0.0126 -0.0469  0.1846
 1941W        W19465   4.806   9.475   4.754  0.0819 -0.0774  0.0535
 1942W        W19466  10.636   2.876  15.612  0.1124 -0.1253  0.1764
 1943W        W19467  17.518   0.035  15.573 -0.0073 -0.2140 -0.0743
 1944W        W19468  14.071  16.709  13.549 -0.1932  0.0887 -0.0887
 1945W        W19469   3.549  17.572   2.408  0.0724  0.1386 -0.2374
 1946W        W19470   5.234   8.369  12.679  0.0177 -0.0195 -0.2402
 1947W        W19471   0.211  11.409  11.607  0.1455 -0.2310 -0.0560
 1948W        W19472   4.691  16.105  13.461 -0.1158 -0.1007  0.1578
 1949W        W19473  15.299   0.650   2.954  0.2112 -0.0336 -0.0541
 1950W        W19474   3.308   5.160   0.901 -0.2977  0.1600  0.0838
 1951W        W19475  13.168  10.274   3.402  0.2223  0.2362 -0.2578
 1952W        W19476   8.320  16.026  13.707  0.1516  0.0096  0.1059
 1953W        W19477   3.835  17.350   2.073  0.0341  0.0080 -0.0236
 1954W        W19478  17.950   8.793  15.258  0.1633 -0.2187 -0.1970
 1955W        W19479   6.296  12.169   0.642  0.1130 -0.0145 -0.5217
 1956W        W19480   6.567  10.405  12.758  0.0923 -0.2562 -0.1132
 1957W        W19481   4.946   4.000  12.701  0.1285 -0.0634 -0.1081
 1958W        W19482   9.980   6.285   0.350  0.1856 -0.4248 -0.0380
 1959W        W19483   6.471  10.652   1.593 -0.0028  0.0923 -0.0759
 1960W        W19484  18.009   1.722   1.117 -0.1643 -0.0644 -0.0853
 1961W        W19485   8.036   9.119   5.014  0.1709  0.0800 -0.0261
 1962W        W19486  15.151   4.153  15.903 -0.0502  0.1525 -0.0906
 1963W        W19487  14.406  16.834   5.768  0.0467  0.0432  0.0174
 1964W        W19488   9.909   3.097  12.337 -0.4704  0.0655 -0.0359
 1965W        W19489   2.239   3.681   3.299  0.1570 -0.1240  0.0725
 1966W        W19490   4.655   5.871   4.275  0.1299 -0.1722 -0.1102
 1967W        W19491  11.756  12.949   3.782 -0.1666 -0.1098  0.2215
 1968W        W19492   0.093  13.382  15.663 -0.1159 -0.0726 -0.3013
 1969W        W19493  16.661   4.700  13.567 -0.2192  0.0192  0.1031
 1970W        W19494   5.066   3.612   2.356  0.4337 -0.0373 -0.1856
 1971W        W19495  15.227   0.744  13.088  0.0551  0.0766 -0.0390
 1972W        W19496  14.754  16.108   4.371 -0.1231 -0.3533  0.0739
 1973W        W19497   5.398  14.376   0.509 -0.1770 -0.1639 -0.1055
 1974W        W19498   0.685   1.809   2.057  0.1048  0.0703 -0.0505
 1975W        W19499   9.995  11.702  12.001 -0.1817 -0.0655  0.2431
 1976W        W19500   5.953   7.173   3.818  0.0256  0.0679  0.0563
 1977W        W19501   7.490  12.016   2.113  0.0459  0.1641 -0.1739
 1978W        W19502   6.473  14.897   4.192  0.0601 -0.2269 -0.0319
 1979W        W19503   1.661   6.184   2.237 -0.0280  0.0432 -0.0992
 1980W        W19504  15.626  17.940  12.694  0.1479 -0.0670  0.0344
 1981W        W19505   1.906   9.725  13.383  0.0213 -0.2970  0.0314
 1982W        W19506  14.026   7.557   0.587  0.0697  0.2058  0.1133
 1983W        W19507   9.938   6.683  13.308 -0.4597 -0.2052  0.2880
 1984W        W19508  17.324  18.122  11.409 -0.0541 -0.1746  0.0469
 1985W        W19509  15.992   3.696   4.654  0.1673  0.0653  0.2952
 1986W        W19510  16.338  12.243  14.512 -0.1334  0.1134 -0.0615
 1987W        W19511  10.546  10.079   0.907  0.2397  0.3161 -0.0184
 1988W        W19512  16.606   0.854  13.706  0.0192  0.0866 -0.1168
 1989W        W19513   8.571  10.291   0.277 -0.0953 -0.4122 -0.0811
 1990W        W19514  11.074   0.106   2.879  0.3136 -0.0318  0.0852
 1991W        W19515  11.505   8.957   4.305  0.1926  0.2230  0.0572
 1992W        W19516  12.403   8.953  12.698  0.0093  0.0478 -0.0031
 1993W        W19517   1.803   4.145   9.752 -0.2059 -0.1481 -0.1799
 1994W        W19518  15.109   0.003   3.799 -0.0297  0.1654  0.1288
 1995W        W19519  13.814  13.949   0.997 -0.2019  0.0667  0.1832
 1996W        W19520  12.242  13.201  15.495 -0.0895 -0.0621 -0.0321
 1997W        W19521   8.161  15.447  15.834  0.2004 -0.0929  0.1462
 1998W        W19522  10.847   8.097   3.447  0.3721  0.0743  0.5398
 1999W        W19523   9.977  13.095   1.570  0.1317 -0.0826  0.0187
 2000W        W19524   6.364  17.933   1.863  0.0510 -0.1160 -0.1289
 2001W        W19525   3.940   1.049  15.446 -0.1792 -0.2100  0.0605
 2002W        W19526   4.748  15.144  13.088 -0.0975  0.0812  0.0872
 2003W        W19527  13.064   9.004   4.905 -0.0441  0.1726  0.1720
 2004W        W19528  10.785   1.567  14.809 -0.1797  0.1042  0.1748
 2005W        W19529   1.733   3.162   2.583 -0.0522 -0.0732 -0.1697
 2006W        W19530   6.840   6.212  11.890  0.0850  0.2290  0.0698
 2007W        W19531  13.181  13.695  14.884 -0.0910  0.2752 -0.0196
 2008W        W19532   8.919  10.502  11.872 -0.0782  0.1757 -0.1997
 2009W        W19533  13.139  16.957   4.594 -0.3047  0.0719  0.0964
 2010W        W19534   6.709  14.855   3.388 -0.0349  0.0255 -0.1010
 2011W        W19535  16.587   6.376   0.349  0.1297 -0.2171  0.0862
 2012W        W19536  13.164  16.194   0.218 -0.0555 -0.1078  0.1927
 2013W        W19537  16.957  15.873   2.278  0.2459  0.0800  0.1776
 2014W        W19538  11.086  16.509  10.491  0.0714 -0.1952 -0.1141
 2015W        W19539  16.896  10.288  14.149 -0.0440  0.0098 -0.0317
 2016W        W19540   7.968   7.717   2.394 -0.0011 -0.0188 -0.0808
 2017W        W19541  12.915   8.314   1.639 -0.1265  0.0035  0.0738
 2018W        W19542   8.429   0.533  13.247 -0.0302 -0.3085  0.2113
 2019W        W19543   5.949  10.152   3.128 -0.3092  0.1634 -0.1921
 2020W        W19544  11.596  13.064   3.331  0.1715  0.2560 -0.1362
 2021W        W19545  14.715   1.546   4.037  0.2318  0.1753  0.0917
 2022W        W19546  10.205  11.351  15.011  0.0312  0.1084  0.0897
 2023W        W19547   7.329   9.524   5.108 -0.0196 -0.1275 -0.4329
 2024W        W19548   4.346   9.598  11.850 -0.0064  0.5550  0.1594
 2025W        W19549   6.423  10.477   4.487  0.1527 -0.0635  0.0003
 2026W        W19550   1.259  11.787   3.775 -0.1162 -0.2194 -0.0392
 2027W        W19551  10.872   8.686  12.111 -0.0209 -0.1784  0.0256
 2028W        W19552  13.544  14.690   4.427 -0.2961 -0.0943  0.0868
 2029W        W19553   0.816   5.173  12.467 -0.2330 -0.0633  0.2820
 2030W        W19554  15.063  15.317  12.654  0.0957 -0.4280  0.1955
 2031W        W19555   1.678   2.716   0.039 -0.1937 -0.2721  0.0720
 2032W        W19556   6.127  16.770  13.159  0.0974 -0.0254 -0.0442
 2033W        W19557   4.494   6.976  10.333 -0.0112  0.0377 -0.0759
 2034W        W19558  17.569   9.689  15.437  0.2490 -0.2504  0.2382
 2035W        W19559  15.985  12.330  14.212 -0.0580 -0.1248  0.1339
 2036W        W19560  13.281   2.060  14.143  0.0110  0.1033 -0.1009
 2037W        W19561  12.019   8.498   1.089  0.1373 -0.3250 -0.1546
 2038W        W19562  12.312   7.366   2.927  0.0743 -0.5197 -0.1955
 2039W        W19563  17.831   3.414   1.191 -0.0079  0.1560 -0.1284
 2040W        W19564   8.580   2.157  11.641  0.0904 -0.0049  0.1187
 2041W        W19565  11.419   4.044  12.969  0.1323  0.1928 -0.2385
 2042W        W19566  14.438  15.023  11.999  0.3287 -0.1226 -0.2045
 2043W        W19567  11.654   3.970   3.465  0.0642 -0.0311 -0.0105
 2044W        W19568   0.247  11.532  13.878  0.0791  0.2058 -0.0297
 2045W        W19569   7.142   1.371  13.510 -0.2566 -0.2374 -0.3478
 2046W        W19570  13.180   8.770   1.588 -0.1090 -0.0490  0.0170
 2047W        W19571   5.641   6.598  13.689  0.1580 -0.1869  0.2655
 2048W        W19572  14.973  10.253  15.701  0.0424  0.1244 -0.3211
 2049W        W19573   1.344  17.170  14.049  0.0073 -0.1362  0.1984
 2050W        W19574   7.689  15.803  15.160  0.0185  0.0813 -0.2565
 2051W        W19575  10.261  17.124  15.228 -0.1493 -0.4938 -0.2561
 2052W        W19576  15.700   6.757  14.106 -0.0160  0.0388 -0.3473
 2053W        W19577   1.110   8.820   2.114  0.1113 -0.0675  0.0571
 2054W        W19578  12.550   6.952  14.699  0.1571 -0.2074 -0.1366
 2055W        W19579  14.462  16.207   1.135  0.1963  0.1119 -0.0227
 2056W        W19580  14.974   2.649  13.807 -0.0107 -0.2040  0.0651
 2057W        W19581   7.875  11.069   4.522  0.2363  0.0981 -0.0235
 2058W        W19582   4.208  13.134   2.760  0.0474 -0.1469 -0.0111
 2059W        W19583   2.294   7.421   3.798 -0.1778 -0.3597 -0.2673
 2060W        W19584  17.699   8.799  15.749 -0.2262 -0.0046  0.1367
 2061W        W19585   5.053   3.362   2.859 -0.1889 -0.1012  0.0180
 2062W        W19586  11.248   5.010   4.344  0.2082  0.2757  0.3779
 2063W        W19587  12.362   9.823   4.599 -0.4411 -0.1458  0.0649
 2064W        W19588   8.395  10.997   4.337  0.2550  0.0632 -0.1101
 2065W        W19589   5.369  12.895   4.663  0.1823 -0.2868  0.4413
 2066W        W19590   3.398   0.270   0.629  0.0486  0.1783  0.0099
 2067W        W19591  10.358  15.218   3.169 -0.1738 -0.4173  0.0920
 2068W        W19592  11.762   7.893  13.560 -0.1808 -0.2510  0.3214
 2069W        W19593   4.552   2.349   1.395 -0.0135  0.0907 -0.0298
 2070W        W19594   7.473   5.978  15.434 -0.3851  0.1040  0.1149
 2071W        W19595  14.998  11.550  11.595  0.1304 -0.0132 -0.1031
 2072W        W19596  11.281   4.430   0.351 -0.0010 -0.2445  0.1548
 2073W        W19597  17.094  11.657  13.636 -0.4101  0.1095  0.1580
 2074W        W19598   7.535  17.611  14.370 -0.1118 -0.1244 -0.1642
 2075W        W19599  11.280  14.525   3.724 -0.0302  0.2467 -0.0539
 2076W        W19600   5.246  10.901  14.622 -0.3380  0.0158 -0.3214
 2077W        W19601   0.589   0.950   0.923  0.2236  0.1000  0.1137
 2078W        W19602  16.535  14.856  14.180  0.0851 -0.2397  0.0081
 2079W        W19603  10.026  10.479   0.730  0.2739  0.1691 -0.1331
 2080W        W19604   3.924  14.170   2.548  0.0334 -0.0303  0.1444
 2081W        W19605   3.383   1.695   4.756 -0.1635  0.1478  0.1785
 2082W        W19606  11.311  18.130   4.335  0.2061  0.0679 -0.1021
 2083W        W19607   9.127   2.644   9.891  0.1187  0.0681  0.0269
 2084W        W19608  13.672   0.895   2.915  0.0671  0.0683  0.0649
 2085W        W19609   2.365   2.950  11.200 -0.0569  0.0712 -0.0795
 2086W        W19610   2.156   0.381  12.839 -0.0024  0.0804 -0.0999
 2087W        W19611   1.345  15.207   3.427 -0.0050 -0.0787  0.0187
 2088W        W19612   0.906   5.132  16.008  0.1940 -0.2520 -0.3942
 2089W        W19613   7.190   2.613  13.013  0.1089  0.0429 -0.1175
 2090W        W19614  12.175   7.265   2.411 -0.1785 -0.0481  0.0182
 2091W        W19615  17.764   3.277   5.649  0.0235  0.3332 -0.1021
 2092W        W19616   9.746   7.892   4.606  0.1903  0.0125  0.0302
 2093W        W19617   6.628  10.649  14.217  0.0146  0.1372  0.2721
 2094W        W19618   6.322   8.591  13.151  0.0652 -0.1379  0.0719
 2095W        W19619   7.240   3.060  10.940 -0.1205  0.0116 -0.0868
 2096W        W19620  13.658  13.657  11.979 -0.3560 -0.1817 -0.1600
 2097W        W19621   4.314   1.474   3.772  0.0117  0.1156  0.3219
 2098W        W19622   3.736  10.848  13.950 -0.1700 -0.1028 -0.1741
 2099W        W19623   6.323   1.593  10.676 -0.0724  0.2136 -0.2383
 2100W        W19624   7.982  11.168  14.220 -0.2597 -0.3743  0.0477
 2101W        W19625   3.793  15.223   4.641  0.1448  0.0605  0.1992
 2102W        W19626  12.983   6.937  12.679  0.0233 -0.0803 -0.0842
 2103W        W19627   6.055  10.225   0.614  0.1135 -0.1113 -0.0819
 2104W        W19628   7.390  16.620   3.773 -0.1855 -0.3484 -0.1912
 2105W        W19629   5.782   9.466   2.522 -0.2989  0.2127  0.2542
 2106W        W19630  11.790   4.223   1.260  0.2098  0.2761 -0.1221
 2107W        W19631  15.270  15.590   0.428 -0.1492  0.0278 -0.0156
 2108W        W19632  17.748   1.045  13.211  0.1898 -0.2430 -0.0160
 2109W        W19633  12.896   5.626  13.044  0.2344 -0.3227  0.0052
 2110W        W19634  14.048   6.422  11.697 -0.0337 -0.2678  0.2440
 2111W        W19635   1.997   6.115  12.031  0.0070 -0.2886  0.2257
 2112W        W19636   7.297   1.706   3.568 -0.1390  0.1235 -0.0063
 2113W        W19637   8.213   4.994  13.377 -0.0307 -0.1471 -0.0727
 2114W        W19638  12.990   3.703  16.058 -0.4380  0.1134 -0.2702
 2115W        W19639  13.860   7.711  13.031 -0.2564 -0.2522 -0.4451
 2116W        W19640   7.704   9.568   1.148 -0.4895  0.1768  0.0562
 2117W        W19641   7.720   0.541  14.420  0.4004  0.0147  0.0494
 2118W        W19642  17.211   4.927  13.013 -0.0802  0.0753 -0.2047
 2119W        W19643  10.567   8.406  15.029 -0.0134 -0.0533  0.1264
 2120W        W19644  17.802  15.200  10.522 -0.1114 -0.1477  0.1900
 2121W        W19645   5.891  13.748  14.598 -0.0704 -0.1147 -0.1208
 2122W        W19646   3.914   3.018   0.973 -0.1805  0.2614  0.0819
 2123W        W19647   8.378   4.080   2.618 -0.0932 -0.0620 -0.1239
 2124W        W19648   8.028   4.204   1.336  0.0294 -0.1245  0.0753
 2125W        W19649  14.002   3.696   0.558  0.1330 -0.4916  0.1534
 2126W        W19650   7.661   7.849  15.671  0.0006 -0.0169  0.0571
 2127W        W19651  12.297   6.610  11.646 -0.2381  0.2695  0.3518
 2128W        W19652   7.612  12.417  13.474 -0.0278 -0.1516  0.0325
 2129W        W19653  10.865   3.743  13.919  0.0291 -0.0999  0.1315
 2130W        W19654  17.666   2.673  14.835  0.1517  0.2546  0.1626
 2131W        W19655  17.841  11.144   3.386 -0.0488 -0.2402  0.1911
 2132W        W19656  13.521  14.867  14.217 -0.2225 -0.2261  0.2199
 2133W        W19657   1.645  10.834  12.934 -0.0081 -0.0528  0.2142
 2134W        W19658  16.626   8.475   1.943 -0.0926  0.0548  0.0282
 2135W        W19659  13.014   3.329  14.594  0.2286 -0.0651 -0.0576
 2136W        W19660  12.599  10.613   4.874 -0.1400 -0.2694  0.5657
 2137W        W19661  12.227  11.181   4.544  0.1610  0.2456 -0.0948
 2138W        W19662   2.941  15.787   3.693 -0.0025  0.2600  0.3433
 2139W        W19663   4.642   0.899   0.581  0.3351 -0.2950  0.1289
 2140W        W19664   6.677   6.141   9.863 -0.2168 -0.0655 -0.0554
 2141W        W19665  17.305   7.641  14.458 -0.0427 -0.1239  0.2705
 2142W        W19666  14.126  15.181  12.523 -0.1030 -0.0565 -0.1159
 2143W        W19667  16.222  14.478  13.244  0.0507  0.1128  0.0570
 2144W        W19668   6.504  14.567   1.413 -0.0309  0.1691  0.1533
 2145W        W19669  16.374  16.879  14.781 -0.0611 -0.0032 -0.0755
 2146W        W19670  14.140  10.371   3.158  0.1173  0.1461 -0.1824
 2147W        W19671  16.983  13.955   1.007  0.0362 -0.1337 -0.3705
 2148W        W19672  17.587   6.158  16.046 -0.1132  0.1855  0.0594
 2149W        W19673   0.873  10.744   0.601 -0.0047  0.1529 -0.1013
 2150W        W19674  14.545   3.298   2.837 -0.0109 -0.0077  0.1989
 2151W        W19675  10.848  14.683  14.934  0.0112  0.2456 -0.1432
 2152W        W19676   1.366   6.070  10.297  0.2198 -0.2019  0.0055
 2153W        W19677   3.034   4.030  10.424  0.1975  0.0521  0.1239
 2154W        W19678   8.812  12.935  11.927 -0.0202  0.1349  0.0253
 2155W        W19679  10.708   2.421  12.265  0.2121 -0.1076 -0.1120
 2156W        W19680   6.922   3.622   2.577  0.1074  0.0762 -0.2998
 2157W        W19681  11.134  15.426   4.217 -0.2197 -0.3909  0.1528
 2158W        W19682  17.366  14.121   4.286 -0.0345  0.0704 -0.1681
 2159W        W19683   2.907   4.683  13.957 -0.2835 -0.2401 -0.0994
 2160W        W19684   8.075  14.386  11.811 -0.0402  0.1340  0.3251
 2161W        W19685   5.624   6.746   3.151  0.0860  0.0028 -0.0304
 2162W        W19686   0.226   7.239  15.168 -0.0056 -0.0426  0.2923
 2163W        W19687  17.429   4.690   0.778 -0.0383  0.1678 -0.0976
 2164W        W19688  12.224  10.564   1.390 -0.2930  0.0119  0.0953
 2165W        W19689  13.443  16.363   4.946 -0.2220 -0.3336  0.1142
 2166W        W19690  11.204   2.950   4.861  0.1895  0.2110  0.0714
 2167W        W19691  12.538  14.534  12.410  0.0848  0.0006 -0.2128
 2168W        W19692   0.739   9.591   6.125  0.0189  0.3600 -0.2599
 2169W        W19693  10.574  14.740  13.789  0.2734  0.1367 -0.2418
 2170W        W19694   7.604  10.860   4.909 -0.1688  0.0432 -0.0384
 2171W        W19695  15.855   4.135   2.810 -0.0085 -0.1700  0.2936
 2172W        W19696   3.074   5.584   2.147 -0.0742 -0.2531 -0.0316
 2173W        W19697   3.747   1.387  13.568  0.0765 -0.1002 -0.0996
 2174W        W19698  10.541  11.563   4.865  0.2022 -0.1627 -0.0040
 2175W        W19699  13.139   1.523  15.706  0.1431  0.0886  0.1055
 2176W        W19700   5.376   9.505  13.001  0.0075  0.1950 -0.0341
 2177W        W19701   3.837   5.439   3.356 -0.2136 -0.0975  0.1483
 2178W        W19702  15.042  14.281   4.992 -0.0618  0.0195  0.0983
 2179W        W19703   8.375   0.991   0.926  0.2251 -0.0021 -0.0291
 2180W        W19704  16.655  14.359  12.063 -0.2970 -0.0857  0.3805
 2181W        W19705   5.413   2.614   2.550  0.1304  0.2569  0.1782
 2182W        W19706  13.432   3.510  14.365  0.1744 -0.0924  0.1755
 2183W        W19707  14.496   8.421   3.276  0.0034  0.1201  0.2768
 2184W        W19708   0.223  16.039   4.100 -0.2202  0.2239  0.1985
 2185W        W19709   7.286   8.225  11.640 -0.1674 -0.2094 -0.0103
 2186W        W19710  15.867   5.294   0.937 -0.1225 -0.0684 -0.2301
 2187W        W19711  12.839  14.226  14.476  0.0276  0.3370  0.0649
 2188W        W19712   7.527   6.694   4.702 -0.0138 -0.0290  0.0947
 2189W        W19713  12.750  14.932   2.868 -0.1741  0.1927  0.0200
 2190W        W19714   9.867  12.092   0.385  0.0425 -0.0972  0.1400
 2191W        W19715   1.529   8.849   1.710 -0.1077  0.0579  0.1744
 2192W        W19716   2.812   7.439  15.064  0.1269  0.0490 -0.2605
 2193W        W19717   9.608  16.660   0.793 -0.1853 -0.1313 -0.1556
 2194W        W19718  18.094  17.043   4.162 -0.2255 -0.2347 -0.0696
 2195W        W19719   9.338   5.496   0.041  0.0983  0.1138 -0.0351
 2196W        W19720  14.885   2.871   2.239 -0.0325  0.0892  0.1091
 2197W        W19721   9.880  16.954  14.300 -0.0219 -0.0808  0.0084
 2198W        W19722   3.934   0.233   2.816  0.2850  0.0069 -0.0501
 2199W        W19723   0.145   3.777   4.861  0.0386 -0.0764 -0.1868
 2200W        W19724   0.675  10.671  12.027 -0.1375  0.1163  0.0871
 2201W        W19725  10.828  11.435   1.941 -0.1238 -0.2651 -0.0313
 2202W        W19726  11.330  13.418   2.424  0.2872 -0.0908  0.3226
 2203W        W19727   8.993   7.576  12.577 -0.0936  0.2961  0.1416
 2204W        W19728  17.267   9.575   2.608  0.1340  0.0276 -0.1101
 2205W        W19729   0.704   3.056   1.752  0.1029  0.1242  0.3335
 2206W        W19730   9.430   9.751   2.111 -0.0559 -0.0283 -0.0199
 2207W        W19731  12.778  17.178  13.040  0.0328  0.1784  0.0391
 2208W        W19732   0.640   3.740   4.871  0.3578 -0.1099 -0.2689
 2209W        W19733   3.670  16.465  13.091  0.0113  0.0666  0.3658
 2210W        W19734   2.398  12.294   3.352 -0.2224  0.1873 -0.3459
 2211W        W19735  15.979   4.354   3.379 -0.0770 -0.0572 -0.0512
 2212W        W19736   2.282   0.356   5.279 -0.0301  0.0027 -0.0733
 2213W        W19737   8.528   4.706   1.858  0.0816 -0.2093 -0.0353
 2214W        W19738   6.531   5.856  15.989 -0.0805 -0.3039  0.0986
 2215W        W19739   3.582  13.366  14.748 -0.1719 -0.0987  0.0290
 2216W        W19740   8.993  17.904   0.189 -0.3876  0.0616 -0.1553
 2217W        W19741   0.155  14.993  12.243  0.1359 -0.0583 -0.0053
 2218W        W19742   4.304  11.978  12.437  0.0419 -0.0303 -0.2967
 2219W        W19743  16.906   0.888   1.384 -0.1292 -0.2303  0.0853
 2220W        W19744   9.586   5.876   0.672  0.0668 -0.0449 -0.0248
 2221W        W19745  10.435   6.833  15.248 -0.2410 -0.2022  0.0460
 2222W        W19746   6.673   0.852   0.872  0.0125 -0.2451  0.1043
 2223W        W19747   3.755  11.055   1.721 -0.0659 -0.5234  0.0621
 2224W        W19748   3.941  16.690  14.866  0.0317 -0.1193  0.0212
 2225W        W19749  17.152   1.869  15.112  0.3135  0.3256 -0.1678
 2226W        W19750   7.427  16.753   1.440 -0.0548  0.3263 -0.2862
 2227W        W19751   7.790   4.966   1.371 -0.3104  0.1529  0.0785
 2228W        W19752  10.244   9.947  15.968  0.0463  0.1844  0.0884
 2229W        W19753   3.229   2.006  16.012  0.1009 -0.1208 -0.1494
 2230W        W19754  10.860   1.826  15.699  0.1341 -0.1585 -0.3131
 2231W        W19755  10.093   0.517   4.074  0.2110 -0.0031  0.2021
 2232W        W19756   2.964   6.214   2.023 -0.0558 -0.0570 -0.6637
 2233W        W19757   2.093   0.983  14.138  0.3717 -0.1145 -0.1207
 2234W        W19758   3.055  11.625   5.923 -0.0779 -0.3821  0.0894
 2235W        W19759  15.819   6.351  11.442  0.0311 -0.0417  0.2985
 2236W        W19760  15.055  15.570   4.390  0.1247 -0.0813  0.3124
 2237W        W19761  13.000   1.190  12.797 -0.2721 -0.0511 -0.0903
 2238W        W19762   0.964  13.361  14.102 -0.1008  0.3060  0.0164
 2239W        W19763   4.203   1.955   1.459 -0.1545 -0.0933  0.0214
 2240W        W19764  10.751  15.804   2.740 -0.0484  0.2487 -0.0024
 2241W        W19765  14.778   9.017   0.270 -0.1572  0.0464 -0.2523
 2242W        W19766   9.338  14.116  15.866 -0.0052 -0.1498  0.2689
 2243W        W19767   1.701  12.173  15.535 -0.0080 -0.0458 -0.0491
 2244W        W19768  10.942   9.284   2.467 -0.0794 -0.3045  0.0846
 2245W        W19769  14.120  16.903   0.025 -0.0728 -0.1928 -0.4544
 2246W        W19770   8.789  17.669  11.726 -0.0194  0.1453 -0.0048
 2247W        W19771   9.802   1.168   2.414  0.0175 -0.3377 -0.1148
 2248W        W19772  11.090  14.778   1.504 -0.2268  0.0745 -0.0650
 2249W        W19773   9.504   5.252   4.046 -0.4817  0.0076  0.0172
 2250W        W19774   3.319   3.009  11.365  0.2640  0.0606  0.1531
 2251W        W19775  10.370  13.910  11.634 -0.0758  0.1334 -0.1390
 2252W        W19776  10.398   8.471  13.755 -0.1867 -0.0699 -0.0153
 2253W        W19777   4.593   0.215   1.199 -0.2349 -0.1742  0.0842
 2254W        W19778  14.361   6.883  15.468 -0.3804 -0.0416 -0.1584
 2255W        W19779   8.822   0.533  11.067 -0.0184 -0.0322 -0.0343
 2256W        W19780   3.378   9.740  15.744 -0.0459  0.1425 -0.0797
 2257W        W19781   6.486  18.137   4.316 -0.1596  0.0114 -0.0044
 2258W        W19782   2.598   8.220   1.971  0.3962 -0.2993 -0.1438
 2259W        W19783   7.657   8.767  11.877  0.1201  0.0491  0.1590
 2260W        W19784   6.593   7.107   0.364 -0.0385 -0.0338 -0.0277
 2261W        W19785   2.386  15.241   1.652  0.2187 -0.2247  0.0184
 2262W        W19786  16.729   6.184   3.646 -0.0385 -0.1003 -0.3088
 2263W        W19787  16.182   0.733  14.071 -0.2132 -0.0061  0.1017
 2264W        W19788  13.943  12.617   1.936 -0.0358 -0.1851  0.0124
 2265W        W19789  12.566  12.666   0.048 -0.0504 -0.2579  0.0112
 2266W        W19790   4.804   8.270  11.631 -0.0557 -0.0615 -0.1946
 2267W        W19791  11.175  16.975   2.131 -0.1630 -0.0082  0.0349
 2268W        W19792  17.285   0.090  13.532 -0.0525 -0.1559 -0.0013
 2269W        W19793   1.444  14.787   3.710 -0.1428  0.0881  0.1129
 2270W        W19794  13.890   0.467  15.754  0.0984  0.0059 -0.2815
 2271W        W19795  17.721   6.196  12.742  0.4752  0.2600  0.3531
 2272W        W19796  11.587   9.918  12.409  0.2615 -0.2662  0.1215
 2273W        W19797   4.468   3.071   0.106  0.2255  0.1120 -0.3480
 2274W        W19798  10.230  10.761   4.420  0.1185 -0.0350  0.0464
 2275W        W19799   0.660  15.187   0.320 -0.0308  0.1791 -0.1418
 2276W        W19800   2.972  17.350  11.959  0.0379 -0.1370 -0.0454
 2277W        W19801  13.093  14.755  12.404 -0.1203 -0.0168 -0.1934
 2278W        W19802   9.967   5.528   1.776 -0.1534  0.1808  0.0806
 2279W        W19803   2.820  15.925  14.324  0.2206 -0.2918 -0.3217
 2280W        W19804   9.406   5.737   4.177  0.0480 -0.2101 -0.0249
 2281W        W19805   9.758  10.740   1.095  0.2500  0.1505  0.1547
 2282W        W19806  12.087  10.875  15.414  0.0553  0.4249 -0.0548
 2283W        W19807   8.988  12.025  12.423  0.2426 -0.2132  0.2754
 2284W        W19808   7.292  16.941  15.787 -0.0273 -0.0634  0.1732
 2285W        W19809   7.190   5.924   1.764  0.1095 -0.0809  0.2664
 2286W        W19810  18.134   0.600  12.606 -0.4665 -0.1867  0.1313
 2287W        W19811  15.869   6.873  11.488 -0.3426  0.1455  0.3421
 2288W        W19812   0.843  14.707   2.539  0.0942  0.0343  0.0263
 2289W        W19813   5.348  17.056  15.244  0.0283 -0.0262  0.2214
 2290W        W19814   0.215   3.391   1.133  0.0339  0.3198  0.1199
 2291W        W19815  14.826   8.306   4.607 -0.0462 -0.0261  0.1085
 2292W        W19816  11.026  16.131  13.990  0.0581  0.1489 -0.1817
 2293W        W19817  13.513  14.912   3.509  0.0826  0.0192 -0.3184
 2294W        W19818  16.088   3.997  13.548  0.1184  0.2307  0.1767
 2295W        W19819   2.816  11.805   0.652  0.0601 -0.1414  0.0734
 2296W        W19820  16.621  14.076   4.973 -0.1103 -0.3152 -0.1466
 2297W        W19821   8.405  15.245   2.496 -0.2189 -0.0834  0.0241
 2298W        W19822  16.073  13.801   1.691  0.0239  0.2239 -0.0219
 2299W        W19823   9.010   6.895   4.391 -0.2553  0.1094 -0.4782
 2300W        W19824   8.976  17.907  15.474 -0.1903  0.1992  0.1678
 2301W        W19825  15.075  15.862   0.835 -0.1318  0.1729  0.2507
 2302W        W19826   0.564  14.889  14.861  0.2104  0.1933 -0.0625
 2303W        W19827  12.073   9.913  14.548  0.2268 -0.1058  0.1627
 2304W        W19828  11.328  16.325   6.502  0.2702 -0.3125 -0.3387
 2305W        W19829   0.039  12.493  13.767 -0.0903 -0.1818  0.3592
 2306W        W19830   3.111  11.646   2.873 -0.1782  0.0793  0.1479
 2307W        W19831   4.008   9.256   1.166 -0.0922  0.1061 -0.1554
 2308W        W19832  16.974  10.044  10.951 -0.2354 -0.1075  0.1029
 2309W        W19833  15.215   2.806  15.229  0.3814 -0.0267  0.4493
 2310W        W19834   4.021   3.647   1.151 -0.0748  0.0002 -0.0938
 2311W        W19835   3.683   7.306  10.722 -0.2582 -0.0052  0.1127
 2312W        W19836  14.596  17.067   5.284 -0.2461 -0.0326 -0.1908
 2313W        W19837   2.147  15.657   4.427  0.0618 -0.3359 -0.1626
 2314W        W19838  14.772  14.577  12.010  0.2799  0.1320 -0.0181
 2315W        W19839   0.533  15.359  14.562 -0.2306  0.1154 -0.0933
 2316W        W19840  15.274   4.305   1.413 -0.0229 -0.2393 -0.0767
 2317W        W19841  16.381  16.611   6.055  0.3372  0.5446  0.1820
 2318W        W19842  17.497   1.024   1.604  0.1942 -0.0056  0.0615
 2319W        W19843   4.122   1.226   4.182  0.0445 -0.1190 -0.0459
 2320W        W19844  11.366   3.740  14.300  0.0922 -0.2630  0.0757
 2321W        W19845   1.802  17.255  11.239  0.0012 -0.0993  0.1104
 2322W        W19846  17.477   2.660  11.942  0.2301 -0.4037  0.0990
 2323W        W19847  10.472   7.729  15.602 -0.1060 -0.1349  0.0368
 2324W        W19848  14.712  18.100  12.152  0.3821 -0.0092 -0.2675
 2325W        W19849  10.929   4.805   1.771  0.2776 -0.0375  0.0184
 2326W        W19850   7.511  14.064   2.901  0.1759  0.1049  0.4009
 2327W        W19851   5.152   8.544  15.443  0.1930  0.0282 -0.1446
 2328W        W19852   7.969  13.909   2.902  0.0328 -0.0537 -0.2647
 2329W        W19853  12.521   0.888  14.418  0.1904 -0.0806 -0.2334
 2330W        W19854  13.273   2.046  10.427  0.0786  0.1644  0.1233
 2331W        W19855  14.529   3.933   1.889  0.0312 -0.1147  0.2089
 2332W        W19856   9.766   9.466  12.799  0.0483  0.2021 -0.3207
 2333W        W19857   3.484   7.544  11.969 -0.0674 -0.1527 -0.0663
 2334W        W19858  13.492   1.317  13.573 -0.3838 -0.1724  0.2984
 2335W        W19859   3.384   8.329   3.484  0.1982 -0.2903 -0.0149
 2336W        W19860  14.536  11.601  12.796  0.0899 -0.0884  0.0184
 2337W        W19861  13.022  16.442   5.146  0.1704 -0.1661 -0.2015
 2338W        W19862   7.501   0.291  14.040  0.0474  0.3119 -0.0732
 2339W        W19863  15.967   0.686   1.276 -0.0841  0.2355 -0.1854
 2340W        W19864  17.108  10.490   2.347  0.1088 -0.1364  0.0193
 2341W        W19865   5.866   5.804  11.176 -0.0241 -0.0171  0.1455
 2342W        W19866  11.701  12.632  15.847  0.1685 -0.1402 -0.0436
 2343W        W19867   1.346   5.126  12.553  0.0002  0.5628  0.1227
 2344W        W19868  17.669   2.024   4.986 -0.3262 -0.2495 -0.2542
 2345W        W19869   5.044   3.424  11.608 -0.1165  0.0863 -0.3869
 2346W        W19870   8.147   6.039  11.617 -0.0210  0.0647  0.1243
 2347W        W19871   9.930   2.767  11.943 -0.4850 -0.1292 -0.0528
 2348W        W19872   1.304  13.702   2.567 -0.1914 -0.1001  0.2808
 2349W        W19873  17.475  10.874  12.006  0.2562 -0.0372 -0.1444
 2350W        W19874  13.801  18.044  14.787 -0.0475  0.2104  0.2511
 2351W        W19875  17.673   9.143   3.768  0.1096  0.0100 -0.0992
 2352W        W19876   1.605   1.028   5.236 -0.1345  0.0075 -0.1470
 2353W        W19877  10.970   0.726   4.205  0.2372  0.1154  0.1482
 2354W        W19878   8.884   2.241   3.771  0.1295  0.3269  0.4833
 2355W        W19879   0.923  16.692   5.635 -0.0007  0.1658 -0.1966
 2356W        W19880   0.439   1.068   0.088  0.0577  0.3469 -0.0671
 2357W        W19881   3.004  11.252   1.970 -0.2036  0.1025  0.0373
 2358W        W19882  10.910   5.956  14.016  0.3065  0.1983 -0.2371
 2359W        W19883   3.676   8.091  14.976 -0.0004  0.1917  0.1118
 2360W        W19884   0.860  10.210  14.269 -0.0959  0.0113  0.0118
 2361W        W19885   9.250  11.001   3.702 -0.3081 -0.1525  0.1028
 2362W        W19886   3.003   5.126   4.083 -0.1811 -0.0768  0.1431
 2363W        W19887   6.601   4.328  14.824  0.0196 -0.0641 -0.1172
 2364W        W19888   6.330  16.919  15.252  0.0069  0.0382 -0.2139
 2365W        W19889   5.068  15.748   2.732  0.1241  0.0340  0.0041
 2366W        W19890  17.421   3.570   0.528  0.1974  0.2685 -0.0558
 2367W        W19891   7.638   3.588   9.939  0.1091 -0.0397 -0.0491
 2368W        W19892  12.167   3.462   0.575 -0.3154  0.1057 -0.1628
 2369W        W19893   8.376  10.860  14.329 -0.0610  0.0337  0.3123
 2370W        W19894  16.747  11.994   5.318  0.1307 -0.1399  0.2538
 2371W        W19895   6.777   1.272  12.126 -0.1567 -0.0417  0.3335
 2372W        W19896   1.118  12.580  12.200  0.0802 -0.0666  0.2283
 2373W        W19897   8.085  13.682  11.365  0.1868  0.3264 -0.1476
 2374W        W19898   5.573  15.909   4.294 -0.0696  0.4210  0.1746
 2375W        W19899  10.213   2.270   3.115 -0.0588 -0.0106  0.0358
 2376W        W19900  11.278   9.253  14.110 -0.1662  0.1232 -0.2886
 2377W        W19901   5.499  17.105   1.440 -0.0312 -0.1309 -0.1167
 2378W        W19902   4.156   3.065   0.556  0.1553 -0.0474 -0.1209
 2379W        W19903   3.178   9.109   1.016  0.2651 -0.1279  0.3864
 2380W        W19904   4.349  10.474   1.351  0.0740 -0.2740 -0.0567
 2381W        W19905   8.390  12.872  10.547  0.0214  0.1828 -0.2065
 2382W        W19906  17.275   3.557  15.375  0.1244 -0.1985  0.0256
 2383W        W19907   4.979   2.409  11.662 -0.1170 -0.3166  0.0233
 2384W        W19908   4.150  16.208  12.176 -0.0420 -0.0941  0.2423
 2385W        W19909   7.089  15.330   4.800  0.2361  0.1605  0.3498
 2386W        W19910  11.883  13.666  13.054  0.1666 -0.2374 -0.4200
 2387W        W19911   7.038  17.623  11.863 -0.2504  0.1000  0.2344
 2388W        W19912   5.185  11.915  10.267 -0.0637  0.1231  0.0579
 2389W        W19913  14.731  13.899  15.879 -0.0361 -0.1349 -0.0752
 2390W        W19914   9.179  17.915   1.610 -0.1173  0.1059 -0.1270
 2391W        W19915  11.514   9.445  15.059  0.0741  0.0995  0.2087
 2392W        W19916  17.669   0.562   3.250  0.0402  0.0478 -0.3424
 2393W        W19917  12.957   3.192  11.460  0.3597 -0.2487  0.0235
 2394W        W19918  12.895   1.881  11.920  0.1110  0.0196 -0.0062
 2395W        W19919   8.310   9.177  12.203 -0.0620 -0.0017  0.2592
 2396W        W19920  16.387  12.876   3.836 -0.2335 -0.2085 -0.3841
 2397W        W19921   6.352   4.853  15.273  0.0435  0.0465  0.1053
 2398W        W19922   9.931   1.501  10.973 -0.1003  0.0043 -0.1355
 2399W        W19923  15.036   9.057  12.455 -0.2488 -0.1378  0.0349
 2400W        W19924   9.760  10.536  12.085 -0.0551 -0.0391  0.1436
 2401W        W19925   8.298   7.194   1.295  0.1617  0.3792  0.0014
 2402W        W19926  16.498  14.618   5.036 -0.0610  0.1935 -0.4257
 2403W        W19927   3.311   5.905   1.286  0.1038  0.2734  0.2572
 2404W        W19928  17.014  14.851  13.886  0.1056  0.2867  0.2041
 2405W        W19929   1.746   4.013  15.699  0.0741 -0.1078  0.0268
 2406W        W19930   2.146  16.964   3.185 -0.4538  0.2885 -0.1152
 2407W        W19931   0.987  11.970  12.413  0.3671 -0.0587  0.2773
 2408W        W19932   5.746   5.668   0.634 -0.1832 -0.0987 -0.3067
 2409W        W19933   6.329  16.590  14.714 -0.0198 -0.2115  0.0682
 2410W        W19934  12.187  15.911   5.987  0.1121 -0.0600 -0.2363
 2411W        W19935  14.214  12.565   0.261 -0.1463  0.1611 -0.1688
 2412W        W19936   5.622   8.583   2.837 -0.4169  0.0308  0.0839
 2413W        W19937   5.276   8.676  16.024 -0.1748 -0.3045  0.1048
 2414W        W19938   5.177   1.067   2.343  0.3613 -0.1593 -0.0196
 2415W        W19939  15.798  16.560   0.196  0.1223 -0.3075  0.1898
 2416W        W19940  12.011  15.634  12.670 -0.1544  0.0122 -0.0101
 2417W        W19941   1.917   7.288   2.852  0.0287 -0.0920  0.4082
 2418W        W19942  17.482  17.174   4.613 -0.0950 -0.0418  0.0686
 2419W        W19943   6.938  11.123   0.080  0.3503  0.0406  0.0031
 2420W        W19944  14.885   6.662   4.076 -0.1697  0.1148 -0.0884
 2421W        W19945   9.866   1.984   2.771  0.3446 -0.0869 -0.2660
 2422W        W19946  12.476  16.386  14.863 -0.1772 -0.1574 -0.2270
 2423W        W19947  11.914   8.422   0.153  0.1509 -0.2024 -0.0226
 2424W        W19948  10.484   3.052  13.530 -0.1711  0.0605  0.0736
 2425W        W19949  11.238   1.548  13.221  0.4195  0.1137  0.1250
 2426W        W19950   5.234   3.387   1.596 -0.3488 -0.0992 -0.2321
 2427W        W19951   1.840  17.383  14.206  0.1263 -0.3645  0.3679
 2428W        W19952   1.819   7.091   5.777 -0.0624  0.2798 -0.3035
 2429W        W19953  10.487  15.958   3.579 -0.0169  0.0698 -0.0074
 2430W        W19954  13.328   9.720   3.313 -0.1432  0.0681 -0.1682
 2431W        W19955   3.408   2.679   1.314  0.0742 -0.0528  0.0060
 2432W        W19956  16.532  14.285   0.244  0.0186 -0.0604  0.0696
 2433W        W19957   7.805  16.768  13.387  0.4746 -0.0543  0.1064
 2434W        W19958   5.685   9.137   2.908 -0.0915  0.0597  0.0486
 2435W        W19959  17.743   9.056   5.144 -0.2652 -0.0127 -0.2791
 2436W        W19960   9.493  14.303  10.806 -0.1504  0.1157 -0.0905
 2437W        W19961   5.770   8.936   0.300  0.3624  0.1024  0.0659
 2438W        W19962   7.959   0.486  15.371  0.3297 -0.0831 -0.1418
 2439W        W19963  11.528  11.349  12.934 -0.2115 -0.1006 -0.1894
 2440W        W19964   7.079  13.765   4.741 -0.0738 -0.0126 -0.1779
 2441W        W19965   7.208   8.473   4.934 -0.2100 -0.1643 -0.3431
 2442W        W19966   6.861   3.913  10.729  0.0132 -0.0543  0.2647
 2443W        W19967  12.110   5.975   4.259  0.1177 -0.0691 -0.1246
 2444W        W19968  15.854   5.881   0.787 -0.1451 -0.1235 -0.2158
 2445W        W19969  13.278  16.247   1.094  0.1311 -0.1169  0.0243
 2446W        W19970  12.158  17.384   5.609  0.1629 -0.0022  0.0096
 2447W        W19971  12.848   0.088  13.897  0.1922 -0.4628 -0.1353
 2448W        W19972  15.636  12.370   1.725 -0.5263 -0.1933 -0.0293
 2449W        W19973   9.829   1.612   3.169 -0.2083 -0.1445  0.1671
 2450W        W19974   5.364  14.326   2.441  0.5323 -0.0912 -0.0754
 2451W        W19975  13.588  15.578  15.211 -0.0299  0.1680  0.1439
 2452W        W19976   6.169  13.787  11.019  0.0092  0.1159 -0.1868
 2453W        W19977   0.438  13.129   0.495 -0.0558  0.0314  0.2259
 2454W        W19978  11.119   4.717   0.727 -0.2902 -0.0444  0.2673
 2455W        W19979  15.303   1.601  13.512  0.2312  0.1742  0.2403
 2456W        W19980   7.876  13.156   4.789 -0.0484 -0.1319  0.0954
 2457W        W19981   2.392  11.995   4.686 -0.0872  0.0424 -0.3408
 2458W        W19982  17.520   2.898   1.754 -0.1080 -0.0528 -0.1111
 2459W        W19983  12.025  15.499   0.675 -0.0123 -0.3505  0.2050
 2460W        W19984   8.991  11.672  15.291 -0.0672  0.0908  0.4486
 2461W        W19985  14.464   1.070  14.478  0.1875 -0.1058  0.1818
 2462W        W19986  16.193  15.013  14.473 -0.0346 -0.2883 -0.0262
 2463W        W19987   4.912   7.587  13.225  0.1653 -0.1826 -0.0114
 2464W        W19988   0.903   5.725   2.821 -0.0744  0.3636  0.0835
 2465W        W19989  15.011   3.551  15.685 -0.1358  0.2272 -0.1383
 2466W        W19990   3.484  12.368   1.120 -0.3063 -0.0884 -0.1630
 2467W        W19991  10.073   4.072  15.988  0.3067  0.2463 -0.4367
 2468W        W19992  14.174  10.705  12.347 -0.1973 -0.1821  0.1300
 2469W        W19993  10.623   4.979   1.389 -0.0135 -0.3158 -0.0503
 2470W        W19994   1.485   8.306  12.256 -0.0528  0.1577  0.0733
 2471W        W19995  12.035   7.627  11.761 -0.0981  0.0128 -0.4392
 2472W        W19996  15.915   8.206  12.499  0.1202  0.1975  0.0809
 2473W        W19997  12.455  10.298  11.375  0.1933  0.0391 -0.1642
 2474W        W19998   9.967  15.157  15.195 -0.0647  0.0607 -0.1530
 2475W        W19999   9.057  10.261   0.841  0.1882 -0.0416 -0.1295
 2476W        W20000   7.061   1.680  15.791  0.0414 -0.2037 -0.0548
 2477W        W20001   6.583  12.617  12.920 -0.0529  0.0527 -0.0559
 2478W        W20002   9.797   7.313  14.500 -0.0567  0.1245  0.1767
 2479W        W20003  13.746   5.781   2.137 -0.0791  0.3203  0.1522
 2480W        W20004   6.984  17.377   1.572 -0.1844  0.2856 -0.0591
 2481W        W20005   2.940   6.616   1.289  0.3102  0.0134  0.0902
 2482W        W20006   0.557   8.752   4.406 -0.1061  0.1682 -0.0728
 2483W        W20007   4.343   9.168   3.363  0.0735  0.0560  0.1466
 2484W        W20008   0.671  12.558   5.156  0.3635  0.0555 -0.1048
 2485W        W20009  12.682   9.188   2.972 -0.2914 -0.0985  0.0365
 2486W        W20010   4.575   4.853   4.297  0.0722 -0.0514 -0.1627
 2487W        W20011  10.778  17.607   3.618  0.1435 -0.0929 -0.2081
 2488W        W20012  10.060   5.069   4.456  0.5704 -0.0290 -0.0519
 2489W        W20013  15.826   6.188   1.638 -0.0978  0.0041 -0.0487
 2490W        W20014   1.557   3.277  11.229 -0.1118 -0.0431  0.0566
 2491W        W20015  11.798   7.663  15.542  0.0199 -0.3186 -0.0138
 2492W        W20016  10.117   7.242  15.740 -0.2442 -0.2404  0.1534
 2493W        W20017   7.517   8.813   2.263 -0.3818 -0.0711 -0.0958
 2494W        W20018   5.522   7.658  11.900 -0.3456  0.3612 -0.4209
 2495W        W20019  16.089   2.836  10.313  0.1941 -0.0823  0.1382
 2496W        W20020   5.681   3.369   3.482  0.0631 -0.0924 -0.0338
 2497W        W20021   5.675   9.383  15.036  0.0410 -0.4582  0.0841
 2498W        W20022   8.531   1.478   3.834  0.3234 -0.1795  0.0782
 2499W        W20023  15.378   0.612  15.920  0.0695  0.1780  0.2051
 2500W        W20024  11.145  14.805   2.801 -0.1140 -0.2121 -0.0841
 2501W        W20025   5.418   1.370   5.414 -0.1178  0.0832  0.2087
 2502W        W20026   8.104  12.410   2.748 -0.0037  0.1637  0.1692
 2503W        W20027  17.868   4.572   0.690 -0.2709 -0.1118 -0.0221
 2504W        W20028  14.770   2.778  16.000  0.2325 -0.3111 -0.1372
 2505W        W20029  10.441  11.261   0.395 -0.0082 -0.1633  0.0018
 2506W        W20030  15.910  17.869   1.999 -0.2752  0.3028 -0.1069
 2507W        W20031   8.795  12.382   1.671 -0.0108 -0.1757  0.0565
 2508W        W20032   0.910   5.066  14.246 -0.0693  0.0427 -0.2429
 2509W        W20033   7.297  14.953  15.474  0.2349 -0.1938  0.0590
 2510W        W20034   2.356  17.973   1.285  0.1172  0.0790  0.1146
 2511W        W20035  17.222   0.155   1.086  0.0503  0.0996 -0.1495
 2512W        W20036  11.813  10.600  13.667  0.2090 -0.1967 -0.0046
 2513W        W20037   7.132  16.265   2.253  0.4278 -0.1982  0.3351
 2514W        W20038  14.355   0.166  15.867  0.0194 -0.4096  0.0778
 2515W        W20039   3.412   8.385   2.176 -0.2271 -0.1840  0.4023
 2516W        W20040  12.951   6.151  14.975  0.0541 -0.0268 -0.0482
 2517W        W20041   0.517   0.613  13.398  0.2190  0.2057  0.1534
 2518W        W20042  12.626  11.535  13.798 -0.1349 -0.3461  0.1224
 2519W        W20043  14.606   9.812  11.603  0.2147 -0.2064 -0.0568
 2520W        W20044  14.306   5.299  12.162 -0.6691 -0.0063 -0.1778
 2521W        W20045  16.529  12.403   4.734  0.0436  0.0844  0.2152
 2522W        W20046   0.603  13.713  14.235  0.2100 -0.0521  0.0310
 2523W        W20047   3.460   7.705  10.074  0.1206  0.1394 -0.2377
 2524W        W20048   4.392  16.618  13.427  0.0514  0.1163 -0.1786
 2525W        W20049  10.520   6.045   2.517  0.0434 -0.4367 -0.3228
 2526W        W20050  17.179   8.576   4.510  0.0847 -0.2331  0.2847
 2527W        W20051   8.929   7.433   4.462 -0.2719  0.1034  0.1205
 2528W        W20052   5.645  16.841  13.540 -0.1570  0.1292 -0.2661
 2529W        W20053   3.360   4.102   0.348 -0.2500 -0.2534  0.0874
 2530W        W20054  14.384   7.272  11.654 -0.0526 -0.0217 -0.3535
 2531W        W20055   0.970  15.906   3.418 -0.0788  0.0931  0.0787
 2532W        W20056   6.713  10.060   3.272  0.3499 -0.0358  0.0302
 2533W        W20057  14.457   0.266  12.510 -0.0443  0.0037  0.2934
 2534W        W20058  14.099   0.448   3.751 -0.0430  0.0961  0.0428
 2535W        W20059   1.581  15.542  13.281  0.3842  0.2285  0.0081
 2536W        W20060  12.621   7.653   3.943  0.3419  0.1069 -0.0288
 2537W        W20061  12.580   1.178   1.051 -0.0204  0.0958 -0.1890
 2538W        W20062   4.244   3.011  15.303 -0.3796 -0.2828  0.1521
 2539W        W20063   6.271  10.741  15.227  0.1709 -0.0716  0.0739
 2540W        W20064   8.178   7.799  13.730  0.0799 -0.0494 -0.0369
 2541W        W20065  14.777   8.913  15.856  0.0783 -0.3682  0.3482
 2542W        W20066   8.396  17.283  14.634 -0.0189  0.3212  0.1332
 2543W        W20067  14.225   5.951   5.732  0.0593  0.0153  0.0983
 2544W        W20068   2.879   1.055   0.273  0.2479 -0.1239  0.2519
 2545W        W20069  12.217   2.403   3.823  0.3193  0.0685 -0.1197
 2546W        W20070   1.839  13.649  15.149  0.0103  0.1037  0.0968
 2547W        W20071   4.078  16.089   1.400 -0.1212  0.1402  0.0199
 2548W        W20072  13.339  10.213  12.262  0.0508  0.1837  0.2714
 2549W        W20073   6.900   8.824   3.516  0.0567 -0.2038 -0.1780
 2550W        W20074  14.116  15.923   2.465  0.0660 -0.1545 -0.2702
 2551W        W20075  15.134   9.048  14.003  0.1413 -0.0542 -0.0380
 2552W        W20076   5.743  12.500   4.663 -0.1712  0.0447 -0.2221
 2553W        W20077   5.460  13.548   0.188  0.1833 -0.0998  0.1992
 2554W        W20078  17.026  17.387   1.665  0.0249  0.2100  0.1814
 2555W        W20079   3.413   9.503  14.042  0.0716  0.0081  0.0426
 2556W        W20080   9.699  15.087  12.291 -0.1080  0.3110  0.1551
 2557W        W20081  12.978  13.343  12.341 -0.0075 -0.1148 -0.0409
 2558W        W20082  13.505  11.060   1.334  0.0464  0.1250 -0.2909
 2559W        W20083   8.125  12.718  12.954 -0.0766  0.2202  0.2092
 2560W        W20084   7.969   5.417   4.470 -0.3045 -0.0122  0.2919
 2561W        W20085   1.158   5.465  12.903 -0.3135  0.3628 -0.0015
 2562W        W20086  13.465   3.081  11.617  0.0190 -0.3612 -0.2303
 2563W        W20087   9.421  12.314  12.366 -0.1755 -0.3229  0.3922
 2564W        W20088  15.833   3.281  11.247  0.2799  0.2233  0.0267
 2565W        W20089   4.833  17.235   4.872  0.0123 -0.3223 -0.0759
 2566W        W20090   2.922   9.591  15.735  0.1951  0.2650  0.0390
 2567W        W20091   6.806   4.713  15.114  0.1168  0.2485 -0.0119
 2568W        W20092   4.170  17.827   3.699  0.0911 -0.0236  0.1801
 2569W        W20093  12.482   8.170  14.170  0.2818 -0.0980  0.1821
 2570W        W20094  18.107  10.719  14.943 -0.0028 -0.1057  0.3180
 2571W        W20095  11.398  10.252  12.763  0.2533  0.0898 -0.1562
 2572W        W20096   5.702  18.072  13.880  0.0265  0.0089 -0.0681
 2573W        W20097   7.801   7.374   2.112 -0.1150  0.2255  0.3304
 2574W        W20098  14.779  15.961  12.022  0.0456 -0.0422  0.1855
 2575W        W20099  18.089  13.514   4.027  0.2166 -0.0772  0.0497
 2576W        W20100   7.544   6.037  13.196 -0.1557  0.4385  0.1108
 2577W        W20101  14.867   9.604   2.975 -0.0554 -0.1218  0.2086
 2578W        W20102  11.729   6.807   4.739 -0.4141 -0.2322  0.1847
 2579W        W20103   2.321   4.399  14.704  0.0987  0.2209  0.0205
 2580W        W20104   1.340   1.555  14.527 -0.1766 -0.0262  0.1455
 2581W        W20105   9.648  16.029   4.184 -0.0202  0.1730  0.2975
 2582W        W20106   8.430   6.645  12.186  0.2669 -0.3635  0.1755
 2583W        W20107   1.756  13.780   2.225 -0.2273  0.1037 -0.2304
 2584W        W20108   2.813  12.281   0.449 -0.0285 -0.0194  0.0258
 2585W        W20109   1.113   0.967   4.691 -0.1528  0.0217  0.0684
 2586W        W20110  14.848   1.533   3.052 -0.1496  0.0882  0.0420
 2587W        W20111   5.739  12.974  12.468 -0.0897 -0.0400  0.0478
 2588W        W20112   5.843  11.621  12.780 -0.0610 -0.1494  0.1462
 2589W        W20113  14.618  14.291   3.462  0.1278 -0.1838 -0.1163
 2590W        W20114  15.106   9.487  13.316  0.4946 -0.2691  0.0745
 2591W        W20115   8.930   0.616  13.405 -0.1332  0.2146 -0.0296
 2592W        W20116   3.010   6.605   4.091 -0.0769  0.1420  0.0075
 2593W        W20117   0.355   5.969  13.305  0.0422  0.3073 -0.0285
 2594W        W20118   0.105   0.032   1.415 -0.0505 -0.0335 -0.2124
 2595W        W20119   1.779  14.722  12.252 -0.0943 -0.0680  0.0538
 2596W        W20120   1.025   3.629   3.040 -0.3531  0.2870  0.4027
 2597W        W20121   1.399   0.522   1.114  0.1395  0.0306  0.2247
 2598W        W20122   2.945  16.766  12.136  0.1728 -0.1252  0.1217
 2599W        W20123   4.365   6.409  14.994 -0.1357 -0.0144  0.4253
 2600W        W20124  11.327  13.644   1.486  0.0622  0.0161  0.1265
 2601W        W20125  11.196   1.715   2.274 -0.1561  0.0177 -0.1464
 2602W        W20126   1.471  10.921   3.805 -0.0717 -0.2290 -0.0018
 2603W        W20127   8.611   6.465   4.571 -0.0266 -0.1338 -0.0956
 2604W        W20128   3.645  16.735  15.260  0.2084 -0.2335  0.2299
 2605W        W20129  17.185   0.625   1.698 -0.0668 -0.0950  0.2442
 2606W        W20130   1.692   2.884   3.578  0.1721 -0.2422  0.1810
 2607W        W20131  12.948  13.722   4.770 -0.0236 -0.2122 -0.0158
 2608W        W20132   1.980  11.561   1.191  0.0762  0.1211  0.2652
 2609W        W20133  12.238  17.481  15.757  0.1539  0.0902  0.1295
 2610W        W20134  14.007   6.881   0.289  0.2866  0.1364  0.3459
 2611W        W20135   3.868  13.152  14.400  0.2023  0.1918 -0.0571
 2612W        W20136  14.841   2.962  11.398  0.2123 -0.1503 -0.1066
 2613W        W20137   0.802   4.442  13.557  0.1983  0.2780 -0.0833
 2614W        W20138   8.701   2.445  15.359 -0.1961 -0.1170 -0.3153
 2615W        W20139  17.611   8.099   1.821  0.1639  0.3013 -0.0407
 2616W        W20140   9.566   6.708   3.379  0.4599  0.0310 -0.1437
 2617W        W20141  15.518  16.107   0.983  0.0419 -0.0242  0.3310
 2618W        W20142  10.998   1.920   1.458 -0.0456  0.3291  0.2572
 2619W        W20143   1.896  16.869   1.665 -0.1382 -0.0784  0.0415
 2620W        W20144   1.486  13.238   6.219  0.1311  0.1229  0.0476
 2621W        W20145  12.020   7.058   0.759 -0.1135  0.1468 -0.2132
 2622W        W20146  11.183  11.385  13.376 -0.2884 -0.0081  0.0623
 2623W        W20147   3.324   4.378   3.483 -0.2150  0.1581  0.2074
 2624W        W20148  13.659   0.867  11.957  0.0391 -0.1428  0.1656
 2625W        W20149  14.487   9.638  14.889 -0.0503 -0.1625  0.0519
 2626W        W20150   0.928   0.781  14.481  0.2751  0.0129 -0.0625
 2627W        W20151   5.441  13.380   4.554 -0.3271  0.2748 -0.0560
 2628W        W20152  13.362   5.432   0.248 -0.0105  0.1344 -0.1054
 2629W        W20153  13.118   0.499  11.952 -0.2319 -0.0552  0.0447
 2630W        W20154  15.016  12.737  13.160  0.0772 -0.1069 -0.3601
 2631W        W20155  16.002   1.245  12.395 -0.0043 -0.3225 -0.2237
 2632W        W20156   9.381  12.049   5.146 -0.0937  0.3552  0.0180
 2633W        W20157   3.504  13.413  11.233 -0.0632 -0.1322 -0.2210
 2634W        W20158  13.702   5.144   0.492  0.0704  0.2519 -0.0797
 2635W        W20159   1.390   9.809  13.602 -0.0411 -0.0561  0.0309
 2636W        W20160  13.956   9.697  14.848 -0.0942  0.1338  0.1639
 2637W        W20161  17.052  17.458   1.115 -0.0304  0.2350 -0.3335
 2638W        W20162   9.152  15.901  12.480 -0.0245 -0.2263 -0.1275
 2639W        W20163   9.050   2.992  14.115 -0.1195  0.2630  0.0381
 2640W        W20164   6.688  10.193   2.298  0.0817  0.0810 -0.0848
 2641W        W20165  16.728   3.716  14.337  0.0235 -0.0527  0.1651
 2642W        W20166   1.529   5.194   1.244 -0.0248 -0.1118  0.3359
 2643W        W20167   4.235  12.157   1.936 -0.0904  0.2438 -0.1567
 2644W        W20168  17.844   8.282  13.951 -0.0859 -0.0787 -0.1096
 2645W        W20169  16.876  16.987  11.724 -0.0489 -0.1059 -0.0482
 2646W        W20170   3.078   9.910  13.991  0.1945 -0.1545  0.3750
 2647W        W20171  17.066   9.192   0.899  0.1908  0.1051 -0.0229
 2648W        W20172  13.052   8.717  14.979 -0.0113  0.0813 -0.3270
 2649W        W20173   7.132   6.623  12.478  0.1809 -0.2258 -0.1315
 2650W        W20174  13.734  10.104   2.322 -0.2083  0.1358 -0.1800
 2651W        W20175   0.105   4.063   2.012  0.0316  0.0969  0.2027
 2652W        W20176   3.216  15.745  12.381  0.2939 -0.0932 -0.0212
 2653W        W20177  11.654  11.819   0.343 -0.0634  0.2377 -0.0932
 2654W        W20178   7.538   0.840  13.144  0.1578  0.1738  0.1381
 2655W        W20179  11.458   7.698   2.357 -0.0931  0.0065 -0.0298
 2656W        W20180   8.057  16.451  12.582  0.0171 -0.2181 -0.1172
 2657W        W20181   7.913   8.643  15.872 -0.0725  0.2429 -0.0841
 2658W        W20182   7.346  17.830  15.650 -0.1050 -0.0915  0.2232
 2659W        W20183  12.760   6.391   0.815  0.0419 -0.4048 -0.4972
 2660W        W20184  12.580   8.607  15.619  0.2074 -0.2776  0.0691
 2661W        W20185  17.400   6.953   3.593 -0.3108  0.0067 -0.2475
 2662W        W20186  15.103   6.569  11.437  0.1715  0.5828  0.2084
 2663W        W20187  14.137  14.458   5.190  0.0701 -0.0803 -0.0432
 2664W        W20188   6.042  10.295   1.595  0.1875  0.0995 -0.3337
 2665W        W20189   3.872  10.887   4.652 -0.1011  0.1326 -0.1970
 2666W        W20190  11.125  10.825   3.536 -0.1441 -0.2273  0.0676
 2667W        W20191   1.192   2.336  12.198  0.0574  0.1083  0.1962
 2668W        W20192   7.421  11.288  14.192  0.1141 -0.0248  0.0790
 2669W        W20193  17.393  10.109  13.267 -0.3022 -0.0043  0.1081
 2670W        W20194   2.678  10.192  14.221 -0.2325 -0.0006  0.0743
 2671W        W20195  17.741   5.372  11.286  0.0874  0.1519  0.3134
 2672W        W20196   6.513   8.044   1.653 -0.1990 -0.0688 -0.1322
 2673W        W20197  14.680  14.565   1.797 -0.1260 -0.0817 -0.2750
 2674W        W20198   3.576  14.916   0.410  0.2693 -0.0354 -0.0080
 2675W        W20199  12.302   9.941  15.469 -0.1328 -0.0510 -0.2795
 2676W        W20200   1.556  11.776   0.157  0.0961 -0.0055 -0.0786
 2677W        W20201   0.964   5.094   1.570 -0.1213 -0.1167  0.0709
 2678W        W20202   1.301  17.914   4.260 -0.0212  0.0446 -0.4043
 2679W        W20203   7.078   7.869   3.156 -0.2339 -0.1469  0.0851
 2680W        W20204   4.526   5.827  15.480  0.0795  0.4089  0.1062
 2681W        W20205  15.593   6.393  14.434 -0.0702 -0.0972 -0.3129
 2682W        W20206  14.640   5.237   0.444  0.2482 -0.1335 -0.2696
 2683W        W20207  10.724   6.152   4.841  0.1408 -0.1410  0.2033
 2684W        W20208  15.517   4.941  10.823 -0.0779  0.2975 -0.3378
 2685W        W20209  11.339  15.874   4.479  0.2669  0.1166 -0.0081
 2686W        W20210  13.159  11.320  11.573 -0.0834 -0.1477  0.2845
 2687W        W20211   9.658  17.637   2.519  0.2900 -0.2206  0.1724
 2688W        W20212  10.565  11.808   4.333 -0.1837  0.0395 -0.1135
 2689W        W20213   5.127   1.211   3.856  0.1758  0.1030 -0.1673
 2690W        W20214   1.993  10.455   1.212 -0.0107 -0.0028 -0.0657
 2691W        W20215   1.665  15.614  15.465  0.0618 -0.2604 -0.5026
 2692W        W20216  17.425  12.025  15.795  0.0070  0.1262 -0.2591
 2693W        W20217  13.051  14.564   4.355  0.2008 -0.2295  0.0967
 2694W        W20218   4.841   0.988   0.120  0.1685  0.0950  0.1449
 2695W        W20219   1.381   6.888   0.322  0.1006 -0.2144  0.0009
 2696W        W20220   8.725   8.274   0.132 -0.3677 -0.0970 -0.2707
 2697W        W20221  11.215   6.913  14.948 -0.0094 -0.1266 -0.4024
 2698W        W20222  16.098   2.508  12.950  0.1052  0.0890  0.4404
 2699W        W20223  10.657   0.994   1.189 -0.0024 -0.2005 -0.0408
 2700W        W20224  10.220  16.305  13.061 -0.3327 -0.0582 -0.0642
 2701W        W20225   1.846   0.566  12.487 -0.1626  0.1536  0.0396
 2702W        W20226  11.797  13.554   5.296  0.0589 -0.0809  0.4861
 2703W        W20227  17.374  15.876  14.727 -0.0939  0.0721  0.2395
 2704W        W20228   6.612  10.832  15.825  0.1591  0.0349 -0.0050
 2705W        W20229   9.412   1.648  11.287 -0.3318 -0.1472 -0.0839
 2706W        W20230   0.974  10.179  11.427  0.1522 -0.2077 -0.2821
 2707W        W20231   0.963  12.047   3.152 -0.0814 -0.4944 -0.1618
 2708W        W20232  12.817   4.930   3.537 -0.2301 -0.1726 -0.1107
 2709W        W20233   9.556  12.891   6.051  0.2499 -0.1601 -0.1963
 2710W        W20234  13.195   6.510   1.874  0.2362  0.2859  0.2166
 2711W        W20235   9.274  14.721  13.585  0.1170  0.1837  0.1063
 2712W        W20236   0.094   4.765  12.427 -0.0228  0.3270 -0.2686
 2713W        W20237   9.009  16.387   1.361 -0.1596 -0.0765  0.0588
 2714W        W20238  14.576  17.251   2.826  0.0967  0.3798 -0.1580
 2715W        W20239  13.325   7.783   1.564 -0.1739  0.2790  0.1606
 2716W        W20240   0.335   0.564   1.417 -0.2641 -0.0541 -0.1956
 2717W        W20241  17.505  16.550   1.747 -0.0473 -0.1954 -0.0920
 2718W        W20242  11.302  11.674   1.585  0.1844  0.0610 -0.1110
 2719W        W20243  11.466   8.417   4.389  0.0827 -0.0685 -0.1752
 2720W        W20244   7.492   9.683  11.518 -0.1332 -0.0679 -0.2510
 2721W        W20245  12.538  15.548   4.534 -0.0273 -0.2783  0.0149
 2722W        W20246   8.258   8.767  13.798 -0.2440  0.2498  0.0456
 2723W        W20247  13.709  13.182   4.419 -0.2072  0.0738 -0.2510
 2724W        W20248  15.521   5.995  12.915  0.3389  0.0480 -0.1322
 2725W        W20249  17.832  11.989  15.325 -0.0729  0.3853 -0.2340
 2726W        W20250  14.566   3.195  12.459  0.2035  0.2456  0.0354
 2727W        W20251   2.492   6.487  12.897 -0.1052 -0.2148  0.1796
 2728W        W20252   2.144  13.475  15.852  0.0475  0.2112 -0.0895
 2729W        W20253   8.094   4.603  13.777  0.2368  0.0901  0.0463
 2730W        W20254   9.148  11.382  12.266 -0.0568 -0.0373  0.1040
 2731W        W20255   6.015   2.810  15.400  0.1263  0.3486  0.1354
 2732W        W20256   9.592   4.840  11.293  0.3600  0.2278 -0.0319
 2733W        W20257  15.835   4.352  11.296  0.2938 -0.0020  0.1111
 2734W        W20258  10.970  16.542  15.259  0.0038 -0.2864  0.2467
 2735W        W20259   8.172   0.777   4.410 -0.2770 -0.0483  0.0332
 2736W        W20260  17.397  12.356   5.651 -0.0868 -0.2305  0.2573
 2737W        W20261   3.527  10.150   4.507 -0.1669 -0.3792 -0.0103
 2738W        W20262  11.687   7.192  13.192 -0.1135 -0.1295  0.0575
 2739W        W20263  12.989  14.951  14.208  0.0686 -0.4679 -0.0095
 2740W        W20264  10.853  13.193   4.011 -0.3411  0.5280  0.0255
 2741W        W20265  16.336  13.963  14.512 -0.1246  0.0980  0.1074
 2742W        W20266   0.986  17.586  14.026 -0.3728 -0.1752  0.1217
 2743W        W20267  11.384   0.662  10.860 -0.0908 -0.0527 -0.0126
 2744W        W20268  10.558  18.004   2.914  0.1044 -0.0442  0.1360
 2745W        W20269  12.880  10.455   4.104  0.2648  0.2051  0.2834
 2746W        W20270   4.439   3.442  12.107 -0.0311  0.0009  0.0684
 2747W        W20271   2.639  15.181  15.952 -0.2093 -0.0230  0.0672
 2748W        W20272   5.142   9.091  15.696  0.1220 -0.0353 -0.0704
 2749W        W20273   2.797   2.963  11.532  0.0438 -0.1086  0.2157
 2750W        W20274   1.411   1.498   4.626  0.0758 -0.0884 -0.0495
 2751W        W20275  11.727  10.695   1.583 -0.1969 -0.1371  0.2115
 2752W        W20276   1.089  12.231   3.632  0.0473 -0.2692  0.2842
 2753W        W20277   1.147   6.981  12.370  0.0832 -0.1198  0.0469
 2754W        W20278  15.762   0.706   3.024 -0.2728 -0.1134 -0.0275
 2755W        W20279   8.241  14.194   3.308 -0.1258 -0.3737 -0.0706
 2756W        W20280   2.975   4.528   1.649  0.0833 -0.1072  0.0484
 2757W        W20281   7.440   8.679  11.445 -0.0850 -0.1400  0.2690
 2758W        W20282   9.413   2.967  12.293 -0.1211 -0.2002  0.0089
 2759W        W20283  12.516  17.595  14.420  0.0766  0.1810 -0.1200
 2760W        W20284   2.915   6.166  15.939  0.2570  0.1458 -0.3190
 2761W        W20285  14.678  12.551   0.075 -0.0107 -0.1171  0.1733
 2762W        W20286  11.760  16.123   5.266  0.0751  0.1767 -0.0103
 2763W        W20287  15.763  13.800  12.105 -0.0152  0.3535  0.0781
 2764W        W20288  12.954   1.307  15.245 -0.4006  0.0092  0.1676
 2765W        W20289  15.730   7.545   4.118  0.2870  0.0647  0.0774
 2766W        W20290   7.809   4.137  11.695  0.1072  0.2170  0.1059
 2767W        W20291  17.129  17.826   3.854 -0.0922 -0.0712  0.1192
 2768W        W20292  13.941  13.031  14.116  0.0766 -0.2098 -0.6360
 2769W        W20293  17.731  15.500  13.956  0.1352 -0.1890 -0.0195
 2770W        W20294  15.456  14.345   1.296  0.3145 -0.0768  0.0424
 2771W        W20295   6.170  18.002   3.772  0.2237  0.1585 -0.0896
 2772W        W20296  12.533  15.775  12.900 -0.0492 -0.4344  0.1512
 2773W        W20297  11.647   1.551   2.076 -0.2360  0.3142 -0.1015
 2774W        W20298   2.018   6.537  12.709  0.0112 -0.0026 -0.2288
 2775W        W20299   8.771   4.375   4.066 -0.2230  0.1724  0.0370
 2776W        W20300  17.009   8.656  12.311 -0.2654 -0.1196  0.0054
 2777W        W20301   4.776  14.919  13.680  0.1199 -0.2275  0.1595
 2778W        W20302  11.211  12.799   2.057 -0.0940  0.0214 -0.4053
 2779W        W20303   4.815   1.501   3.599 -0.0780 -0.0905  0.1338
 2780W        W20304  12.639   6.082  12.417  0.2648 -0.3484 -0.1392
 2781W        W20305  16.682   4.165  15.853  0.1810 -0.2085 -0.5773
 2782W        W20306  11.546   0.818  13.645  0.2316  0.2783 -0.0010
 2783W        W20307   0.234  10.572   4.530 -0.0405  0.2200  0.0332
 2784W        W20308   3.752   8.511   4.462  0.0204 -0.2097  0.1770
 2785W        W20309  16.703   2.841   3.180 -0.1306 -0.0412  0.1524
 2786W        W20310   4.888   8.946   0.198 -0.1194 -0.0380 -0.2583
 2787W        W20311   8.302  14.247  14.519 -0.1870 -0.1384 -0.1508
 2788W        W20312   1.017  12.669   1.014 -0.0003 -0.0674 -0.0418
 2789W        W20313   7.355   3.795   3.197 -0.1288 -0.4361 -0.1974
 2790W        W20314   8.707   9.531  14.274  0.1800  0.0842  0.2717
 2791W        W20315  12.616  16.797  11.393  0.0098 -0.0582  0.1668
 2792W        W20316   9.990  16.416   4.482  0.0296 -0.1491 -0.3506
 2793W        W20317   4.716   5.239   3.967  0.3069  0.0675  0.1783
 2794W        W20318  13.317   4.303   3.333 -0.1512  0.2456 -0.1101
 2795W        W20319  13.359  12.426   4.242 -0.0322 -0.0095  0.1656
 2796W        W20320   7.581  16.816  11.760 -0.4124 -0.0377  0.3880
 2797W        W20321   8.564   3.513   3.914  0.0178  0.0808  0.1230
 2798W        W20322  13.479   5.956  12.469 -0.1489 -0.1407  0.1482
 2799W        W20323   0.878   0.574  10.519 -0.0772 -0.2184  0.1477
 2800W        W20324  11.983  18.118  12.458  0.0167 -0.2656  0.3157
 2801W        W20325  13.632  12.242   1.769  0.0713 -0.0213 -0.1499
 2802W        W20326   2.597   6.257   5.092 -0.0748 -0.2536  0.0355
 2803W        W20327  13.702   6.768   2.678  0.1843  0.3259  0.2943
 2804W        W20328   2.803   7.940  13.692 -0.1507 -0.3439 -0.4553
 2805W        W20329  18.036  11.517  15.225  0.0996  0.2855  0.2955
 2806W        W20330   4.094   0.867   0.848  0.1404  0.0283 -0.1110
 2807W        W20331   9.836   3.661   3.659 -0.3596 -0.1686  0.2517
 2808W        W20332   0.018   3.563  15.622 -0.1371  0.1613  0.2332
 2809W        W20333   9.555   8.762   1.948 -0.0710  0.5391 -0.1911
 2810W        W20334   3.698  13.047  12.725 -0.5125 -0.2005  0.1061
 2811W        W20335  14.868   3.571   1.633 -0.3315 -0.0970  0.1946
 2812W        W20336  10.949  13.447  15.204 -0.1692  0.0699  0.0285
 2813W        W20337  10.209  16.131  14.262 -0.1054 -0.2255  0.2006
 2814W        W20338   3.538  13.632  12.214  0.1543 -0.1306 -0.1165
 2815W        W20339   6.693  16.005   1.211  0.3043 -0.0894  0.0826
 2816W        W20340   1.330   2.712  11.784 -0.2622  0.1080 -0.2307
 2817W        W20341   7.702   6.896   3.812  0.1244  0.1840 -0.0125
 2818W        W20342   5.008   9.541   2.061 -0.0660  0.0472 -0.1765
 2819W        W20343   7.340   5.455  14.259 -0.0845  0.0374  0.0695
 2820W        W20344   6.249  14.514   2.150 -0.0403  0.3911 -0.0915
 2821W        W20345   1.870  16.079  15.343 -0.2539 -0.2413  0.2526
 2822W        W20346   7.914   3.758  14.333  0.1101 -0.1461  0.1697
 2823W        W20347   7.027  16.613  11.933  0.2808  0.0662  0.1047
 2824W        W20348   3.454   1.767  13.423 -0.1299 -0.1436  0.0948
 2825W        W20349   6.408   7.769   2.249  0.0630  0.0902  0.1079
 2826W        W20350   3.897  13.279   0.040 -0.2074 -0.2144 -0.1811
 2827W        W20351   3.367   1.118   3.482  0.2901  0.0950  0.2890
 2828W        W20352  11.502  11.793   3.167 -0.1720  0.0231  0.1218
 2829W        W20353   6.332   9.699  11.551  0.2107  0.0927  0.2522
 2830W        W20354  10.419   2.561   5.247 -0.0740  0.3934  0.1841
 2831W        W20355  14.015   7.421  11.296 -0.2604  0.0066  0.2231
 2832W        W20356   3.080  11.008   0.860 -0.2596 -0.2329  0.3784
 2833W        W20357  16.408  14.158  11.571  0.2097  0.1150  0.1841
 2834W        W20358  10.657   0.435  12.599  0.0481 -0.0435 -0.1788
 2835W        W20359   9.893   9.690  15.730 -0.0785  0.0177  0.0708
 2836W        W20360   7.923  15.933   1.485 -0.0999  0.1822 -0.3296
 2837W        W20361  13.771  10.280   4.669  0.0282 -0.1170  0.0568
 2838W        W20362  12.332   9.839   3.504 -0.0973  0.1921  0.1436
 2839W        W20363   5.711  13.216   9.890 -0.2119  0.1003  0.1162
 2840W        W20364  14.908   4.841  12.095 -0.0609  0.1405  0.0466
 2841W        W20365   9.970   7.339  13.093  0.1176  0.0057 -0.2804
 2842W        W20366  13.769   5.764   4.361 -0.2584 -0.0190 -0.2290
 2843W        W20367   8.781  13.684   0.523  0.2255  0.0206  0.0082
 2844W        W20368   5.076  11.986   4.510  0.0231  0.1212 -0.1443
 2845W        W20369   5.266   0.806   3.163 -0.1832  0.5029 -0.6045
 2846W        W20370  17.766  12.808  14.748 -0.0964 -0.0386  0.1732
 2847W        W20371   0.658  17.591   0.139 -0.2707  0.0194  0.0553
 2848W        W20372   0.576   2.961   4.049  0.0972 -0.0502 -0.0580
 2849W        W20373  16.334   6.200  13.803  0.3728  0.3343  0.2208
 2850W        W20374  11.294   3.602   3.647 -0.1415 -0.2584 -0.1168
 2851W        W20375  12.085   5.453  15.570 -0.0147 -0.1288 -0.2069
 2852W        W20376   5.512  12.563  14.740  0.0037  0.0097 -0.0681
 2853W        W20377  14.345  10.771  12.862  0.0767  0.0723 -0.0228
 2854W        W20378  17.166   5.809  13.383  0.0158  0.2045 -0.4297
 2855W        W20379  10.427   2.591  14.859  0.2216  0.0595 -0.3738
 2856W        W20380   4.246   9.756   5.243  0.1648 -0.1637 -0.1247
 2857W        W20381   8.577  13.661   2.838 -0.1504 -0.1029  0.1521
 2858W        W20382   7.346   7.185  13.457 -0.0292 -0.0221 -0.0166
 2859W        W20383  11.153  15.605   2.407  0.0035  0.2177  0.3775
 2860W        W20384  11.463   8.580   0.903  0.1743 -0.3157  0.2221
 2861W        W20385   8.772   9.531   0.493  0.0443  0.1645  0.2330
 2862W        W20386   0.794   0.446   0.156  0.2542  0.0364 -0.2701
 2863W        W20387   9.395   7.142   3.176  0.3584  0.1463  0.2040
 2864W        W20388   1.365  10.422   3.956  0.1028 -0.1234  0.1243
 2865W        W20389   9.267  17.964   2.659  0.0418  0.2140 -0.0099
 2866W        W20390   8.896  17.373   4.245  0.3461  0.3618  0.1747
 2867W        W20391   8.225  16.979   5.393  0.0780 -0.0011  0.1530
 2868W        W20392   2.616  11.122   1.645 -0.2017  0.1212 -0.0315
 2869W        W20393  13.849  10.350   1.162  0.1580 -0.2951 -0.0898
 2870W        W20394   7.445   5.883   1.248  0.0181 -0.0066 -0.0725
 2871W        W20395  15.852  15.411  11.728 -0.2719 -0.1383 -0.0453
 2872W        W20396   0.552  11.148  13.739 -0.1942  0.0732  0.1323
 2873W        W20397  16.981   9.131  12.508  0.1941 -0.0455  0.0711
 2874W        W20398   2.241   3.405  13.353  0.0934 -0.0479  0.1081
 2875W        W20399  13.547   7.676   0.628 -0.0281 -0.2831  0.1085
 2876W        W20400  17.348  12.538   4.341  0.0259 -0.1276  0.0141
 2877W        W20401   4.492   7.700   0.402 -0.0274 -0.0831  0.0089
 2878W        W20402  13.681   4.133   3.685  0.2856  0.0617 -0.0874
 2879W        W20403  10.534  16.540  11.489  0.0470  0.2390  0.2969
 2880W        W20404   8.938  15.942   2.914 -0.1652  0.0758  0.0529
 2881W        W20405   7.013  15.627  11.184  0.0739  0.2014 -0.2689
 2882W        W20406   6.087  17.777   4.400 -0.1374 -0.0274 -0.0560
 2883W        W20407  14.301  11.201  15.043 -0.3219  0.3064  0.1574
 2884W        W20408   6.837  12.683   2.495 -0.3166  0.0893  0.3535
 2885W        W20409   6.603  15.242  14.083  0.5154 -0.1861 -0.0687
 2886W        W20410   6.709   5.815   5.043  0.0769 -0.1566 -0.0356
 2887W        W20411  11.439   0.547  13.119 -0.1700 -0.4484  0.2307
 2888W        W20412   6.221  14.926  12.496 -0.0390 -0.2390 -0.0744
 2889W        W20413  15.763   7.515  11.990 -0.2077  0.0049  0.0238
 2890W        W20414   4.499   0.667   1.009 -0.0337  0.3224  0.0540
 2891W        W20415   3.644  15.808   3.970 -0.1443 -0.1804 -0.0219
 2892W        W20416  12.174  11.423  13.542  0.1796  0.2067 -0.1800
 2893W        W20417  16.254   3.799  13.125  0.0280  0.1380 -0.0049
 2894W        W20418   0.829   9.684  15.748 -0.0762  0.1591  0.2105
 2895W        W20419  18.136  13.244   2.408 -0.0238  0.0046 -0.0133
 2896W        W20420  15.864   1.094  13.928  0.0174  0.1641  0.1698
 2897W        W20421   9.339   0.977   5.059  0.1951 -0.2728  0.2908
 2898W        W20422   0.389  17.336   2.383  0.0205  0.1086 -0.1548
 2899W        W20423   5.696  14.790  14.047 -0.1111  0.0228  0.1595
 2900W        W20424  11.384   6.917  12.865  0.1611  0.0444 -0.0955
 2901W        W20425   2.488  12.151  15.252 -0.0304  0.1824  0.2280
 2902W        W20426   7.770   7.320   0.332 -0.1672 -0.0049 -0.0177
 2903W        W20427  16.001   6.375   3.046 -0.3615 -0.0526  0.2363
 2904W        W20428  13.873  15.448   1.033  0.2611  0.1889 -0.1352
 2905W        W20429   1.211   7.426  12.532 -0.1588 -0.3011  0.1323
 2906W        W20430   7.886  14.073   4.610 -0.3471 -0.0937 -0.0250
 2907W        W20431   2.526   2.862   1.278  0.2630 -0.1550 -0.1607
 2908W        W20432  10.709  13.552  13.606 -0.3445 -0.1818  0.1681
 2909W        W20433   6.559   8.137   1.139  0.0888 -0.3084 -0.1953
 2910W        W20434   8.006   6.949   2.248  0.3981  0.3418  0.0775
 2911W        W20435   7.024   4.539   1.981  0.1012  0.4300  0.2812
 2912W        W20436   4.463  15.170  15.964  0.0086  0.2087  0.0882
 2913W        W20437  15.151  16.279  13.024  0.2117 -0.1703 -0.2359
 2914W        W20438  15.121  12.108   4.955  0.1017  0.0637 -0.1581
 2915W        W20439  12.511  15.950   3.996 -0.1366 -0.1152 -0.0153
 2916W        W20440   0.816   7.554   0.034 -0.0016 -0.1635 -0.1144
 2917W        W20441   3.428   1.248   2.179  0.3884  0.0137 -0.0567
 2918W        W20442   9.908  15.381  12.625 -0.1562  0.0804 -0.0882
 2919W        W20443  12.342   4.729   2.536 -0.1578 -0.0068  0.0178
 2920W        W20444  11.657  15.843   0.480 -0.1988  0.1199 -0.1273
 2921W        W20445   3.691  12.183  12.949 -0.2980 -0.1142  0.0086
 2922W        W20446   3.035   9.541   0.632  0.2211 -0.2268 -0.0146
 2923W        W20447   5.320   6.178  12.214  0.0632 -0.0927  0.2148
 2924W        W20448   7.339   8.371  12.125 -0.1863  0.0333  0.0109
 2925W        W20449   0.023   2.231   1.705  0.3539 -0.2050 -0.3539
 2926W        W20450   3.071  17.747   4.274  0.1021  0.0484  0.0760
 2927W        W20451  17.394   9.302  12.734 -0.2033  0.2054  0.0963
 2928W        W20452  15.780  15.078  14.719  0.1328 -0.2922 -0.3134
 2929W        W20453  13.503   6.127   1.570 -0.3364  0.2091 -0.1509
 2930W        W20454   2.740  11.391   0.943  0.1722 -0.3465  0.1339
 2931W        W20455  12.738   1.747   1.093  0.0396 -0.1134 -0.1073
 2932W        W20456  17.468   4.789  11.882 -0.1733 -0.0354  0.1809
 2933W        W20457   2.253   7.789   0.236 -0.0202 -0.1354  0.0153
 2934W        W20458  16.466   3.522   4.465  0.0748  0.4255 -0.1283
 2935W        W20459   9.747   3.151   3.699 -0.1436  0.3094 -0.0908
 2936W        W20460   5.443   9.211   1.678 -0.0301  0.1710 -0.0220
 2937W        W20461  15.669  15.697  16.039 -0.1269  0.4285  0.1574
 2938W        W20462  10.551  12.290  11.593 -0.1930 -0.2696 -0.0997
 2939W        W20463  16.756  10.119   1.287 -0.0177  0.0020  0.1085
 2940W        W20464  10.394  12.151   2.718  0.0742  0.0317 -0.4026
 2941W        W20465  14.466   0.198   3.413 -0.2129  0.1180  0.2552
 2942W        W20466  10.151   0.068   3.174  0.0049 -0.1394 -0.0216
 2943W        W20467   5.730  10.676  13.900  0.3153  0.2346  0.2062
 2944W        W20468   6.382   5.089   0.773  0.0175 -0.1583 -0.0464
 2945W        W20469   3.072  12.271   4.519  0.4062  0.2151 -0.2556
 2946W        W20470   6.019   6.354  15.347  0.0107 -0.1080  0.0682
 2947W        W20471   7.944   8.212   4.937 -0.2136 -0.1356 -0.2742
 2948W        W20472  14.626  12.715  14.769  0.0011 -0.0405  0.0026
 2949W        W20473   9.948   0.259   0.822 -0.0964 -0.0461  0.0156
 2950W        W20474   7.755   8.345   3.461  0.0820  0.1353 -0.2406
 2951W        W20475  13.051  10.750  13.059 -0.2045  0.0910 -0.1720
 2952W        W20476   6.838   3.767  15.350  0.2419 -0.2013 -0.0742
 2953W        W20477   7.982  16.199   1.016  0.0186 -0.1844  0.0252
 2954W        W20478   2.714  15.041  13.500  0.0723  0.0619 -0.2348
 2955W        W20479   2.974  12.731   4.503  0.1901 -0.0659 -0.2090
 2956W        W20480   5.445   3.758   4.417  0.0989  0.2418  0.0185
 2957W        W20481   8.627   5.998  15.516  0.0997  0.1441 -0.4148
 2958W        W20482   3.575  17.291  12.429 -0.2170  0.1000  0.2676
 2959W        W20483   4.086  16.260  13.265 -0.2544 -0.1261  0.2399
 2960W        W20484  17.982   8.011   1.429  0.2084  0.2370 -0.2979
 2961W        W20485   3.252   9.867  13.024  0.2202  0.2033 -0.0682
 2962W        W20486   7.927  11.480  11.811  0.4335 -0.2442 -0.0499
 2963W        W20487   2.625   5.191  15.134 -0.3163  0.0465 -0.1535
 2964W        W20488  16.656  12.220  13.056  0.1347  0.5045 -0.1587
 2965W        W20489   8.777   7.995  10.687 -0.0126  0.2596  0.2040
 2966W        W20490   1.534   6.130   0.898 -0.1655 -0.0483  0.2066
 2967W        W20491   4.809   1.800  12.249  0.0911 -0.0768  0.0845
 2968W        W20492  17.908  14.245  15.218 -0.1590 -0.0347  0.2535
 2969W        W20493  16.849   6.618   2.790  0.3170  0.1022 -0.1973
 2970W        W20494  11.822  14.638   0.822  0.0746  0.0855 -0.0463
 2971W        W20495  14.062  16.135  11.018  0.0810  0.0925  0.1485
 2972W        W20496  10.419   9.150   0.335 -0.0431  0.0922 -0.0601
 2973W        W20497  18.005   1.011  11.388 -0.2057 -0.0527  0.0169
 2974W        W20498  14.158  13.680  10.866 -0.0687  0.1630 -0.0039
 2975W        W20499   1.381  10.629   0.605  0.1633  0.3127 -0.1681
 2976W        W20500  10.402   8.673   4.975 -0.0744  0.0235 -0.0639
 2977W        W20501   5.306   6.539  11.087 -0.1051 -0.1221  0.0720
 2978W        W20502  13.837   1.688  12.078 -0.0128 -0.0385  0.2498
 2979W        W20503  15.215  11.267   2.851  0.0405 -0.0322  0.0879
 2980W        W20504  10.850  12.752   0.749  0.2109  0.1876  0.2516
 2981W        W20505   4.403  12.032  15.491 -0.0373  0.0534  0.0631
 2982W        W20506   7.641  16.198  15.798 -0.2271  0.0628 -0.5579
 2983W        W20507  12.314  13.564  14.968 -0.0750 -0.1997  0.1743
 2984W        W20508  17.463  10.701  15.746  0.2026  0.0170 -0.0031
 2985W        W20509  14.924   4.410  15.040  0.1141 -0.1146 -0.1152
 2986W        W20510   5.623  17.334  14.976  0.1698 -0.1628 -0.1514
 2987W        W20511   2.486   7.756   3.454  0.3686 -0.0174  0.2937
 2988W        W20512  10.611  13.911   2.558 -0.0878  0.0653 -0.4102
 2989W        W20513  10.646   3.865  14.844 -0.2491  0.1047 -0.1191
 2990W        W20514  14.929  10.830  13.432  0.0357 -0.1501 -0.1700
 2991W        W20515  10.433   0.484   0.832 -0.0764  0.0261  0.1270
 2992W        W20516   0.130  12.073   0.027 -0.0720 -0.0715 -0.2787
 2993W        W20517  14.006  14.435  15.782 -0.2008  0.3179 -0.1031
 2994W        W20518  15.966  12.284   2.318  0.1677  0.0429  0.1836
 2995W        W20519   7.620   9.209  14.530 -0.0814  0.0773  0.4027
 2996W        W20520  11.048   0.630  11.220 -0.1387  0.0897 -0.0338
 2997W        W20521   2.312   0.048  15.878 -0.2177  0.1022  0.1212
 2998W        W20522   0.852   3.996  11.380 -0.5049 -0.1383 -0.3048
 2999W        W20523   8.943   3.056   1.793  0.0751  0.2222  0.0638
 3000W        W20524  11.223  12.135   0.302  0.0587  0.1962  0.0252
 3001W        W20525  15.080  17.454  14.497  0.1264  0.2830  0.1465
 3002W        W20526  10.382  12.137  13.340  0.2293 -0.1709 -0.0647
 3003W        W20527   6.668  14.886   0.902 -0.0922 -0.3499 -0.0742
 3004W        W20528   6.696   8.648  14.492  0.1579  0.0202  0.0250
 3005W        W20529  11.200  13.826  13.738 -0.0978 -0.1231  0.0286
 3006W        W20530   7.334   9.554   3.954  0.0106 -0.2728  0.0353
 3007W        W20531  14.549   6.679   0.947  0.0596  0.0153  0.0263
 3008W        W20532  10.732   4.679   2.678 -0.0780 -0.0239 -0.3202
 3009W        W20533   5.962   3.963   0.509 -0.2118  0.2181  0.1334
 3010W        W20534   0.371   6.051  15.748  0.2172  0.1980  0.2671
 3011W        W20535   6.398  14.275   0.144 -0.0402  0.5055  0.0466
 3012W        W20536   7.002  11.509   1.210 -0.2176  0.2607  0.0623
 3013W        W20537  13.357  12.479   1.350  0.2691  0.0243  0.0739
 3014W        W20538  10.249   0.254   1.239  0.0549 -0.1632 -0.1789
 3015W        W20539  13.383   0.876  15.782  0.1355 -0.0876 -0.1106
 3016W        W20540   6.808   3.168   4.465 -0.2669  0.1841 -0.0196
 3017W        W20541   8.592  12.878   2.109  0.0113 -0.0545  0.0337
 3018W        W20542   4.314   7.503  14.209 -0.2067  0.2488  0.0215
 3019W        W20543   0.451   6.471   3.783  0.0645 -0.3518  0.2598
 3020W        W20544  11.512  18.014   0.032 -0.1276  0.4012  0.0141
 3021W        W20545   9.531   0.196  14.652 -0.0392 -0.0713  0.2563
 3022W        W20546  15.189  13.853   3.348  0.0664 -0.2792 -0.0349
 3023W        W20547  16.213  11.059  11.590 -0.1157  0.4491 -0.3340
 3024W        W20548  17.705   8.509   4.563  0.1229  0.1920 -0.0430
 3025W        W20549  10.427  15.180   0.823 -0.0413  0.1705 -0.0500
 3026W        W20550  12.069   1.665   0.463  0.1510 -0.4549  0.0960
 3027W        W20551   7.480   9.723  15.211 -0.1683 -0.4702 -0.1602
 3028W        W20552  11.882   8.419  14.838  0.0644 -0.3330  0.0452
 3029W        W20553   4.472   7.702   3.312 -0.0553 -0.3277  0.0604
 3030W        W20554  15.853   1.733   4.706  0.1075  0.0328  0.2772
 3031W        W20555   6.372  11.332   3.384 -0.1047  0.0263  0.0349
 3032W        W20556  17.264   7.055  14.462 -0.1251 -0.0180 -0.0815
 3033W        W20557  12.731   9.132   3.928  0.3321 -0.0397 -0.2277
 3034W        W20558   0.765   2.370  10.266  0.0373  0.0341 -0.1354
 3035W        W20559  17.292  17.519   2.239 -0.0178  0.2424  0.1669
 3036W        W20560  16.067   5.765   4.299 -0.1117 -0.0179 -0.1514
 3037W        W20561   1.000   7.328  14.730  0.2244  0.2801  0.0613
 3038W        W20562  17.512   4.413  15.247 -0.1045  0.5651  0.1566
 3039W        W20563  13.871  11.802   0.676 -0.1042 -0.0114  0.0618
 3040W        W20564   9.129   4.828  15.189 -0.1824  0.1789  0.0878
 3041W        W20565   6.296   7.469  12.521 -0.1291  0.1003 -0.1388
 3042W        W20566   4.061   3.647   4.428 -0.0912  0.1824 -0.0065
 3043W        W20567   6.569  11.785   3.421  0.3078 -0.1612 -0.0810
 3044W        W20568  14.313   8.400   4.795 -0.1899 -0.0587  0.2327
 3045W        W20569  11.354  10.812   4.025  0.2579  0.3763  0.0222
 3046W        W20570   9.127  12.937  12.336  0.0465  0.1297 -0.0727
 3047W        W20571   9.404   4.163  10.967  0.0913  0.0707 -0.1479
 3048W        W20572   3.928  13.037  13.884 -0.3051 -0.1427  0.0449
 3049W        W20573  11.750   3.488  15.789  0.1174  0.3519 -0.1875
 3050W        W20574  10.907  14.417   4.166 -0.0029  0.1119  0.3810
 3051W        W20575   6.887  15.820   4.693  0.3024  0.2552  0.2912
 3052W        W20576  14.122  15.246  15.835 -0.0177 -0.0964 -0.0484
 3053W        W20577  13.231   4.453   2.354 -0.2980 -0.1310 -0.1630
 3054W        W20578   0.722  16.022   1.148 -0.3585  0.1857 -0.1618
 3055W        W20579   3.367  11.641   3.972 -0.0991  0.2209  0.1902
 3056W        W20580   2.722   3.218  15.384  0.2745  0.4230  0.0565
 3057W        W20581   6.267   9.503   4.636  0.1121  0.0728 -0.0631
 3058W        W20582   5.964   0.555  14.817  0.2098  0.2554  0.1413
 3059W        W20583  11.857   7.052  10.998  0.0740 -0.2532 -0.0872
 3060W        W20584   1.401   8.893  13.018 -0.0016  0.4604  0.1301
 3061W        W20585   3.633  10.303   4.961 -0.4312  0.1096 -0.1570
 3062W        W20586   6.492   4.755   4.283  0.3879 -0.0532  0.2579
 3063W        W20587  16.259   1.149  15.930 -0.0004 -0.0175  0.3447
 3064W        W20588  14.082   1.960   3.235  0.2014 -0.0373  0.3587
 3065W        W20589  12.331   9.929  13.622 -0.2223  0.1818  0.0233
 3066W        W20590  13.620   5.330   1.905  0.0854 -0.1906  0.0958
 3067W        W20591  17.981  17.969   2.922 -0.1851 -0.4860 -0.2514
 3068W        W20592  13.508  12.959   1.426 -0.1342 -0.0463 -0.0635
 3069W        W20593  15.736   7.358   1.457 -0.1028  0.0156  0.2125
 3070W        W20594  16.470   8.344   1.086  0.0828  0.1531  0.1256
 3071W        W20595   0.299   0.320   0.140  0.1891  0.0540  0.2143
 3072W        W20596   6.896  12.908  11.767  0.1109  0.1377  0.0565
 3073W        W20597   2.274  13.633   2.427  0.0801 -0.0383  0.2984
 3074W        W20598   4.376   1.397  14.252 -0.0354  0.1523  0.3964
 3075W        W20599   0.866  16.763  14.801  0.2364 -0.2397 -0.2208
 3076W        W20600  16.153   5.637  11.700 -0.0534 -0.0090 -0.0392
 3077W        W20601  11.517  12.001  15.050  0.3404  0.0702 -0.1523
 3078W        W20602  17.200  16.771   3.243  0.0388 -0.0389  0.5119
 3079W        W20603   3.849  10.815   2.219 -0.0153  0.0244  0.2193
 3080W        W20604   3.689   8.863  11.982 -0.3684 -0.0209 -0.0689
 3081W        W20605  14.675   6.782   2.157 -0.0841  0.1947  0.0472
 3082W        W20606   1.369  13.783   4.185 -0.2165 -0.3419 -0.0597
 3083W        W20607   1.475   2.410  12.672 -0.1130 -0.1030  0.2045
 3084W        W20608   2.140   5.670   0.582  0.2118 -0.0412  0.0421
 3085W        W20609  10.187   6.511  14.000 -0.1562  0.1406 -0.0468
 3086W        W20610  12.860   5.117   2.797 -0.3322  0.2871  0.1398
 3087W        W20611  10.672   4.206   1.743 -0.2102  0.1658 -0.0206
 3088W        W20612  15.209   8.841   0.090 -0.0506  0.0123  0.2018
 3089W        W20613   8.613  13.581  11.390 -0.1392  0.0044 -0.3410
 3090W        W20614   2.330   6.225  15.106 -0.1726 -0.2302 -0.0069
 3091W        W20615   2.795  14.945   2.364  0.1738  0.1601 -0.0889
 3092W        W20616   3.495  11.873  11.416 -0.1464  0.1117 -0.0381
 3093W        W20617  15.988  11.649   1.179  0.0338  0.0749 -0.0704
 3094W        W20618   1.895  15.778   0.235  0.1175  0.0387 -0.2905
 3095W        W20619   7.769  11.318   1.773  0.0247 -0.0136 -0.3036
 3096W        W20620   6.586  12.499  13.861  0.0078 -0.1020 -0.2929
 3097W        W20621   0.415  16.240  14.114  0.0450  0.0637 -0.1952
 3098W        W20622  16.144  10.217   0.139 -0.0914  0.4423  0.1689
 3099W        W20623  13.994  16.971   4.913 -0.1718 -0.3135  0.0138
 3100W        W20624   2.517   7.311   0.424 -0.0255 -0.0736  0.0755
 3101W        W20625   6.160  15.047  13.991  0.1222 -0.0916  0.2603
 3102W        W20626  14.349  16.903  14.666 -0.1244 -0.1276 -0.0551
 3103W        W20627   5.177  17.961   4.141 -0.0468 -0.2104  0.1841
 3104W        W20628  13.127   3.508  15.161 -0.2106  0.1636 -0.1375
 3105W        W20629  16.704  15.111  14.636 -0.0656 -0.2106  0.0547
 3106W        W20630   7.972  15.639  13.035  0.0382 -0.0587 -0.0762
 3107W        W20631  10.115   9.195   3.989  0.2016 -0.0145 -0.0655
 3108W        W20632   7.115   6.749  14.413 -0.1075  0.1806  0.1178
 3109W        W20633  10.673   6.418  10.935  0.0058  0.0938  0.1080
 3110W        W20634  10.143  18.083   3.930  0.0660 -0.0382  0.0441
 3111W        W20635  14.882   5.661  15.786 -0.1201  0.1588 -0.1705
 3112W        W20636   3.478  16.758  15.769  0.2090 -0.0754 -0.0210
 3113W        W20637   1.221  14.546   2.238  0.2116  0.0463 -0.0051
 3114W        W20638  14.568  17.519  15.437  0.0062 -0.0385  0.1899
 3115W        W20639  11.407  12.122   4.792 -0.0752 -0.2516 -0.0529
 3116W        W20640   2.319   3.126  15.028 -0.2722  0.0135  0.1152
 3117W        W20641  17.015   1.243   4.179  0.2467 -0.4275 -0.1294
 3118W        W20642   6.178   7.454  13.164 -0.0482  0.2308 -0.2302
 3119W        W20643   6.695   1.410  10.963 -0.1266 -0.2094  0.0943
 3120W        W20644   4.215  15.414   0.855 -0.0005  0.0293  0.4641
 3121W        W20645  15.926  15.423  14.322 -0.1283 -0.2208  0.0474
 3122W        W20646   6.876   0.151   2.770 -0.3628 -0.1430 -0.0862
 3123W        W20647   6.650  10.966   0.525  0.0688  0.1115 -0.0487
 3124W        W20648   9.620  16.621  15.907  0.2607  0.0893  0.0294
 3125W        W20649   9.887   5.857   4.256 -0.2521 -0.0585 -0.2072
 3126W        W20650  16.875   2.740   2.350  0.0768 -0.4556 -0.1188
 3127W        W20651   9.630   7.745  11.340  0.0112  0.0962  0.0789
 3128W        W20652  10.628   0.328   0.097 -0.0503 -0.0976 -0.3308
 3129W        W20653  17.917   3.593   4.445 -0.0236  0.1895  0.2023
 3130W        W20654  12.245   2.106  13.541  0.1618 -0.0649 -0.1548
 3131W        W20655  15.536   2.814  14.412  0.3901 -0.1439 -0.0435
 3132W        W20656  15.627   0.215   2.958 -0.1273 -0.3256 -0.0363
 3133W        W20657  13.754  10.484   2.026  0.1192  0.0875  0.2648
 3134W        W20658   0.180  15.976   0.242  0.1956 -0.0342 -0.0280
 3135W        W20659   8.043  12.200   2.107  0.3658 -0.1892  0.2070
 3136W        W20660   4.993  18.050   1.134 -0.0540  0.1660  0.2030
 3137W        W20661   6.445   9.032   1.788 -0.3040  0.0993  0.0265
 3138W        W20662   8.191   1.881   1.231 -0.1594 -0.1417 -0.0529
 3139W        W20663  10.095   3.111   4.094 -0.1343  0.2252  0.0947
 3140W        W20664   2.986  12.516   2.539  0.2550 -0.3002  0.0221
 3141W        W20665   7.207   5.018   2.021  0.1860 -0.0522 -0.1360
 3142W        W20666   2.627  14.207   1.196 -0.3755  0.0748  0.2478
 3143W        W20667   1.374   8.381  14.708  0.0410  0.0550  0.1875
 3144W        W20668   4.188  10.070  12.580  0.0335  0.0706  0.1379
 3145W        W20669   3.219   1.092   4.026 -0.2834  0.1058  0.0234
 3146W        W20670   9.935  17.871   2.139  0.1855  0.0765 -0.0582
 3147W        W20671  10.864   3.864  12.281 -0.0145 -0.2009  0.1463
 3148W        W20672   1.556  15.081  13.093  0.0017  0.0295  0.1084
 3149W        W20673   5.191  14.971   3.558  0.2313 -0.0759 -0.1719
 3150W        W20674   5.732   4.988  11.652  0.2354  0.0970  0.3295
 3151W        W20675   6.606   9.924   0.098 -0.0294  0.2235 -0.0517
 3152W        W20676   1.546  16.851   2.459 -0.2418 -0.5400 -0.1305
 3153W        W20677  15.432  11.531  11.342 -0.2523 -0.2128  0.0550
 3154W        W20678   6.659  17.451  14.529  0.0218 -0.2082 -0.2525
 3155W        W20679   5.875   1.207   2.060  0.1481 -0.2234 -0.4348
 3156W        W20680  11.688   9.730   1.772  0.0574 -0.0575 -0.2827
 3157W        W20681   8.774   3.433   2.020 -0.0226 -0.1627 -0.0699
 3158W        W20682   1.734  16.230   1.698  0.0997  0.1993 -0.1728
 3159W        W20683   1.368   9.599   2.670 -0.0194 -0.0290 -0.0384
 3160W        W20684   4.348   5.424  12.745 -0.0222  0.0625  0.1878
 3161W        W20685  17.209  12.047   4.361 -0.0541  0.0808  0.1025
 3162W        W20686  17.273  17.341  11.688  0.2142 -0.1286  0.2381
 3163W        W20687  12.810  11.269   2.514  0.2043 -0.0578  0.0639
 3164W        W20688   6.360  12.092   3.828 -0.2364  0.1602 -0.0663
 3165W        W20689  11.285  12.061  12.691 -0.0923 -0.0307  0.0401
 3166W        W20690  13.035  10.639  15.636 -0.0557 -0.0897 -0.0876
 3167W        W20691  16.313  10.467   2.705 -0.2688  0.0626 -0.1094
 3168W        W20692   0.913   0.914   1.875 -0.0235 -0.0873  0.2213
 3169W        W20693   0.299   3.462  13.300 -0.0780 -0.0323  0.0046
 3170W        W20694  10.640  12.752   2.009 -0.0294  0.2794  0.1302
 3171W        W20695   9.702  11.106  15.653  0.1006 -0.2818 -0.3109
 3172W        W20696  11.297  17.198   4.329  0.2689  0.4371 -0.0186
 3173W        W20697  16.481  13.399   2.451 -0.2184  0.1967  0.3272
 3174W        W20698   8.620   5.179   2.012  0.3276 -0.0486  0.2686
 3175W        W20699   9.557   8.165   1.078 -0.1927 -0.1204  0.1111
 3176W        W20700  15.450   6.542   2.964  0.0226  0.0610 -0.0808
 3177W        W20701   9.571   4.203   1.956  0.2098  0.3524  0.1228
 3178W        W20702  12.487  10.139  14.214 -0.0757  0.2911  0.1653
 3179W        W20703   7.696   9.682  12.721 -0.0294 -0.1794 -0.1208
 3180W        W20704  16.870   7.311   4.106 -0.0996 -0.2127 -0.0734
 3181W        W20705  13.351  16.058   1.708 -0.2428  0.0605 -0.0391
 3182W        W20706   1.688   2.485   1.433  0.1084 -0.5238  0.0131
 3183W        W20707  12.770   8.079   2.156 -0.2151 -0.2357 -0.3303
 3184W        W20708  13.361   5.544   4.754 -0.2010 -0.3382 -0.0260
 3185W        W20709  14.740  13.796   3.188  0.0928  0.0417  0.0170
 3186W        W20710   7.194  13.544   3.102  0.1209  0.1936 -0.0940
 3187W        W20711   8.764   5.606  12.589  0.3213 -0.2889 -0.2189
 3188W        W20712   0.949  16.276  14.541  0.0618 -0.0824 -0.3547
 3189W        W20713   2.541  15.665   4.085 -0.1104 -0.3128  0.0028
 3190W        W20714  11.280  18.076   3.553 -0.0896 -0.3617  0.1207
 3191W        W20715   6.899   8.346   0.652  0.0994 -0.4579 -0.2140
 3192W        W20716  12.566   0.977   3.858  0.3116 -0.0369  0.0926
 3193W        W20717   6.205   4.062   2.290  0.0735 -0.0802 -0.2763
 3194W        W20718  15.890  15.658   5.181  0.2558 -0.0033 -0.0656
 3195W        W20719  17.722  13.328  13.107  0.2552 -0.0237  0.1210
 3196W        W20720  17.884   9.379  15.805 -0.0229  0.2591  0.1273
 3197W        W20721  13.832   5.610  14.282  0.0168 -0.0796  0.1737
 3198W        W20722   2.610   2.099   5.084 -0.1741  0.0699 -0.1752
 3199W        W20723   4.783   6.482  14.480  0.0151  0.3018 -0.1847
 3200W        W20724   7.160   2.805   2.651  0.1918 -0.3218  0.0730
 3201W        W20725  12.396   3.948  15.366 -0.1497 -0.3282 -0.0571
 3202W        W20726  10.252   9.660  12.513  0.0951 -0.0680  0.0236
 3203W        W20727   0.300   9.277  11.620 -0.0803  0.0602  0.0807
 3204W        W20728   3.862   5.339  14.293  0.2349 -0.0881  0.1857
 3205W        W20729  15.802   8.555   4.734  0.1930  0.1790  0.3724
 3206W        W20730   8.297  16.520  15.615 -0.1847 -0.3060  0.0436
 3207W        W20731  11.933  17.743  14.872 -0.0879  0.0276 -0.0403
 3208W        W20732   0.460   2.146  14.716  0.0005  0.1484 -0.3244
 3209W        W20733   4.658   7.549  15.609  0.3709  0.1122  0.1090
 3210W        W20734   4.975  18.079  13.515  0.4699  0.0576 -0.1109
 3211W        W20735   0.585   3.994  13.568 -0.1657  0.0204  0.0185
 3212W        W20736   2.136  14.394  11.931 -0.1135 -0.1908 -0.1057
 3213W        W20737  16.967   4.071   0.408  0.1474  0.2389  0.0954
 3214W        W20738  11.249   5.863   3.097  0.1565  0.1579  0.0152
 3215W        W20739   0.748  10.197  15.845  0.0201 -0.0481  0.0133
 3216W        W20740   1.980   5.217   0.849 -0.0548 -0.2368 -0.2590
 3217W        W20741  14.922   6.403  15.665 -0.4368 -0.3510 -0.1670
 3218W        W20742   9.721   7.160  10.473 -0.1595  0.0667  0.0857
 3219W        W20743  12.224   1.114  11.798  0.0571 -0.0886  0.3481
 3220W        W20744   9.082   0.639   4.697  0.2910  0.0533  0.2131
 3221W        W20745  13.449   8.004   3.879  0.0577 -0.1420 -0.1393
 3222W        W20746  14.121   3.372   3.823  0.0118 -0.1004  0.0023
 3223W        W20747   9.621  17.750  14.981  0.0996 -0.0542 -0.1057
 3224W        W20748  10.515  17.398   5.152  0.0342  0.2500 -0.3090
 3225W        W20749   1.856  10.786   0.710  0.0302  0.0810  0.2463
 3226W        W20750  14.551   1.609  15.213 -0.0310  0.3046 -0.3972
 3227W        W20751   0.510  13.268  13.942  0.3244 -0.3442  0.0180
 3228W        W20752   4.540   8.855  14.098  0.1479  0.2761 -0.1703
 3229W        W20753  13.951  12.002   2.131 -0.0853  0.0914 -0.0898
 3230W        W20754   3.678  11.925  15.845 -0.1488  0.0964 -0.1527
 3231W        W20755  12.859   7.802  15.998  0.0099  0.1050  0.3322
 3232W        W20756  16.905   2.836  13.312  0.0614  0.1890  0.1939
 3233W        W20757   9.397  13.365  13.621 -0.2329 -0.3315 -0.1758
 3234W        W20758  17.747   5.363   1.826  0.2855 -0.4060 -0.0189
 3235W        W20759  17.401   4.053   4.960  0.1462 -0.2590 -0.3053
 3236W        W20760  12.015   9.312  15.152 -0.1167  0.2510  0.3774
 3237W        W20761   7.401  11.627   1.592 -0.1799  0.0043 -0.0305
 3238W        W20762  15.741  14.308  15.374  0.3041 -0.0521 -0.0835
 3239W        W20763   0.355  10.699   4.041  0.2538 -0.1946  0.0132
 3240W        W20764   2.482   4.933   3.719  0.1890  0.0733  0.0535
 3241W        W20765   2.385   5.816  12.209 -0.0118 -0.1978 -0.1707
 3242W        W20766  10.552  13.757  15.043 -0.3004 -0.1416  0.1390
 3243W        W20767  10.484   8.680  11.484 -0.1232  0.1640 -0.0158
 3244W        W20768  11.102   6.171  12.725  0.0577 -0.0075 -0.2642
 3245W        W20769  10.179  15.649  14.079 -0.2200 -0.0187 -0.1945
 3246W        W20770   2.082   6.969  14.007 -0.2700 -0.0209 -0.0346
 3247W        W20771   4.094   1.194  13.883 -0.2647 -0.3148  0.2030
 3248W        W20772  10.400   4.226   3.859  0.1029  0.0824 -0.0659
 3249W        W20773   0.900   8.885   0.124 -0.1262 -0.1828 -0.0802
 3250W        W20774   2.928   7.903   1.710 -0.0810  0.3509 -0.1295
 3251W        W20775   2.488  17.847   4.027  0.4011 -0.1253 -0.0691
 3252W        W20776   9.396   5.943  12.036  0.0986 -0.1867 -0.1879
 3253W        W20777   6.845  10.890   4.575  0.0293 -0.0692 -0.1763
 3254W        W20778   1.191  12.400  10.846 -0.0496  0.0525 -0.0638
 3255W        W20779  16.267   6.630   9.611 -0.0033 -0.0789 -0.0902
 3256W        W20780   4.823   7.613  10.375 -0.1920  0.2789 -0.0277
 3257W        W20781   0.778  11.269   0.126  0.0286 -0.1328  0.0116
 3258W        W20782  12.018   3.255   1.453  0.1499 -0.3197  0.0673
 3259W        W20783  17.194   6.991  11.934 -0.1170  0.1023 -0.1652
 3260W        W20784   4.015   2.353   2.837  0.0846 -0.0761  0.3051
 3261W        W20785   1.546  10.638  11.123  0.2970 -0.1122 -0.1924
 3262W        W20786   4.937  10.002  16.043  0.1865  0.1183 -0.0794
 3263W        W20787  12.527   1.024   1.896 -0.1587  0.2027  0.2214
 3264W        W20788   3.012  12.952  13.438 -0.2527 -0.0517 -0.0594
 3265W        W20789   9.285   1.947   1.406 -0.0383  0.3591  0.0935
 3266W        W20790  10.769  13.836  11.295 -0.0098 -0.1107 -0.0894
 3267W        W20791   8.284  10.476  13.138  0.1020  0.0614 -0.2151
 3268W        W20792  15.076   2.254  12.126 -0.0973 -0.0337  0.1276
 3269W        W20793  11.154   5.177  14.604  0.0569  0.2881 -0.1154
 3270W        W20794   6.344  15.903   1.778 -0.1051 -0.0711 -0.1792
 3271W        W20795   0.613   7.341   1.229  0.1962 -0.0863  0.1541
 3272W        W20796   8.477  10.278  14.384  0.2042 -0.0023  0.1190
 3273W        W20797   8.480  10.902   4.877  0.0670 -0.0433 -0.0674
 3274W        W20798  14.149  16.352   5.832 -0.1308  0.0968 -0.0931
 3275W        W20799   3.551   8.531  15.188 -0.0954  0.0760  0.0703
 3276W        W20800  13.960   9.024   3.948  0.0644  0.1200 -0.0538
 3277W        W20801  16.184   2.975   2.843 -0.1587  0.0043 -0.1118
 3278W        W20802  12.313   4.633  10.950  0.2055  0.3336  0.1344
 3279W        W20803   9.833   2.132  12.044  0.1894 -0.5171  0.4179
 3280W        W20804  11.674   5.137   1.398  0.1792  0.2215 -0.0094
 3281W        W20805  18.026   2.353   0.937 -0.0323  0.0437  0.0990
 3282W        W20806  15.227  12.074   1.354 -0.0781  0.1113 -0.3340
 3283W        W20807   1.136   1.242   5.096  0.2710 -0.1911 -0.0954
 3284W        W20808  13.210  17.119  15.639  0.0340 -0.2912  0.3605
 3285W        W20809   5.783   7.071   9.986 -0.1805 -0.1963 -0.3235
 3286W        W20810  10.242   4.276   2.014 -0.0300 -0.2612  0.0123
 3287W        W20811   1.845   3.744  13.123 -0.0194  0.2223 -0.0719
 3288W        W20812   1.535   4.426   0.918  0.2562  0.4420 -0.0739
 3289W        W20813   4.606   8.926  15.630  0.1172 -0.1246  0.0361
 3290W        W20814  12.042   9.376   1.904 -0.3742  0.1462  0.1498
 3291W        W20815   5.247   0.035  11.699 -0.3850 -0.2184  0.0366
 3292W        W20816  10.206  12.308  13.855 -0.1361 -0.1118 -0.1435
 3293W        W20817  16.426   8.255   0.155 -0.0978  0.1977 -0.1178
 3294W        W20818   2.413   8.315  10.528 -0.0144  0.0245 -0.1406
 3295W        W20819   8.866   2.400   2.148  0.0765 -0.0347  0.2339
 3296W        W20820   4.020   8.371   4.061  0.0624  0.1867 -0.1211
 3297W        W20821  14.227  12.113  11.243 -0.1039  0.2251  0.0358
 3298W        W20822   7.604   5.778  10.119 -0.1235  0.0087  0.1961
 3299W        W20823  16.716   3.920   3.913 -0.2686 -0.1191  0.3630
 3300W        W20824  16.657   7.010  14.174 -0.2156 -0.2398  0.2055
 3301W        W20825   6.380  10.353  12.222  0.0920 -0.2285 -0.4160
 3302W        W20826  12.408   5.766  15.761  0.1491  0.1753  0.2669
 3303W        W20827  16.933   2.306  14.480  0.0707 -0.0626 -0.2356
 3304W        W20828  16.450   1.718  14.816  0.1875  0.1345  0.2552
 3305W        W20829  14.427   0.897   2.683 -0.0176  0.0792 -0.3542
 3306W        W20830   6.619   5.755  11.619  0.1545 -0.0256 -0.2676
 3307W        W20831   5.371   3.406   0.984 -0.0914 -0.0023 -0.3118
 3308W        W20832   9.318   5.973  10.835  0.1204 -0.0649 -0.1212
 3309W        W20833  14.973  11.705   4.534  0.1107 -0.0355  0.0192
 3310W        W20834   8.836  11.208  15.482 -0.1880  0.3113  0.2146
 3311W        W20835   4.986   2.939  11.882 -0.0342 -0.1530  0.1341
 3312W        W20836  15.484   3.070  12.528 -0.2275  0.0802 -0.2215
 3313W        W20837  11.646  15.564   3.359 -0.1194 -0.1675  0.1742
 3314W        W20838  14.872   7.997   4.125 -0.2589  0.4094  0.4920
 3315W        W20839   7.445   4.831  12.457  0.0523 -0.1272 -0.0871
 3316W        W20840   7.623  12.595  12.710  0.1856 -0.4366 -0.0589
 3317W        W20841   8.138  14.665  11.319  0.0855  0.0726 -0.1691
 3318W        W20842   6.128  12.897   4.281  0.1975  0.0444  0.3368
 3319W        W20843  18.020   6.957  14.239 -0.0729  0.0367  0.0787
 3320W        W20844  17.194   5.822   4.870  0.1717 -0.1409  0.2437
 3321W        W20845  17.636   6.263   1.190  0.1573 -0.1101 -0.2376
 3322W        W20846   0.001   5.375  14.490  0.0772 -0.0998 -0.0961
 3323W        W20847   0.579  12.185  15.906  0.2587  0.1176 -0.1290
 3324W        W20848   1.157  12.961   5.809  0.1148  0.1943 -0.0910
 3325W        W20849  15.361  11.658   4.120  0.0029  0.0629  0.3131
 3326W        W20850   8.408  16.236  15.186  0.0467 -0.1971  0.1866
 3327W        W20851  13.005  10.659  15.018  0.2539  0.1646 -0.0052
 3328W        W20852   0.320  11.458   0.663 -0.0512 -0.1959  0.3895
 3329W        W20853   2.543  17.356  12.717  0.0262 -0.0134  0.2903
 3330W        W20854   0.140   5.471   3.011 -0.1038  0.1975 -0.2091
 3331W        W20855   1.175   3.705  12.927 -0.0431 -0.0844 -0.0345
 3332W        W20856  11.601  11.400   2.892  0.0522 -0.1773  0.0097
 3333W        W20857   2.407   6.425   2.982  0.0131 -0.1908 -0.2092
 3334W        W20858   2.549  13.591   3.721 -0.0094  0.1022  0.4762
 3335W        W20859   8.135  12.763  15.319  0.0282 -0.0346 -0.5909
 3336W        W20860   9.681   8.608  15.641 -0.2314  0.2638  0.1565
 3337W        W20861   1.555   1.896  12.758 -0.0045  0.2637  0.0973
 3338W        W20862  12.216   4.621  12.864  0.0564  0.2355 -0.2677
 3339W        W20863  12.856  14.777   0.768  0.0503  0.0166 -0.0976
 3340W        W20864  17.817  11.392   5.217 -0.0035 -0.2804  0.1139
 3341W        W20865   4.349  13.580   1.007 -0.0076  0.0245 -0.1039
 3342W        W20866   7.369   5.239  15.182 -0.2033  0.3438 -0.0869
 3343W        W20867   5.279   5.692  15.283 -0.0268  0.0552 -0.3973
 3344W        W20868   6.787  12.340   5.158 -0.0754  0.3882  0.1670
 3345W        W20869  14.728   1.782   2.579 -0.0262  0.1022 -0.0248
 3346W        W20870  16.801   0.121   4.325  0.0740 -0.1701 -0.2597
 3347W        W20871   8.019   4.478   9.801 -0.0553 -0.0673  0.3900
 3348W        W20872   9.751   3.389  14.819  0.1101 -0.3172  0.1654
 3349W        W20873  11.590   8.425  11.295 -0.1241  0.3509  0.2410
 3350W        W20874   3.682   1.998  15.833 -0.0555 -0.1470 -0.0191
 3351W        W20875  13.285  10.526   2.919  0.0011 -0.0244 -0.3909
 3352W        W20876   7.787  14.795  12.816 -0.1735 -0.0147  0.1458
 3353W        W20877   9.633  18.103  15.706  0.0447  0.0400  0.2095
 3354W        W20878   8.988   1.178   0.273 -0.1100  0.1422  0.0254
 3355W        W20879  16.220  14.515   1.026  0.1635  0.1209  0.3419
 3356W        W20880   9.453  13.701   2.676 -0.2553  0.2548 -0.1204
 3357W        W20881   2.699   5.598  11.327 -0.0996 -0.1430  0.0264
 3358W        W20882   4.277  16.123   4.671  0.1880  0.1418 -0.2533
 3359W        W20883  14.338   3.050   4.743  0.0075  0.1291  0.2622
 3360W        W20884   4.774  12.839   5.125  0.3035 -0.2043 -0.0003
 3361W        W20885  11.328  10.954  15.379 -0.1849 -0.1682 -0.1637
 3362W        W20886   6.600   6.161  15.406 -0.1285 -0.0150 -0.1630
 3363W        W20887   9.478   8.095  12.268 -0.3877 -0.2862  0.1043
 3364W        W20888  15.103   5.416   1.125  0.1989  0.1360  0.1383
 3365W        W20889  11.076  14.109   3.382 -0.0977 -0.2361 -0.0355
 3366W        W20890   0.354   3.816   1.403  0.0450  0.1835  0.0341
 3367W        W20891   9.223  13.561   4.921 -0.2250 -0.1100 -0.1329
 3368W        W20892   6.046   6.831   3.475  0.0444  0.0467 -0.2047
 3369W        W20893   9.026  11.405   1.960  0.0755  0.1856  0.2300
 3370W        W20894   9.900   5.567   3.305 -0.1773 -0.1322  0.1161
 3371W        W20895   3.365  17.063  13.816  0.2654 -0.2828 -0.1684
 3372W        W20896   0.342  12.562  11.691 -0.0289  0.0663 -0.1049
 3373W        W20897  14.137  17.308  14.344 -0.3035 -0.0472 -0.1727
 3374W        W20898  16.372   8.327  12.269 -0.0214  0.2590 -0.1433
 3375W        W20899  10.321  16.706   4.303  0.0608 -0.0162  0.0910
 3376W        W20900  14.508  10.662   1.759 -0.1882  0.4191  0.0150
 3377W        W20901  15.274   9.083   3.105 -0.1974  0.1266  0.0200
 3378W        W20902   0.254  17.322  16.024  0.2545 -0.1075  0.0023
 3379W        W20903  16.338   7.845   1.152  0.3775  0.0455  0.0534
 3380W        W20904  16.942  15.991   4.402 -0.1374 -0.4546 -0.3698
 3381W        W20905  15.034   9.804  11.388 -0.3255 -0.1499  0.0898
 3382W        W20906  17.238   2.879   1.021 -0.3833  0.1178 -0.1163
 3383W        W20907   2.124   8.637   5.667  0.2743 -0.0706 -0.0170
 3384W        W20908  18.039  12.791   1.649 -0.0052 -0.2494 -0.3892
 3385W        W20909   5.336   1.952  12.448 -0.1288 -0.1571  0.1828
 3386W        W20910   8.075   2.136   0.113 -0.0144  0.0436  0.0191
 3387W        W20911   1.560  15.202  12.614 -0.2009  0.0865  0.2313
 3388W        W20912  11.088   0.804   2.164 -0.1531  0.2295 -0.1401
 3389W        W20913  15.748   9.890   6.005  0.1176 -0.3651 -0.1473
 3390W        W20914   8.985   4.461  14.873 -0.1077  0.0111 -0.2321
 3391W        W20915   0.213  15.412   0.024 -0.0646 -0.1075 -0.1364
 3392W        W20916  14.031   0.556  12.180 -0.2638  0.0507  0.1772
 3393W        W20917   3.544   0.433   1.391 -0.2784  0.2412 -0.0899
 3394W        W20918  12.276   6.769   1.133 -0.0372 -0.0108  0.1722
 3395W        W20919  14.798  17.949  12.689 -0.1828  0.0061  0.0427
 3396W        W20920   7.785   6.167   3.914  0.3684 -0.1205  0.2000
 3397W        W20921   3.143  17.364  14.752 -0.0132 -0.1417  0.1557
 3398W        W20922   5.727  10.210   2.107 -0.1724 -0.0493  0.1407
 3399W        W20923  14.075   1.929  11.094 -0.1000  0.0996 -0.2466
 3400W        W20924  16.298   7.679  13.513  0.0023  0.0875 -0.0584
 3401W        W20925   3.187  15.660   4.668 -0.3615 -0.0249  0.0435
 3402W        W20926   8.809  15.526  11.987 -0.0435  0.0370 -0.1537
 3403W        W20927  10.569   4.243   2.892  0.2784 -0.0800 -0.1079
 3404W        W20928   6.062   8.806   2.657  0.0381  0.1350 -0.0404
 3405W        W20929   7.918  12.759  11.366 -0.1565 -0.2036 -0.0199
 3406W        W20930   0.871   7.329  13.753 -0.0133  0.0868  0.1321
 3407W        W20931   0.744  14.770  13.441 -0.1288  0.1311 -0.2829
 3408W        W20932  14.785   7.584  11.670 -0.1751 -0.0365  0.0185
 3409W        W20933  10.068   9.407   1.459 -0.3165  0.0579  0.1358
 3410W        W20934  16.933   7.120   3.610  0.1899  0.1328 -0.1678
 3411W        W20935   3.088   1.858  14.320  0.0945  0.1506  0.2785
 3412W        W20936  17.937   5.703  14.950 -0.0402  0.0091  0.2228
 3413W        W20937  13.422  16.441  15.026 -0.1942  0.1315 -0.2210
 3414W        W20938   1.206  12.980  12.728  0.3035 -0.0514  0.1319
 3415W        W20939   3.054   2.717   3.367  0.1567 -0.0496  0.0529
 3416W        W20940  15.170   2.286  12.627 -0.0752  0.3208  0.0241
 3417W        W20941  12.982  13.222   4.719 -0.0737 -0.1268 -0.2036
 3418W        W20942  12.598  14.664  15.023  0.3205 -0.0895  0.3204
 3419W        W20943   4.942  17.170  10.967 -0.0947  0.0430 -0.0529
 3420W        W20944   7.325  10.150   3.562 -0.0002  0.0336 -0.1532
 3421W        W20945   2.270   4.831   4.724  0.1824 -0.1021 -0.1901
 3422W        W20946   7.754  14.182  13.662 -0.1197  0.4663 -0.1310
 3423W        W20947   2.654   4.143  15.695  0.0706  0.0711 -0.1162
 3424W        W20948   3.501  13.071  13.173  0.0312 -0.0626  0.1463
 3425W        W20949  15.504  17.070   2.700  0.0333  0.2052  0.0071
 3426W        W20950   8.185  13.528  11.823  0.1044  0.1513 -0.1231
 3427W        W20951  12.697   2.900  13.408  0.1080 -0.0419 -0.1431
 3428W        W20952  14.107   7.631   3.178  0.0198  0.2017 -0.1543
 3429W        W20953  16.721   8.950  12.900  0.1460 -0.3955  0.3278
 3430W        W20954   3.233  15.941   0.206 -0.0194 -0.1741  0.4366
 3431W        W20955  14.231   7.429   4.270  0.1650 -0.0904  0.1882
 3432W        W20956  14.373  17.633  11.326 -0.0062  0.0811 -0.0836
 3433W        W20957   9.626   8.374   4.815  0.0547  0.2636 -0.1746
 3434W        W20958  12.397  13.510   0.984  0.3156  0.1315  0.1351
 3435W        W20959   2.935  12.317  15.521  0.1047  0.3812 -0.0611
 3436W        W20960   6.618   5.494  15.517  0.1501 -0.1794  0.1108
 3437W        W20961   1.304   9.141   2.568  0.2862  0.2967 -0.0140
 3438W        W20962  17.841   7.639  12.876  0.2024  0.1655  0.1157
 3439W        W20963   5.332  15.359  15.227  0.1090  0.0841  0.1782
 3440W        W20964   7.613  10.497  12.667 -0.2593  0.0727  0.0734
 3441W        W20965   7.328  11.654   0.800  0.1186 -0.0355 -0.0926
 3442W        W20966  16.303   7.784  15.348  0.0907  0.1917  0.1381
 3443W        W20967   3.739   0.021   0.318 -0.1524  0.1499  0.3594
 3444W        W20968  17.454   3.943   4.121 -0.1155 -0.1356 -0.0202
 3445W        W20969  10.714  14.075   0.391  0.1533 -0.0016 -0.1729
 3446W        W20970  10.048  11.506   4.929  0.0910  0.0397 -0.0824
 3447W        W20971  11.616  16.802   3.043  0.0457  0.0194 -0.2143
 3448W        W20972   2.591  14.463  12.692 -0.1593  0.2953  0.1352
 3449W        W20973  10.170   6.577  14.521 -0.0585  0.2959  0.1230
 3450W        W20974   1.987  12.182   1.413  0.1043 -0.1654 -0.1321
 3451W        W20975   8.011  11.154  15.993 -0.1404  0.2620 -0.0027
 3452W        W20976  13.478   4.765   1.536  0.2292 -0.0762 -0.0209
 3453W        W20977   5.211   6.556   3.613 -0.4430 -0.3180  0.2358
 3454W        W20978   2.926  11.438  13.955  0.3818 -0.2135 -0.1070
 3455W        W20979  13.858  15.506   4.781 -0.0085  0.0227  0.0641
 3456W        W20980   6.803  14.057   2.316 -0.0969 -0.1100  0.0724
 3457W        W20981   2.141  14.439  15.373 -0.1786 -0.2312  0.3225
 3458W        W20982   9.977   9.626  12.073 -0.2200  0.0204  0.0609
 3459W        W20983  12.010   9.369  12.988 -0.0682  0.1917  0.2399
 3460W        W20984   5.874  13.405  14.184  0.0059 -0.0021  0.1168
 3461W        W20985   3.555  17.007   2.269 -0.1933  0.2404 -0.0407
 3462W        W20986   6.673  13.052   3.719  0.1899  0.2036 -0.3038
 3463W        W20987   2.309  13.296   1.676 -0.0221  0.0605 -0.1170
 3464W        W20988   1.679  16.208   0.820  0.2134 -0.1068 -0.1765
 3465W        W20989  15.481   0.185   3.994 -0.0529 -0.1665  0.2818
 3466W        W20990  13.740  16.748   3.560  0.2837  0.1166 -0.0627
 3467W        W20991  14.250  15.061   3.971  0.1764 -0.0642 -0.0142
 3468W        W20992   0.475  14.185   4.119  0.2232  0.1998  0.0060
 3469W        W20993  13.195   2.631  15.376  0.0380  0.1054 -0.0523
 3470W        W20994   5.062   8.845   1.558 -0.0702 -0.0172 -0.4531
 3471W        W20995  14.537  15.093   2.762 -0.2144 -0.0125 -0.0206
 3472W        W20996   9.671   5.196  12.573  0.4146  0.1392  0.2270
 3473W        W20997   5.048   5.758  12.936  0.2809  0.1874  0.1395
 3474W        W20998   2.794  15.051  12.819 -0.2925  0.1629 -0.0528
 3475W        W20999   9.318  17.210  13.187 -0.2061  0.2896 -0.0898
 3476W        W21000  17.582   6.964   2.514 -0.1194 -0.0273  0.0688
 3477W        W21001  11.322   0.536   1.305  0.3269 -0.0757  0.0719
 3478W        W21002  17.951   2.514  14.358 -0.2602  0.0117 -0.3751
 3479W        W21003  11.351  10.396   1.066 -0.1527  0.0835  0.1420
 3480W        W21004   6.961  14.312  11.492 -0.2114 -0.2101 -0.1069
 3481W        W21005  16.850   9.184   4.060 -0.0131 -0.0545  0.2155
 3482W        W21006   7.133  12.647  12.480 -0.1315  0.1255  0.1513
 3483W        W21007   6.806  12.596  15.152  0.0831 -0.1897  0.1450
 3484W        W21008  15.418   6.002   1.070  0.1670  0.2299 -0.1785
 3485W        W21009   8.664   7.377   0.121  0.1178  0.0184 -0.0356
 3486W        W21010   1.770  13.052  11.328  0.1703 -0.0630 -0.1088
 3487W        W21011  15.946   7.755  11.505 -0.0966  0.0054  0.1631
 3488W        W21012  12.815   3.646  11.714  0.2115 -0.0360 -0.0611
 3489W        W21013  15.751   2.718   2.999 -0.1398  0.1302  0.2342
 3490W        W21014  13.547   1.397   1.113 -0.0392 -0.3709  0.0857
 3491W        W21015  16.945  16.489   0.877 -0.1458  0.3158  0.2612
 3492W        W21016  17.795  14.648  11.091 -0.2216 -0.0592 -0.2140
 3493W        W21017   3.409   7.501   0.171 -0.2136  0.0299 -0.0193
 3494W        W21018  13.318   5.263   3.626 -0.1383 -0.0080 -0.0237
 3495W        W21019  11.458  11.431  13.976  0.3263 -0.4279 -0.2782
 3496W        W21020   4.268  16.326  11.343 -0.1446  0.0697 -0.0200
 3497W        W21021  13.518   1.697   3.158 -0.2194  0.3759 -0.1785
 3498W        W21022   0.984   4.180   3.191 -0.4577  0.2797 -0.0845
 3499W        W21023  16.452   7.063  11.173  0.2147  0.0854  0.1340
 3500W        W21024   9.560   2.847   4.767 -0.0726  0.3717  0.0038
 3501W        W21025  12.805  13.746  12.929  0.1323  0.0823  0.0657
 3502W        W21026  14.082   2.833  14.816 -0.0741 -0.0833 -0.0566
 3503W        W21027  13.101  14.488  14.042 -0.0822 -0.1240  0.1823
 3504W        W21028  16.293   2.961  13.894 -0.4368  0.0991 -0.1691
 3505W        W21029  15.622  17.217  11.703  0.1175  0.1293 -0.2579
 3506W        W21030  13.529   7.984  14.167  0.0833 -0.0921  0.2954
 3507W        W21031   7.499  16.335   4.583  0.2557 -0.1662  0.1843
 3508W        W21032   5.948  12.297   3.671  0.0398 -0.1138 -0.3129
 3509W        W21033   4.952  14.282  12.220 -0.1250 -0.3145  0.2320
 3510W        W21034  14.281   9.688  15.898 -0.0715  0.0179  0.0472
 3511W        W21035  10.563  16.235  11.085 -0.0441 -0.0209 -0.0222
 3512W        W21036  11.571  13.112  14.678  0.3019  0.0824 -0.2258
 3513W        W21037  11.262  17.161  11.607 -0.0754 -0.1129  0.0297
 3514W        W21038  14.820   3.907  13.598 -0.1132  0.0121 -0.1186
 3515W        W21039  14.113  10.866   2.000 -0.2102  0.1574 -0.2544
 3516W        W21040  14.190  14.077   4.206 -0.1509  0.0889 -0.0210
 3517W        W21041   4.633   3.689  12.934 -0.2259  0.0896 -0.1713
 3518W        W21042  13.680   7.656  15.589  0.0933 -0.2035 -0.0845
 3519W        W21043   7.062  13.536  12.751  0.1283 -0.0802  0.1133
 3520W        W21044  17.256  12.493  14.629 -0.1018  0.2479 -0.0448
 3521W        W21045  15.128  11.939   0.400 -0.3104  0.0142 -0.0251
 3522W        W21046  12.153  11.221  15.011  0.0243  0.1996 -0.2861
 3523W        W21047  12.627   3.304   0.339  0.2062 -0.2418 -0.1354
 3524W        W21048   2.272  16.995   0.765  0.0350 -0.0397  0.1424
 3525W        W21049   5.269   9.001  12.895  0.0348 -0.1772  0.2533
 3526W        W21050  17.589   5.273  12.808  0.2485  0.2306 -0.2491
 3527W        W21051   2.922  14.354   1.550 -0.2676 -0.0764 -0.1047
 3528W        W21052   5.396   2.108   0.268 -0.0699  0.1183  0.1718
 3529W        W21053   9.599  14.480   0.641  0.3104 -0.2307  0.3422
 3530W        W21054  10.420  15.407  14.511 -0.1782  0.1430 -0.0213
 3531W        W21055   9.477  11.213  11.520  0.1088  0.3309 -0.0882
 3532W        W21056   9.725  10.716  11.177 -0.2401 -0.2103 -0.2816
 3533W        W21057   9.243  12.700  15.523  0.1036  0.0370 -0.1937
 3534W        W21058   6.480   7.254  12.086  0.0047 -0.1651 -0.2444
 3535W        W21059  13.749   1.347   0.473  0.2235 -0.1608  0.1932
 3536W        W21060   8.170  10.065  13.980  0.2202  0.3848 -0.0787
 3537W        W21061   3.816  16.747  12.456 -0.0039  0.1870 -0.1094
 3538W        W21062   8.459  12.750   2.545  0.0788 -0.0790 -0.3283
 3539W        W21063   3.218   0.822   2.510  0.1562 -0.0725 -0.3755
 3540W        W21064   8.090  14.308   5.897 -0.3087 -0.0275  0.0391
 3541W        W21065   1.246  18.122   3.767  0.1212 -0.0903  0.0865
 3542W        W21066  16.951   5.844   3.369  0.0455  0.2173  0.2529
 3543W        W21067  10.765   4.238  13.802 -0.0960 -0.2469  0.2317
 3544W        W21068   1.377   7.618   2.053 -0.0378  0.0026 -0.1017
 3545W        W21069   2.806  10.998   5.036 -0.1924  0.1748 -0.1390
 3546W        W21070   9.769   3.359  10.733 -0.0735  0.3422 -0.0628
 3547W        W21071  12.560   3.777  14.434 -0.0914  0.1415 -0.4543
 3548W        W21072   7.069   3.010   4.855  0.0017 -0.1875  0.2249
 3549W        W21073   1.647   6.785  15.421 -0.3790  0.0543 -0.1106
 3550W        W21074  15.248  10.958   5.807 -0.0625 -0.1016 -0.2699
 3551W        W21075   4.450  10.235   4.314  0.4607  0.0360  0.0798
 3552W        W21076   1.647   0.267   1.796  0.0671  0.0913 -0.0998
 3553W        W21077  15.943  12.969   2.959 -0.0378  0.0273 -0.1286
 3554W        W21078   9.142  14.743   2.075  0.0117 -0.0158  0.2445
 3555W        W21079  10.321   6.068  14.095 -0.0570  0.0570 -0.1484
 3556W        W21080   3.047  11.607  14.386 -0.0331  0.1919  0.3072
 3557W        W21081   8.053   8.692   3.103 -0.0007  0.1881  0.0985
 3558W        W21082  16.463   0.084   1.580  0.0746 -0.1360  0.1075
 3559W        W21083   1.234   5.909  14.273 -0.1910  0.0833  0.0161
 3560W        W21084  17.668  16.583  15.147 -0.0564 -0.1356 -0.1945
 3561W        W21085   0.999  17.319  11.563 -0.0388 -0.1092  0.0154
 3562W        W21086   4.568  15.708   1.034 -0.0316 -0.1303  0.0447
 3563W        W21087  10.803   3.729  14.418 -0.1526 -0.3771 -0.2587
 3564W        W21088  17.036  15.488   4.140 -0.1067 -0.0876 -0.0957
 3565W        W21089   9.989  11.039   4.006 -0.0638 -0.0093 -0.1192
 3566W        W21090   2.646  13.102  11.300 -0.0256  0.2808 -0.3186
 3567W        W21091  10.672   2.164  12.798 -0.3118  0.0829 -0.2574
 3568W        W21092   7.360   5.161   2.955  0.0888  0.0390 -0.1726
 3569W        W21093  14.971  15.312   4.799 -0.2357 -0.3216 -0.0625
 3570W        W21094   3.445  16.313  15.949 -0.0166 -0.1038  0.0644
 3571W        W21095   2.738  11.327  13.373  0.1435  0.1266  0.0041
 3572W        W21096   6.579   5.220   1.261 -0.2243  0.1061 -0.0776
 3573W        W21097   1.627  16.354  13.568  0.1319 -0.2935 -0.1321
 3574W        W21098  18.017  14.510   2.861  0.1957 -0.0567  0.0223
 3575W        W21099   3.378   2.254  14.405 -0.0783 -0.2709  0.0108
 3576W        W21100  16.238   1.086   1.698 -0.0603  0.0103  0.0188
 3577W        W21101   6.083  16.555   1.094 -0.2237 -0.1221  0.0992
 3578W        W21102   4.945  15.671  15.166 -0.0970 -0.2434  0.1106
 3579W        W21103  10.087  11.640   1.491 -0.0125 -0.1063  0.2811
 3580W        W21104   5.741   0.363   1.515 -0.0195 -0.1672 -0.2185
 3581W        W21105  10.830  15.163   3.373  0.2670 -0.2972 -0.1398
 3582W        W21106   7.776  12.888   0.347 -0.1479  0.2496  0.2993
 3583W        W21107   1.146  11.093  14.232 -0.0199  0.3877 -0.2000
 3584W        W21108   4.063  15.063  13.891 -0.1524  0.0532  0.0338
 3585W        W21109   0.869   6.222  14.345 -0.0546  0.1169  0.0102
 3586W        W21110   5.899   7.558  14.834  0.1373 -0.1519 -0.0746
 3587W        W21111  17.630   4.277  11.874 -0.0811  0.1959 -0.0761
 3588W        W21112  16.249   1.188   5.837 -0.0166  0.0164 -0.0431
 3589W        W21113  15.489   6.470   1.399 -0.0022  0.1115  0.1089
 3590W        W21114  10.767  10.879   1.958  0.1473 -0.2743  0.0303
 3591W        W21115   2.997  17.513  11.431  0.0022 -0.0780 -0.0083
 3592W        W21116  15.918  10.678   1.037 -0.0552 -0.0472  0.0572
 3593W        W21117   6.365  14.821   0.255 -0.2274  0.1850  0.2179
 3594W        W21118   9.230  11.103  13.693  0.1077  0.1748  0.0996
 3595W        W21119  14.626   9.358  13.391 -0.1721  0.2374 -0.0789
 3596W        W21120  17.384   5.062  13.838  0.0534 -0.1454  0.1785
 3597W        W21121  18.114  13.247   1.400  0.0446  0.0513  0.1201
 3598W        W21122   7.035  17.661   5.112  0.3577  0.0812 -0.2722
 3599W        W21123   2.370   9.774   4.768  0.2255  0.0834 -0.1820
 3600W        W21124  15.774   2.599  13.570 -0.6131  0.0227 -0.1459
 3601W        W21125  10.029   5.762   4.745 -0.1654  0.1429 -0.2484
 3602W        W21126  14.765   6.749  13.221  0.3485  0.0961 -0.0264
 3603W        W21127  12.963   9.511   4.219  0.1150  0.3507 -0.1248
 3604W        W21128   9.593   7.501   3.433  0.1716 -0.1263 -0.1338
 3605W        W21129   1.289   7.512  15.171  0.0515 -0.0524 -0.0264
 3606W        W21130   0.184   2.150   2.715 -0.2623  0.1478 -0.0708
 3607W        W21131  10.868  10.505   0.986  0.1036  0.0669 -0.1289
 3608W        W21132  13.713   1.865   2.673  0.0745  0.1077 -0.0701
 3609W        W21133  14.753  18.043   3.008 -0.0667  0.2151 -0.2950
 3610W        W21134   6.409  12.232   2.782  0.1614 -0.1947 -0.1216
 3611W        W21135   9.551  10.268   0.985  0.2090  0.0873  0.2994
 3612W        W21136   4.254   6.784   0.865 -0.0586  0.0123  0.0807
 3613W        W21137   3.310   0.937   0.072 -0.0978  0.1185 -0.0867
 3614W        W21138  13.577  12.217  12.001 -0.2472 -0.3584 -0.2676
 3615W        W21139  16.002  14.507  12.439 -0.1990 -0.0119 -0.1290
 3616W        W21140  10.714   7.566  12.470 -0.2440 -0.1148  0.0103
 3617W        W21141  17.641   0.770   2.617 -0.0611 -0.1379  0.0338
 3618W        W21142  11.574   4.614  13.759 -0.4077 -0.2181 -0.0825
 3619W        W21143   1.724  10.877   0.233 -0.0036 -0.0446  0.2416
 3620W        W21144  11.432  13.177   4.462  0.1860  0.1791  0.1294
 3621W        W21145  16.478   3.811  14.754  0.2060 -0.1792 -0.1421
 3622W        W21146  11.570  16.084  13.311 -0.0965 -0.0771 -0.2180
 3623W        W21147  14.286  15.371  14.095 -0.0866  0.3268 -0.1576
 3624W        W21148   6.205   4.243  13.691  0.3634 -0.3871 -0.1923
 3625W        W21149  16.255   4.415  13.855  0.0532  0.2038 -0.1541
 3626W        W21150   2.129  14.967   0.749  0.0041  0.2406 -0.1997
 3627W        W21151  14.375  11.698  14.876 -0.0535 -0.1028 -0.1592
 3628W        W21152  13.721  15.033  12.889  0.0874 -0.1221 -0.0346
 3629W        W21153   4.279   8.207   1.555 -0.1307 -0.1243  0.1451
 3630W        W21154   4.421   7.423   2.918 -0.0609 -0.0757  0.2273
 3631W        W21155  12.723  17.813  13.127 -0.2477 -0.3467 -0.2324
 3632W        W21156  14.060  15.667  15.037  0.1157  0.4574  0.1190
 3633W        W21157   2.583   1.568   1.161 -0.2914  0.0461 -0.1226
 3634W        W21158  14.597  15.362  15.682 -0.1551 -0.1553 -0.1010
 3635W        W21159  17.509   3.427  11.501 -0.2491  0.0143  0.1554
 3636W        W21160  11.420  14.417   1.000 -0.0823  0.0233 -0.1345
 3637W        W21161   0.661  12.807  10.664 -0.0149 -0.0970 -0.0299
 3638W        W21162  14.788   8.052  11.758 -0.1350 -0.2556 -0.2576
 3639W        W21163  13.673   6.967  11.175  0.4078  0.1591  0.1357
 3640W        W21164  11.819   8.922  12.555 -0.3120  0.1156 -0.0807
 3641W        W21165   3.177   8.259   1.251 -0.1562 -0.1649 -0.2899
 3642W        W21166   7.648  13.407   3.433 -0.0908  0.1563 -0.0031
 3643W        W21167   4.015  10.401   4.608 -0.1412  0.2492 -0.2310
 3644W        W21168  11.789  16.280   0.749  0.0140 -0.3688 -0.0218
 3645W        W21169  16.311   2.972  12.275 -0.1381  0.3772  0.1847
 3646W        W21170  12.107  15.036  11.676 -0.2355  0.2046 -0.0454
 3647W        W21171   4.193  13.838  13.101  0.0570 -0.1274  0.0202
 3648W        W21172   9.429   5.566  15.262  0.1643 -0.1175 -0.1380
 3649W        W21173   1.804  14.592  15.714  0.1871  0.0337 -0.3042
 3650W        W21174   7.411  11.982  13.500  0.3680  0.0169  0.1815
 3651W        W21175   4.842   4.918  15.373  0.3262  0.0933 -0.2843
 3652W        W21176  10.329  13.707   9.925 -0.1025  0.1285 -0.0976
 3653W        W21177  15.185  12.240  13.150  0.2268  0.0214 -0.1075
 3654W        W21178   9.695   3.759   0.046  0.0661 -0.0892 -0.2154
 3655W        W21179   9.608  12.958   3.168  0.3281 -0.2614  0.0431
 3656W        W21180   7.709   4.160   3.979 -0.3680 -0.0622  0.1160
 3657W        W21181  11.075  12.226   4.404  0.0287 -0.0075 -0.0683
 3658W        W21182  14.338   7.319   0.238 -0.0179  0.0440 -0.0748
 3659W        W21183  14.082  16.901  13.079 -0.2688 -0.0038 -0.0631
 3660W        W21184  14.871   8.764   1.908  0.2919 -0.1285  0.1056
 3661W        W21185   6.360  13.395   4.240 -0.0920  0.4111  0.1750
 3662W        W21186  11.769  11.194  11.047 -0.1043 -0.2418 -0.1841
 3663W        W21187   8.397  17.642  14.194  0.1329  0.1501 -0.1242
 3664W        W21188  11.125  10.288   2.017  0.1395  0.0467  0.0650
 3665W        W21189  15.081  14.677   3.985 -0.0005  0.0760 -0.2763
 3666W        W21190  13.796  11.607   3.924  0.1166  0.3117  0.1633
 3667W        W21191   2.513   2.114  13.857  0.1063  0.3042  0.0144
 3668W        W21192   1.329  13.000  14.318 -0.3763 -0.3042 -0.2632
 3669W        W21193  14.735  10.234  11.333  0.1096  0.2668 -0.0775
 3670W        W21194   7.310   5.124   0.076  0.0675 -0.2558 -0.3379
 3671W        W21195  13.011   5.962   1.631  0.0329  0.0306  0.1095
 3672W        W21196   7.424   9.764   5.610 -0.1249  0.3951  0.4297
 3673W        W21197  10.068   7.352   3.720  0.0378 -0.0798 -0.1044
 3674W        W21198   7.047   3.510  13.163 -0.0468  0.0398  0.2347
 3675W        W21199  14.300   4.013   0.962 -0.4274  0.1142 -0.4979
 3676W        W21200  10.667  14.723   5.001  0.2556 -0.3141 -0.0216
 3677W        W21201  10.860   7.316   3.837  0.3326 -0.0232 -0.2733
 3678W        W21202  16.923  17.928   0.187 -0.0154 -0.1338  0.2575
 3679W        W21203   0.472   6.392  14.610 -0.0542  0.2090  0.2446
 3680W        W21204   4.683  11.156  15.222 -0.2409 -0.1781 -0.1477
 3681W        W21205  12.434   4.593   3.560 -0.2343  0.0740  0.2054
 3682W        W21206   9.213  16.450  12.240  0.1150  0.0910  0.1134
 3683W        W21207  13.113   2.720  11.537 -0.0626 -0.2168 -0.2392
 3684W        W21208   1.213  10.526  14.939 -0.0169 -0.1140  0.1119
 3685W        W21209   2.289  14.038   4.424  0.2000 -0.1206  0.0882
 3686W        W21210  16.284   9.885   1.332  0.0072  0.1075 -0.0827
 3687W        W21211  14.339   6.831   3.205  0.3282  0.3039  0.3787
 3688W        W21212   2.176  13.016   4.408  0.0112 -0.0085 -0.0757
 3689W        W21213   6.966  17.338   2.127 -0.0429 -0.2730  0.4910
 3690W        W21214   1.295   0.884   0.205  0.1232 -0.1244  0.0808
 3691W        W21215   9.762   6.657   2.851 -0.0615 -0.3790  0.0779
 3692W        W21216   8.951   3.501   3.215  0.1200 -0.1651 -0.0069
 3693W        W21217   2.715  16.606   0.749  0.1366 -0.1877  0.0136
 3694W        W21218   3.975   9.389   2.709  0.1968 -0.4648 -0.1373
 3695W        W21219  17.999  11.052  14.494  0.0548 -0.0988 -0.0337
 3696W        W21220   1.393  12.679  14.719 -0.1194 -0.0297  0.0103
 3697W        W21221   6.911  13.120  16.058 -0.0501 -0.4851 -0.4524
 3698W        W21222   6.230   2.359  11.250 -0.0270 -0.1767 -0.0748
 3699W        W21223   5.943   2.812  14.128 -0.0883 -0.2925 -0.0471
 3700W        W21224   6.807   3.793  12.719 -0.0834 -0.0317  0.1011
 3701W        W21225   1.229   5.234   4.795  0.1456 -0.3013 -0.0920
 3702W        W21226   1.450  14.738   3.116 -0.0948 -0.0276 -0.0599
 3703W        W21227  17.604  17.053  15.521  0.0362  0.1034  0.3433
 3704W        W21228   0.908   9.906  11.039 -0.0878 -0.0109  0.1200
 3705W        W21229   1.000   0.722   4.252  0.3159  0.0462 -0.0807
 3706W        W21230   7.420  17.448  15.956 -0.0822 -0.1990  0.2048
 3707W        W21231  15.123  11.274   1.102 -0.0142 -0.1884  0.0909
 3708W        W21232   3.707  12.920   5.134  0.0388 -0.0906 -0.2560
 3709W        W21233   8.828   5.061   2.453  0.1913 -0.1167 -0.0067
 3710W        W21234  14.063  14.919   0.701  0.2067 -0.2083 -0.3916
 3711W        W21235   3.220  12.641   3.008  0.3395 -0.0509  0.0235
 3712W        W21236   7.764  10.303   3.283  0.2176  0.2294 -0.0430
 3713W        W21237   9.517  15.677   5.170  0.1922  0.0685 -0.2998
 3714W        W21238   3.607   8.032   1.145 -0.1772  0.1993 -0.1997
 3715W        W21239  12.246  16.380  13.512  0.0451 -0.1350 -0.2947
 3716W        W21240   8.982   2.416  11.754 -0.3386  0.0332  0.1486
 3717W        W21241  14.196  16.639  15.245 -0.1798 -0.1357  0.0757
 3718W        W21242   5.347   2.233  14.785  0.2617 -0.1412  0.1834
 3719W        W21243   2.307   2.902  11.764  0.3600  0.0377 -0.0343
 3720W        W21244   7.670  12.389   0.413  0.1811  0.0437  0.0215
 3721W        W21245  15.114  10.058  12.247 -0.0315  0.0274  0.0425
 3722W        W21246  15.829   8.457   0.721  0.1167 -0.0085  0.3433
 3723W        W21247  16.384   7.064   3.930  0.0311 -0.4573 -0.0581
 3724W        W21248  11.554   9.353  11.233 -0.1422  0.1004  0.3102
 3725W        W21249   7.439   3.055   2.266 -0.1743 -0.3499  0.1708
 3726W        W21250  17.954  15.140  12.719  0.1932  0.2583  0.1865
 3727W        W21251  13.371   2.849  13.771 -0.0940  0.0263  0.0294
 3728W        W21252  12.458  10.199   3.125 -0.0467 -0.1779 -0.0197
 3729W        W21253   0.658   7.593  14.231  0.2021 -0.2656  0.0333
 3730W        W21254  10.255  17.262  14.471  0.2959 -0.1416  0.0715
 3731W        W21255  14.310   1.340  14.889  0.0654 -0.0514  0.4173
 3732W        W21256  15.750   4.463  12.157 -0.0002  0.5950  0.0178
 3733W        W21257  17.733  18.116  12.196  0.0245 -0.0182 -0.1045
 3734W        W21258  17.481   5.823  14.851  0.1807  0.1252  0.1234
 3735W        W21259  16.319  13.495   0.844  0.1878  0.0764  0.1539
 3736W        W21260   1.629   9.391  13.666 -0.2565 -0.0391 -0.0143
 3737W        W21261   0.668   6.673   2.902  0.0400  0.1594 -0.0552
 3738W        W21262   8.430  12.255  15.981  0.2843  0.5470  0.1571
 3739W        W21263  15.134   9.788  14.281  0.2035 -0.3849  0.0027
 3740W        W21264  14.854  17.417   1.530  0.2542  0.2609  0.0565
 3741W        W21265   9.564  15.860  13.961 -0.1417 -0.4357 -0.3263
 3742W        W21266   7.404   4.348   3.111  0.1153 -0.0594 -0.0863
 3743W        W21267   3.068  17.420   0.988  0.0340  0.0578  0.2727
 3744W        W21268   4.963  10.729  13.906  0.1492 -0.0967  0.1607
 3745W        W21269   5.534   5.455  10.920 -0.0155 -0.1798  0.1744
 3746W        W21270  13.024   2.557   5.529  0.0979  0.3213  0.1728
 3747W        W21271   4.271   7.576  15.944  0.2813 -0.3602  0.1146
 3748W        W21272   9.248  14.960   0.866  0.3587  0.0011  0.0878
 3749W        W21273   5.678  17.869   3.864  0.1801  0.0927  0.0625
 3750W        W21274  15.217   2.997  12.961  0.1070  0.2552  0.2749
 3751W        W21275   0.817   1.217   3.901 -0.0828 -0.1687 -0.0308
 3752W        W21276   8.676   8.585  11.805  0.1025  0.1913 -0.0086
 3753W        W21277   7.587   7.705   4.124  0.4366 -0.2134  0.0047
 3754W        W21278   1.854   0.823  14.995 -0.1816  0.1010 -0.1850
 3755W        W21279   7.748  17.652  15.283  0.1457 -0.0687 -0.2074
 3756W        W21280  13.568   1.348   2.798  0.2679  0.3603 -0.0820
 3757W        W21281   4.706  12.484  14.328 -0.0640 -0.0434  0.2325
 3758W        W21282  18.089  16.660  13.265 -0.1783  0.3224  0.2370
 3759W        W21283   1.840  16.238   3.908 -0.0327  0.0681 -0.0921
 3760W        W21284   1.271   6.025   0.511 -0.0379 -0.0481  0.0247
 3761W        W21285  13.247  17.621  15.350 -0.1260  0.2664  0.1214
 3762W        W21286  10.044   7.317   0.274  0.2219  0.0492 -0.1296
 3763W        W21287  17.591   6.315  11.545  0.0795  0.1727 -0.2717
 3764W        W21288   1.518   2.588   4.609  0.0178  0.1002 -0.1782
 3765W        W21289   2.918  10.154  12.198  0.1123  0.0407  0.0258
 3766W        W21290   4.399   6.277  13.660 -0.0064 -0.1129  0.1093
 3767W        W21291   0.290  17.948   4.277 -0.0732  0.0001 -0.1069
 3768W        W21292   5.109   4.821  13.180  0.2156 -0.1135 -0.3048
 3769W        W21293   6.525   1.024   1.355  0.1466  0.0460  0.0063
 3770W        W21294  17.604  15.351   0.579  0.1836  0.1397  0.0920
 3771W        W21295   9.209  16.976  16.039 -0.4448  0.0234 -0.0664
 3772W        W21296   3.676   0.165   3.681  0.4483 -0.0112  0.3047
 3773W        W21297  11.339  17.427  15.721  0.3621 -0.0645 -0.0125
 3774W        W21298   8.240   9.577  14.885 -0.0350  0.2040 -0.1002
 3775W        W21299  12.274   6.413  14.832 -0.1355 -0.1839 -0.2314
 3776W        W21300  17.544   8.307  11.357  0.1768  0.0955  0.0213
 3777W        W21301   6.456  17.221   1.419  0.2794  0.0614 -0.2767
 3778W        W21302   2.210   5.630  11.080 -0.1516  0.0344 -0.2222
 3779W        W21303  15.657  14.818  12.240 -0.2571  0.0546  0.0869
 3780W        W21304   4.346   5.051  13.139 -0.2962 -0.0240 -0.2142
 3781W        W21305   7.889  14.239   3.676  0.1480 -0.0608 -0.2275
 3782W        W21306   1.078  13.120  11.812  0.2670 -0.1821 -0.0975
 3783W        W21307  16.902   8.655   2.821 -0.0002  0.2430 -0.0264
 3784W        W21308  14.115  11.245   1.502  0.2207 -0.1558 -0.0040
 3785W        W21309  13.229   9.377  13.329 -0.0537  0.1052 -0.0876
 3786W        W21310   0.173   0.192  15.125 -0.1965 -0.1833  0.1962
 3787W        W21311   4.118   1.858   3.082  0.1307  0.2298 -0.0367
 3788W        W21312  10.820   7.191  14.004  0.3230  0.3723  0.1942
 3789W        W21313  15.227   2.133  14.856  0.2481 -0.1257 -0.0290
 3790W        W21314   5.962   8.466   5.477  0.3485  0.1230  0.1243
 3791W        W21315  17.493  11.296  11.241  0.2356 -0.1840 -0.2596
 3792W        W21316   5.436   0.943   5.124  0.0185 -0.2705 -0.2697
 3793W        W21317   8.860  10.431  11.339 -0.0887 -0.0508 -0.0757
 3794W        W21318   0.008  10.139  11.490  0.0299 -0.1424  0.0773
 3795W        W21319  11.569  16.469   2.509  0.0216 -0.0217 -0.1469
 3796W        W21320  14.167  16.606   1.792  0.1733 -0.3537  0.0400
 3797W        W21321   9.713   9.458  13.438 -0.2180 -0.0063  0.0225
 3798W        W21322  12.239  14.830   6.461 -0.0707  0.0306  0.0197
 3799W        W21323  14.270   9.441   1.619 -0.0991  0.0922  0.0842
 3800W        W21324   5.629   7.470  14.075 -0.1827  0.2226 -0.0784
 3801W        W21325   7.775   8.917   3.486  0.1061  0.1127 -0.2323
 3802W        W21326   1.398   4.895   4.474  0.0440  0.0510 -0.1114
 3803W        W21327   8.038   8.748   0.296 -0.0954 -0.5357 -0.0149
 3804W        W21328  15.068   3.428   4.996 -0.1243  0.0092 -0.1448
 3805W        W21329  11.603   2.236   0.378 -0.2022  0.1276 -0.2713
 3806W        W21330  12.403   2.747  15.583 -0.0548  0.1200 -0.3677
 3807W        W21331  13.392   0.578  14.278 -0.0725  0.1385  0.0780
 3808W        W21332  11.964  16.401   3.346 -0.2352  0.0686 -0.0826
 3809W        W21333  14.146   6.043  14.567 -0.1379  0.1205  0.0898
 3810W        W21334   4.505   4.987   0.904  0.1776  0.3974 -0.1213
 3811W        W21335   7.210  12.885  15.185 -0.3211 -0.1828  0.1865
 3812W        W21336  17.849  14.452   3.370  0.0729  0.0416 -0.1212
 3813W        W21337   2.186   4.306  10.542  0.0658 -0.0999 -0.0394
 3814W        W21338  15.464   9.086  14.734 -0.1845  0.0458 -0.2003
 3815W        W21339  17.488   8.648   1.925 -0.2210  0.1389 -0.1777
 3816W        W21340   8.120  13.035   5.220 -0.0805  0.0817  0.0516
 3817W        W21341   8.520   0.289  12.735  0.0923 -0.1207  0.0181
 3818W        W21342   0.947   2.233   1.951 -0.1302  0.1714 -0.1766
 3819W        W21343  12.928   9.735  13.103 -0.1661 -0.1138  0.2255
 3820W        W21344   9.564  10.031   4.005  0.4312  0.1920 -0.1249
 3821W        W21345  13.460   7.469   4.775  0.2117 -0.1917  0.1214
 3822W        W21346   2.537  18.105   0.239 -0.0181  0.2150 -0.0359
 3823W        W21347   9.535   7.083  14.037  0.1308  0.0025 -0.1194
 3824W        W21348   5.809   5.653  13.011  0.1397 -0.0504  0.0255
 3825W        W21349  13.419  14.128   4.139 -0.2863 -0.4597  0.1237
 3826W        W21350  17.908   4.004   0.496 -0.0207  0.0889  0.1319
 3827W        W21351   2.104   3.661   1.961 -0.4472 -0.1040  0.2946
 3828W        W21352  11.684  13.261  11.942  0.0793  0.2574  0.1044
 3829W        W21353  18.041   0.131  11.781 -0.4580 -0.1294 -0.2694
 3830W        W21354  13.349   1.675  15.134  0.2505  0.0348  0.1336
 3831W        W21355   2.433  14.259   1.755 -0.2724  0.1507  0.2150
 3832W        W21356  16.352  15.995   0.039 -0.0831 -0.0521  0.0616
 3833W        W21357   5.397   9.720  16.000  0.0785  0.0351  0.1621
 3834W        W21358  16.284  15.971   1.671  0.1780 -0.0090 -0.0679
 3835W        W21359   8.505   6.188   1.338 -0.0490 -0.1081 -0.0008
 3836W        W21360  12.118   8.662   2.334 -0.0532  0.1450  0.0490
 3837W        W21361   6.683   3.380  13.982  0.0172  0.2770  0.1524
 3838W        W21362   9.895   2.458  12.409  0.0225  0.1230  0.0597
 3839W        W21363   6.811   6.331   1.920 -0.0701  0.0036  0.1289
 3840W        W21364   5.394   6.648   2.138 -0.0560  0.1324  0.1328
 3841W        W21365  12.644   6.933  13.684 -0.0368 -0.1295 -0.0734
 3842W        W21366   5.591  16.886   4.630 -0.1259 -0.2645 -0.4330
 3843W        W21367   1.714   7.415   2.407 -0.1018 -0.3281 -0.0602
 3844W        W21368   0.583  17.237   2.840  0.1783 -0.3456 -0.0790
 3845W        W21369   5.880  16.917  11.097  0.0487 -0.0329  0.1640
 3846W        W21370   7.172  12.281   0.291 -0.0539 -0.1076 -0.1579
 3847W        W21371   5.451  13.012   3.678  0.1853  0.2481 -0.0663
 3848W        W21372   1.940   1.588  14.800  0.2684  0.1607 -0.1809
 3849W        W21373   6.610  17.604  14.044 -0.0227 -0.0911  0.1293
 3850W        W21374   6.466   8.664  14.043 -0.0410  0.1265  0.1879
 3851W        W21375   3.444   3.522  11.403 -0.3549  0.4100  0.0655
 3852W        W21376   3.546   3.673  15.010  0.2573 -0.1536  0.0992
 3853W        W21377  13.071   8.716  13.945 -0.1333  0.2050  0.1306
 3854W        W21378  15.337  10.846   3.487 -0.1949  0.1274  0.0814
 3855W        W21379   7.109  16.601   1.847  0.2796 -0.1415  0.0608
 3856W        W21380  15.431  10.719  13.352 -0.0083 -0.0183 -0.2889
 3857W        W21381  16.416   0.413   3.408  0.1489 -0.0231  0.0754
 3858W        W21382   0.626  12.131   2.797 -0.0795 -0.0160  0.4658
 3859W        W21383   1.545  17.826   3.590 -0.3155  0.0834 -0.0701
 3860W        W21384  12.659  14.262  15.882  0.1926  0.1764  0.0037
 3861W        W21385   8.890   2.472  13.824 -0.0145  0.1132 -0.0324
 3862W        W21386  15.462   0.292  10.922  0.0493 -0.3307 -0.1048
 3863W        W21387   6.320   8.612  11.465  0.2286  0.1305  0.2149
 3864W        W21388   2.260   1.462  11.090 -0.0224 -0.0917 -0.2756
 3865W        W21389  15.994  13.666   2.538  0.0139  0.0402 -0.1439
 3866W        W21390   0.319   5.790  13.779  0.1281 -0.3440 -0.0297
 3867W        W21391   5.421   5.101   0.516 -0.1561  0.0872  0.0009
 3868W        W21392  10.960   6.668  12.823 -0.0772  0.0415 -0.1284
 3869W        W21393   8.827  15.790  12.880 -0.1852 -0.0534  0.2699
 3870W        W21394  16.716  16.301   6.209 -0.1014 -0.2984  0.0108
 3871W        W21395   1.820   6.158  12.452  0.1925 -0.3086 -0.0967
 3872W        W21396   3.647  16.943   1.770 -0.0919  0.1330 -0.2734
 3873W        W21397  18.065  13.707   1.223 -0.0398 -0.3662  0.4054
 3874W        W21398  12.043  10.700   2.281  0.0574  0.2802 -0.0996
 3875W        W21399   1.813   0.255   4.651  0.1822  0.0443 -0.5809
 3876W        W21400   7.943  14.604   3.064 -0.1131  0.0719 -0.0630
 3877W        W21401   4.042   5.427   3.813 -0.2017 -0.0567  0.1798
 3878W        W21402  13.166  11.424   1.262  0.0872  0.2138 -0.1221
 3879W        W21403  15.362   1.541  15.655  0.1176  0.0784  0.2760
 3880W        W21404   9.448   2.851   1.430 -0.0885 -0.0596  0.2759
 3881W        W21405  13.665  11.163   1.788 -0.0390  0.0837 -0.3541
 3882W        W21406   7.847   4.493  14.646 -0.2423  0.1429  0.1786
 3883W        W21407   6.750  10.892  15.386  0.0622 -0.0732  0.1225
 3884W        W21408  10.368   7.385  12.760 -0.3084 -0.0728 -0.1356
 3885W        W21409  10.879   6.172  13.197  0.1214  0.1715 -0.0638
 3886W        W21410   5.284   1.021  15.675  0.1231  0.1221 -0.1520
 3887W        W21411   9.305   6.980   2.244 -0.1357 -0.1841  0.0452
 3888W        W21412  12.701   6.319   2.719  0.1075 -0.1090 -0.1591
 3889W        W21413  11.139  12.367  12.290  0.2426  0.0464 -0.2558
 3890W        W21414  10.870  10.495  15.768 -0.1816  0.1779  0.0329
 3891W        W21415   2.804   2.271  14.471 -0.2376 -0.1382  0.3172
 3892W        W21416   7.617  15.461   4.964 -0.1155 -0.1623  0.0307
 3893W        W21417  14.360   6.602  12.335  0.0767 -0.2099 -0.3226
 3894W        W21418   6.019  15.767   4.418  0.0398 -0.0938  0.2893
 3895W        W21419   9.200  15.233  12.100 -0.2207  0.2318 -0.3854
 3896W        W21420  17.757  16.575   5.391 -0.1163  0.0776  0.0013
 3897W        W21421   3.180   8.763   1.419 -0.0489 -0.1686  0.3548
 3898W        W21422   8.067   9.187  16.057  0.0605  0.1149  0.0918
 3899W        W21423   9.208  15.851   2.437  0.3208 -0.0551  0.0278
 3900W        W21424  11.448  14.958   0.134  0.1309 -0.1491 -0.0396
 3901W        W21425   1.091   4.239  12.318 -0.0947  0.0163 -0.2086
 3902W        W21426   1.293   2.094   2.538 -0.2453  0.0550  0.2483
 3903W        W21427   2.515   6.503  14.753 -0.4037 -0.6834  0.0236
 3904W        W21428   5.945   8.089  14.928 -0.0869 -0.2523 -0.1254
 3905W        W21429   9.503   6.624  15.172  0.0414  0.2269  0.0490
 3906W        W21430  17.713   9.363   2.933  0.2259  0.1718 -0.0822
 3907W        W21431   3.344  11.589   5.451 -0.0234  0.0421  0.0534
 3908W        W21432  10.610  12.725  15.001 -0.1725 -0.0286  0.0758
 3909W        W21433   7.256  15.345   5.763  0.0192  0.1835 -0.0304
 3910W        W21434   0.409   6.570  11.342  0.1214  0.3494 -0.1161
 3911W        W21435  13.704   9.996  11.864  0.0080  0.0160 -0.0435
 3912W        W21436   9.722   0.149  13.737  0.0781  0.0105 -0.6116
 3913W        W21437   8.053   6.502  11.805  0.0428 -0.0500  0.0733
 3914W        W21438   7.622   7.360   3.506 -0.1385 -0.2785  0.0212
 3915W        W21439  10.306   8.824  12.984  0.0209 -0.0996  0.3389
 3916W        W21440  14.347  11.470   3.789  0.0547  0.2346 -0.0376
 3917W        W21441   1.728   7.434  12.786  0.3442 -0.5430  0.1012
 3918W        W21442  11.375   0.452   4.402 -0.4478  0.1284  0.0785
 3919W        W21443  14.542  16.576  13.845 -0.0856 -0.0217 -0.2005
 3920W        W21444   5.649   6.011  15.264 -0.3659 -0.1023  0.3630
 3921W        W21445  10.685   7.251  15.054 -0.2975  0.0477  0.0984
 3922W        W21446  13.556   5.990  13.701  0.2151 -0.1042 -0.0611
 3923W        W21447   9.289   1.193  14.827  0.0505  0.0723 -0.0201
 3924W        W21448   7.672   5.131   1.940 -0.1287 -0.4203 -0.1791
 3925W        W21449   4.790  10.630   1.102  0.3927  0.0895 -0.0927
 3926W        W21450  17.156  12.054   1.890  0.1191 -0.1102 -0.1065
 3927W        W21451  13.712   5.174  14.079  0.0439 -0.1214 -0.2343
 3928W        W21452  10.869   1.785   1.901 -0.3032 -0.0223 -0.3299
 3929W        W21453   6.565  17.124   2.925  0.4707 -0.0291  0.1313
 3930W        W21454   1.075   0.111  15.175  0.0546 -0.1734  0.1187
 3931W        W21455   8.969   7.717  14.860 -0.1052 -0.0379 -0.0313
 3932W        W21456   2.064  16.112  13.969  0.2303  0.0641  0.1102
 3933W        W21457   0.232   1.452  13.711  0.1105  0.0037 -0.1034
 3934W        W21458   9.967   1.328   1.901 -0.2549  0.2021 -0.1993
 3935W        W21459   2.490   0.344  15.465 -0.3367 -0.1206  0.0790
 3936W        W21460   2.619   3.293   3.126 -0.1547 -0.0446  0.2298
 3937W        W21461  11.269   4.924   4.812  0.2357  0.1085 -0.0509
 3938W        W21462   4.811  10.960   1.480  0.0565  0.1334 -0.1735
 3939W        W21463   8.520   5.570  13.188  0.1326  0.1325 -0.0440
 3940W        W21464   3.540   9.843  10.827  0.3631  0.0686  0.0155
 3941W        W21465   4.093   4.958   4.260  0.0853 -0.0878 -0.1594
 3942W        W21466   0.918   1.469   4.644  0.0756 -0.0785 -0.0952
 3943W        W21467   3.873   4.153   4.278 -0.3149  0.0849  0.3330
 3944W        W21468  15.006  15.175   5.310  0.0564 -0.1049 -0.1056
 3945W        W21469   1.755  14.091  15.358  0.1466  0.0728 -0.2358
 3946W        W21470  14.858  15.825   1.262  0.1073 -0.0178 -0.1845
 3947W        W21471   3.254   8.221   0.774 -0.0282 -0.0888  0.2699
 3948W        W21472   5.642   2.926  14.499 -0.2220  0.3885  0.1500
 3949W        W21473  13.765   5.833  14.767 -0.0798 -0.1815  0.0682
 3950W        W21474   1.085  10.582   4.887 -0.0900 -0.3005 -0.0698
 3951W        W21475   7.049   6.847  11.613  0.3481  0.0759 -0.2498
 3952W        W21476   2.359   4.802   0.921 -0.2623  0.0944 -0.2441
 3953W        W21477  11.944  11.447   4.292  0.1972  0.2759 -0.0480
 3954W        W21478   3.199   3.736  13.058  0.2451  0.0464 -0.1683
 3955W        W21479   9.482  14.354  11.307 -0.0277 -0.2924 -0.0493
 3956W        W21480  15.898   9.498  11.943  0.1722 -0.1123 -0.3083
 3957W        W21481   1.432  14.384   2.691  0.0712  0.1311  0.1077
 3958W        W21482  12.453  11.893  15.342 -0.1261  0.0608  0.1986
 3959W        W21483   8.632   4.227  14.347 -0.1438  0.0736  0.1161
 3960W        W21484   9.214   8.359   0.196  0.2859 -0.0160 -0.0643
 3961W        W21485   3.309  14.576   2.994  0.2835  0.0452  0.2091
 3962W        W21486   9.274  17.571  13.566 -0.0755 -0.0255 -0.2128
 3963W        W21487   9.235   9.557  15.376  0.0164 -0.0295  0.2222
 3964W        W21488  11.937   7.286  12.130  0.0570  0.1785 -0.0101
 3965W        W21489  14.804   0.254   5.095 -0.0053  0.1052  0.0410
 3966W        W21490   7.585   3.703   0.572  0.0105  0.1536 -0.0060
 3967W        W21491  11.504   9.049   3.693 -0.1116 -0.2298 -0.4445
 3968W        W21492  17.092   4.465  14.989 -0.1313 -0.1800 -0.0506
 3969W        W21493   3.215  15.568   0.627  0.0479 -0.0714 -0.1473
 3970W        W21494   9.884  10.655  13.613  0.0451 -0.0111 -0.2762
 3971W        W21495   5.001   1.235  14.747  0.2403 -0.0886 -0.2377
 3972W        W21496  14.413   2.035  15.385 -0.2141 -0.1867  0.0990
 3973W        W21497  15.081  13.830  13.891 -0.3333 -0.1171 -0.2574
 3974W        W21498  11.031  15.136  10.494  0.0185 -0.0626 -0.3579
 3975W        W21499  10.009  11.631  12.734 -0.2424 -0.1090  0.0681
 3976W        W21500   6.339   3.952  14.589 -0.1614  0.0623  0.2143
 3977W        W21501  16.874  10.819   4.548 -0.0972 -0.0561  0.2602
 3978W        W21502  15.813   4.967   1.331  0.0421  0.1178  0.0695
 3979W        W21503  13.834   8.194  12.902  0.1445  0.0420  0.0286
 3980W        W21504   5.107   5.240  14.293  0.0910 -0.2237 -0.2632
 3981W        W21505   6.111   2.781  11.032  0.2516 -0.0305 -0.1291
 3982W        W21506   1.119   0.757  12.148 -0.0992  0.1424 -0.4109
 3983W        W21507   4.764   2.790   2.147 -0.0052  0.0200  0.2892
 3984W        W21508  11.855  15.088  15.937 -0.2362 -0.1900 -0.0912
 3985W        W21509   2.070   9.972  11.926  0.0579  0.4117  0.1166
 3986W        W21510  17.980   4.507   1.642  0.1227  0.2443  0.0602
 3987W        W21511   1.248  12.069  15.759  0.1094  0.0181  0.0139
 3988W        W21512  17.382  15.913   4.208  0.0295  0.1173  0.0965
 3989W        W21513   3.431   6.083  14.054 -0.0315 -0.1602  0.0161
 3990W        W21514  14.124   2.166   4.747  0.0500  0.2218  0.0436
 3991W        W21515  10.415  11.206   4.085 -0.0536  0.1064  0.3176
 3992W        W21516   0.520  14.506  11.425 -0.0728  0.1754  0.1993
 3993W        W21517   1.380  10.506  13.973  0.0094 -0.0288 -0.1320
 3994W        W21518   0.772  12.778   1.489  0.3710 -0.2801 -0.0673
 3995W        W21519  10.135   1.095  11.244 -0.0734 -0.0587 -0.1582
 3996W        W21520   0.179   4.170   0.206 -0.1738  0.0377 -0.1678
 3997W        W21521   0.066  14.704   4.225  0.2196  0.2538 -0.0393
 3998W        W21522  14.041  10.669   2.491 -0.0516  0.0623  0.1183
 3999W        W21523   6.405   9.969   1.493 -0.1282 -0.3106  0.0596
 4000W        W21524  10.623  14.801  11.430  0.0124 -0.0203  0.0165
 4001W        W21525   7.851   8.082  13.988 -0.2868 -0.1169 -0.1823
 4002W        W21526  12.277   0.724   3.040  0.0659 -0.1238 -0.0571
 4003W        W21527  15.352  10.506  12.515  0.3569 -0.0712 -0.2927
 4004W        W21528  17.078  15.130   1.154  0.0300 -0.2450  0.3840
 4005W        W21529   3.759   0.897  14.190  0.1426 -0.0556 -0.0405
 4006W        W21530  15.986   6.927  15.093  0.1908 -0.2623 -0.2926
 4007W        W21531   3.589  15.966  14.856  0.1063 -0.1502 -0.3605
 4008W        W21532   5.683   5.055  10.190 -0.0400 -0.0703  0.1938
 4009W        W21533   2.640   4.706  15.029  0.1835  0.3238  0.1699
 4010W        W21534  10.506   6.840  14.184  0.0340  0.4876 -0.2739
 4011W        W21535   5.010   2.317   2.383 -0.0545  0.2711  0.1237
 4012W        W21536   4.003   5.276   1.604  0.1516  0.3682  0.0683
 4013W        W21537   4.015   3.793  15.870 -0.3862  0.1992  0.0002
 4014W        W21538   3.975   7.749   1.392 -0.2504 -0.1820 -0.0183
 4015W        W21539   3.890   6.228  14.804  0.3573 -0.0382 -0.1462
 4016W        W21540   0.538  16.454  11.972  0.0896  0.0503 -0.3731
 4017W        W21541   7.899  14.672   1.704 -0.3895 -0.0896  0.1056
 4018W        W21542  10.040   3.292   4.637 -0.2248 -0.3094 -0.0137
 4019W        W21543   6.659   3.482  12.302 -0.0506  0.1563 -0.0906
 4020W        W21544   7.671   7.818   1.794 -0.1578  0.2636  0.0944
 4021W        W21545  11.271  16.550   0.107  0.1943 -0.0043  0.1346
 4022W        W21546  16.051  16.762  12.244  0.2105  0.0901 -0.0613
 4023W        W21547   9.825   6.752  13.785  0.1259  0.0248  0.0006
 4024W        W21548  10.894  12.579  12.679 -0.0659 -0.0285 -0.3100
 4025W        W21549   1.369  18.018  12.560  0.0578  0.1719  0.2178
 4026W        W21550   4.503  16.088  13.006  0.2611  0.0855 -0.1564
 4027W        W21551   7.314  12.036  12.061 -0.0569  0.0795 -0.1379
 4028W        W21552   9.647   5.358  13.087  0.1707 -0.3633  0.0022
 4029W        W21553  17.929  10.522   0.570  0.1312  0.0344 -0.1665
 4030W        W21554   3.347   0.762   5.120  0.4100 -0.1287  0.0103
 4031W        W21555  13.565  12.125   3.795 -0.1385  0.2550  0.0581
 4032W        W21556   9.288   1.990   4.106  0.0543 -0.1140 -0.0387
 4033W        W21557   3.035   2.700  14.220  0.3320 -0.2281 -0.1937
 4034W        W21558  15.993   8.651   2.463 -0.1719  0.2539 -0.0472
 4035W        W21559  15.849  13.017  10.636  0.0919  0.0630 -0.0002
 4036W        W21560  11.066   6.256   5.933 -0.0325 -0.0665 -0.0438
 4037W        W21561  11.236   2.301   0.766 -0.0349 -0.3348 -0.0437
 4038W        W21562   3.803   8.010   3.617  0.0586 -0.0229  0.2740
 4039W        W21563   2.769  12.348  11.531  0.1649  0.0607  0.2922
 4040W        W21564   9.380   8.448   5.766  0.0125  0.2935 -0.0814
 4041W        W21565   2.820   1.886  15.215 -0.0537  0.1384 -0.0371
 4042W        W21566   2.420  17.951  14.824 -0.1218 -0.1257  0.3283
 4043W        W21567  12.009  15.762  15.458  0.1605 -0.0397 -0.0670
 4044W        W21568  11.516   2.796   2.451  0.0568 -0.2038 -0.1309
 4045W        W21569   5.526   3.236   4.812  0.0990  0.0807 -0.1993
 4046W        W21570   2.570   5.914   0.793 -0.1167 -0.0145 -0.0194
 4047W        W21571  10.176   2.146  14.002  0.1126 -0.0716  0.1041
 4048W        W21572  12.399  15.060   5.447 -0.1312 -0.0815  0.0260
 4049W        W21573  10.359  16.293  14.758  0.1116  0.0014 -0.0166
 4050W        W21574  15.876  14.973  11.479 -0.0708  0.1731  0.2183
 4051W        W21575   8.140   8.303  12.697 -0.2822 -0.4097 -0.5638
 4052W        W21576   8.335  11.393  14.515 -0.2686  0.2307  0.1734
 4053W        W21577  13.960  15.765   1.700  0.0950  0.2937 -0.0615
 4054W        W21578   8.397  12.795  14.904  0.0352  0.1506  0.0986
 4055W        W21579  11.213   2.734   1.696  0.4837 -0.1213  0.0566
 4056W        W21580   0.288  16.946   0.664 -0.1327 -0.1642  0.3406
 4057W        W21581  10.484   5.898  11.838 -0.3149 -0.2303  0.1172
 4058W        W21582  13.502  11.412  15.945 -0.0735  0.2974  0.0225
 4059W        W21583   7.669   4.777   3.930 -0.2398  0.2249  0.0172
 4060W        W21584   6.192   1.662  14.692  0.2514 -0.0589  0.1191
 4061W        W21585   0.370  17.466  12.737  0.0279  0.2522 -0.2539
 4062W        W21586  12.819  15.303  11.256  0.1258  0.2295 -0.1288
 4063W        W21587  13.988   0.357  14.702  0.1325 -0.0212 -0.1279
 4064W        W21588   8.722   9.520  15.136 -0.1506  0.2385 -0.3364
 4065W        W21589   9.545   0.146   1.886  0.0303 -0.3944  0.3890
 4066W        W21590  16.707   3.877  10.933  0.2311 -0.0894 -0.1565
 4067W        W21591  10.514   1.783   4.435  0.2069  0.1082 -0.0834
 4068W        W21592  13.569  10.924  11.691 -0.1484 -0.2263  0.1047
 4069W        W21593   2.808   3.681  13.457 -0.0943  0.2084  0.2343
 4070W        W21594   9.272   5.181  13.803  0.0538  0.1094 -0.0693
 4071W        W21595   4.875   9.750   1.065  0.1416  0.1181 -0.3171
 4072W        W21596  17.179  11.694   3.137  0.0466 -0.3405 -0.2328
 4073W        W21597   9.624  15.239  10.795  0.0009  0.1104  0.0988
 4074W        W21598  16.983  10.462  13.465 -0.3019 -0.0057  0.0714
 4075W        W21599   0.824  11.563   5.111  0.2231  0.0518  0.0910
 4076W        W21600  17.429  12.879   5.549 -0.0828  0.1392  0.4843
 4077W        W21601   9.378   3.934   4.009  0.0908 -0.1979 -0.0585
 4078W        W21602   4.773   4.601   1.171 -0.0070  0.0974 -0.0076
 4079W        W21603  15.708  15.081   1.621 -0.3060 -0.1077  0.1162
 4080W        W21604   0.623  16.789  12.383 -0.4124 -0.2114 -0.0325
 4081W        W21605   2.873  12.410   3.294 -0.1794 -0.1800 -0.2666
 4082W        W21606   7.224  11.055   2.504 -0.3470  0.1425  0.2649
 4083W        W21607   5.158   9.352  12.542 -0.3102  0.1029 -0.1452
 4084W        W21608   0.398  16.784  15.399 -0.0104  0.1094  0.0570
 4085W        W21609   2.176   7.586   2.248  0.0237 -0.0423  0.1287
 4086W        W21610   1.675   6.861  12.422 -0.1586 -0.2119 -0.0116
 4087W        W21611  12.686  14.094  12.132 -0.0815  0.2768  0.3840
 4088W        W21612  17.167  16.965   1.323  0.2012 -0.1194 -0.2147
 4089W        W21613   9.045  11.645  12.711 -0.0959 -0.0007 -0.2654
 4090W        W21614   5.593  11.853   2.494  0.1186  0.2929  0.2025
 4091W        W21615  15.938   3.471   0.615 -0.0835  0.0164 -0.4335
 4092W        W21616   2.361   2.271   2.001 -0.0878  0.1937  0.2009
 4093W        W21617   4.692  14.513   4.833  0.0066  0.3583  0.1056
 4094W        W21618  16.062   7.925  12.925  0.0111 -0.3805 -0.1160
 4095W        W21619   1.448  16.455  14.486 -0.1326  0.0001 -0.2089
 4096W        W21620   9.712  13.002   4.619  0.3317 -0.1242  0.1098
 4097W        W21621   8.775  14.361   4.020  0.2857 -0.3346  0.2873
 4098W        W21622   4.282   6.521  14.418  0.1917  0.3152 -0.0044
 4099W        W21623   6.047   3.580  13.146  0.3493  0.0401  0.1263
 4100W        W21624   8.736   1.873   1.372 -0.0309 -0.1444 -0.0332
 4101W        W21625   0.086   0.864   0.804  0.0889 -0.2164 -0.3710
 4102W        W21626   0.982  10.602   3.766  0.1592 -0.2165 -0.0514
 4103W        W21627   4.879  17.723  12.328  0.1276 -0.1213  0.1257
 4104W        W21628   0.171  14.763   4.774 -0.0318 -0.1020 -0.0963
 4105W        W21629   9.218  14.605  15.938 -0.0655 -0.1306  0.0594
 4106W        W21630   3.963   9.680   1.831  0.2349  0.3577  0.0771
 4107W        W21631   0.074  10.344  12.295  0.0156 -0.0301 -0.1402
 4108W        W21632   0.756   1.982   0.459  0.3982  0.3386 -0.2081
 4109W        W21633   0.560  12.339  13.747  0.1008  0.1345  0.1362
 4110W        W21634   0.791   0.433  12.223  0.1356  0.0188 -0.0666
 4111W        W21635  11.247   6.019  11.642 -0.3067 -0.1360  0.1687
 4112W        W21636   6.124  14.466   1.027  0.0414 -0.0074 -0.4078
 4113W        W21637   0.892   1.388   1.850 -0.2534  0.0231 -0.0676
 4114W        W21638   7.218  10.602   3.894  0.2983  0.1291  0.1678
 4115W        W21639   5.664   9.699  14.021 -0.1162 -0.0662  0.4147
 4116W        W21640  15.870   5.801   1.274 -0.2720 -0.0280  0.0927
 4117W        W21641  13.271  12.432  15.568  0.1665 -0.3132  0.1601
 4118W        W21642  15.899  11.354  15.437 -0.1683  0.0141  0.1066
 4119W        W21643  16.945   4.958  13.907 -0.0802 -0.2433  0.2464
 4120W        W21644  17.854   9.473  12.442  0.1787 -0.0007  0.0892
 4121W        W21645   0.617  16.288   1.988  0.1316 -0.1807  0.1667
 4122W        W21646   0.995  14.369  13.635  0.4867  0.0939  0.0815
 4123W        W21647   3.469   2.831  15.743  0.0646  0.2021  0.0161
 4124W        W21648   3.698   8.093   3.097 -0.0310  0.2434 -0.0624
 4125W        W21649  17.456   3.946   0.155 -0.1215  0.4219  0.4841
 4126W        W21650  16.322  15.990  14.074  0.2669  0.0277 -0.0678
 4127W        W21651   2.490   4.401   4.825  0.2467  0.0126  0.0758
 4128W        W21652  13.823  13.563   1.555 -0.1599 -0.0344 -0.0741
 4129W        W21653   4.747   6.577  10.416 -0.2558 -0.0506  0.0834
 4130W        W21654   2.213  12.802   1.863 -0.4396  0.0073 -0.0778
 4131W        W21655   7.815  10.103   1.727 -0.0024  0.0316 -0.0747
 4132W        W21656   6.841   0.651   2.689 -0.3409 -0.0586  0.0175
 4133W        W21657  16.268   7.658   3.363  0.2312 -0.2555 -0.1831
 4134W        W21658   1.931  17.706   0.965  0.2755  0.2230  0.0862
 4135W        W21659  15.922   1.522   2.122 -0.1837  0.2733  0.0726
 4136W        W21660   8.510   6.231  11.929 -0.2584 -0.0952  0.3745
 4137W        W21661  13.838  14.423   4.149  0.0973 -0.0121  0.2376
 4138W        W21662  11.685   0.377   3.990 -0.1008  0.1577 -0.0138
 4139W        W21663  15.793   7.838   3.492  0.1131 -0.1091  0.0233
 4140W        W21664   6.491   9.104   4.874  0.1830 -0.0102 -0.2695
 4141W        W21665   4.741  11.679  10.067 -0.1106 -0.1876 -0.0135
 4142W        W21666   7.474   7.049   1.841  0.1108 -0.0008 -0.0719
 4143W        W21667  11.409   0.539   1.789 -0.0204 -0.0864  0.0012
 4144W        W21668   1.363   9.121   3.395 -0.0812  0.0390  0.0871
 4145W        W21669   7.315   4.186  11.628  0.0318 -0.1049 -0.0812
 4146W        W21670  15.464   8.935   2.556  0.0081 -0.0467  0.0737
 4147W        W21671  11.649   9.443  12.465  0.0429  0.0043  0.2909
 4148W        W21672  16.975   1.391   0.444 -0.1340 -0.3842 -0.3402
 4149W        W21673   5.000   3.214   2.058  0.1648  0.1567  0.2414
 4150W        W21674   6.290   2.880   1.369  0.1522  0.0390  0.1854
 4151W        W21675  14.215  13.534   2.382 -0.1013  0.0129  0.0375
 4152W        W21676   5.909  16.006  15.700 -0.0967 -0.0890  0.2272
 4153W        W21677   4.254   7.542   2.321  0.0420  0.2432 -0.2061
 4154W        W21678  14.024   1.941   1.811  0.1714 -0.0846 -0.0320
 4155W        W21679   3.031   1.625   0.887 -0.0741  0.2273  0.0844
 4156W        W21680  15.422   1.319   2.114 -0.0294  0.3812 -0.2213
 4157W        W21681  16.923   6.748   1.811 -0.2127 -0.2491  0.1396
 4158W        W21682  15.252  12.497   2.809 -0.2171 -0.1071 -0.0196
 4159W        W21683   9.318  10.715   2.320  0.1147 -0.3210  0.2082
 4160W        W21684  10.748  13.445   2.754  0.2370 -0.1583 -0.1641
 4161W        W21685   6.756   4.582  14.315 -0.1540  0.2336 -0.0640
 4162W        W21686   8.485  12.134  12.247 -0.1196  0.0410 -0.0789
 4163W        W21687   4.303   1.667  15.094  0.3998  0.3330  0.1823
 4164W        W21688   6.559   6.648  14.546 -0.1619  0.1868 -0.4683
 4165W        W21689   6.536   0.995   2.080 -0.1082 -0.5147 -0.0754
 4166W        W21690   9.358   8.708   4.431  0.0356 -0.0229  0.2624
 4167W        W21691  11.543  17.407  13.826  0.1155  0.0486  0.0525
 4168W        W21692   2.637   0.269  13.069  0.0276 -0.2347 -0.2198
 4169W        W21693  11.858   8.156  15.301  0.2030 -0.0663  0.0932
 4170W        W21694   0.658   0.418  11.352 -0.1881  0.0902  0.3694
 4171W        W21695   0.253   5.190   5.013  0.0636 -0.2193 -0.3380
 4172W        W21696   8.969  12.868   1.774  0.0098  0.1524  0.2354
 4173W        W21697  14.614  13.058   2.489  0.0654  0.0828  0.0534
 4174W        W21698   2.298  10.589   2.491 -0.1796 -0.0020 -0.2147
 4175W        W21699   8.711   7.315   3.957 -0.0034 -0.0151 -0.0007
 4176W        W21700   4.247  10.657   4.959  0.4900 -0.1062 -0.2882
 4177W        W21701  16.341  14.570  13.736  0.3320  0.3739 -0.0191
 4178W        W21702  18.018  13.636  16.005 -0.0580 -0.0869 -0.1517
 4179W        W21703  14.626   4.763  10.965  0.0555 -0.1080  0.1779
 4180W        W21704   3.828  15.373   4.119  0.0203 -0.0826 -0.0915
 4181W        W21705  12.717  11.789  12.293  0.0335  0.0825 -0.1848
 4182W        W21706  14.246  16.730   3.373  0.1561 -0.2707 -0.0561
 4183W        W21707   9.578  14.742   4.182 -0.0090  0.0711  0.1222
 4184W        W21708   6.026   0.663  15.390 -0.0089  0.1230 -0.1299
 4185W        W21709   1.601  14.504   5.140  0.0172 -0.0322 -0.1403
 4186W        W21710  17.394  12.132   2.317  0.1323  0.2059  0.0965
 4187W        W21711   3.188  18.034  15.489  0.2585 -0.0984  0.1878
 4188W        W21712   2.842   7.776  12.861 -0.2305  0.2053 -0.0029
 4189W        W21713  10.857  15.977   2.257 -0.1443  0.0786 -0.2936
 4190W        W21714  11.361   8.903   1.310 -0.0979  0.2258 -0.2329
 4191W        W21715  13.745   2.447  14.713 -0.0598  0.1398  0.4531
 4192W        W21716   8.420  16.273   2.228 -0.1664  0.1370  0.0393
 4193W        W21717   7.869  15.268   3.592  0.1217  0.1128 -0.1844
 4194W        W21718  17.152  17.671  15.666  0.0688 -0.1884  0.0896
 4195W        W21719  17.122  14.121   4.904 -0.0118  0.0206 -0.0700
 4196W        W21720  12.350   2.182  15.764 -0.1726 -0.2194  0.0148
 4197W        W21721   5.204   6.447  12.971  0.0825  0.3678 -0.0063
 4198W        W21722   2.284   4.498   4.331 -0.0533 -0.0175 -0.3613
 4199W        W21723  13.346  14.424  12.690 -0.1916 -0.0251 -0.0160
 4200W        W21724  13.006  13.705   2.350  0.3188 -0.2538 -0.1982
 4201W        W21725  12.774   7.801   0.804  0.0368  0.2805  0.1080
 4202W        W21726   3.369   1.765  12.256  0.1367 -0.0058 -0.0576
 4203W        W21727  16.023  11.614  12.963 -0.1526  0.1181 -0.0960
 4204W        W21728   8.041  11.769  12.929 -0.0321  0.1765  0.3003
 4205W        W21729  15.250  12.546  15.368  0.0104 -0.0352  0.0946
 4206W        W21730  11.531   8.529  14.433  0.0173  0.0262  0.0000
 4207W        W21731   6.896   4.914  15.563 -0.0877 -0.0185  0.0636
 4208W        W21732  13.775  10.914  15.059 -0.0668 -0.0272 -0.3237
 4209W        W21733   8.459   0.052   2.770  0.1010  0.0751  0.0134
 4210W        W21734   4.372   4.621  12.111  0.0468 -0.0671 -0.0184
 4211W        W21735  15.400   2.648  12.280  0.0864  0.0695  0.0851
 4212W        W21736  12.838  17.531   5.012  0.0245 -0.2168 -0.2764
 4213W        W21737   6.484  17.082   4.469 -0.0975  0.2111  0.0807
 4214W        W21738  13.901   7.264   2.031 -0.3764 -0.0025 -0.1147
 4215W        W21739   8.464   8.091   1.639 -0.1849  0.1738  0.1260
 4216W        W21740  16.437  13.984  15.860  0.2035  0.0596 -0.0875
 4217W        W21741  12.924   7.997   1.237  0.0940  0.1981  0.2699
 4218W        W21742   1.047   3.158  13.977 -0.0469 -0.2096  0.0507
 4219W        W21743  16.078   6.038  12.181  0.0898 -0.1607  0.1169
 4220W        W21744  12.688   4.720  15.284 -0.1500 -0.2394  0.1530
 4221W        W21745  17.528  10.845   1.317 -0.0185  0.0839 -0.0038
 4222W        W21746   9.876   1.371   0.059 -0.1053  0.0778 -0.0263
 4223W        W21747  14.745   4.897   2.024  0.1206  0.0775 -0.2171
 4224W        W21748   1.508  11.725   1.157 -0.3952 -0.0800  0.1565
 4225W        W21749   0.334  11.875   2.481  0.2470 -0.1642 -0.0765
 4226W        W21750   0.376   8.223  11.556 -0.1263 -0.0654  0.0340
 4227W        W21751   2.007   9.914  12.444 -0.2823  0.1156 -0.2084
 4228W        W21752  12.422   9.721   5.090 -0.1840 -0.2368 -0.1333
 4229W        W21753   5.524   8.452   5.228  0.2041 -0.0628  0.1766
 4230W        W21754   0.363   8.059   0.649 -0.1574 -0.1469 -0.2668
 4231W        W21755  17.048  12.476  13.277  0.1546  0.1325  0.0916
 4232W        W21756  12.829  17.408  13.656 -0.0771 -0.1662 -0.1333
 4233W        W21757  13.580  14.987   0.605  0.1427  0.0644  0.0502
 4234W        W21758  16.825   0.558  15.843 -0.2673 -0.2751 -0.0386
 4235W        W21759   6.469   1.056  14.242 -0.0348 -0.2401 -0.1914
 4236W        W21760   7.806   3.246  14.337 -0.1850  0.2126  0.4301
 4237W        W21761   3.430  17.610   4.742 -0.1896 -0.0998 -0.1502
 4238W        W21762  11.755  16.214   3.804 -0.0608 -0.1260 -0.1112
 4239W        W21763  10.088   0.515   3.018 -0.2165  0.0257  0.0397
 4240W        W21764  12.944   4.150   4.712  0.0546 -0.2888 -0.0162
 4241W        W21765   9.780   1.401   4.783 -0.3059 -0.1031  0.0264
 4242W        W21766  11.157   9.289   6.029 -0.1090 -0.1870  0.1399
 4243W        W21767   1.822   0.646   1.453  0.0220 -0.3366 -0.2394
 4244W        W21768   6.393   4.009  11.430  0.1689 -0.1343  0.1694
 4245W        W21769  10.409   5.555   2.266  0.0703 -0.0881  0.0474
 4246W        W21770   3.040   3.835   4.275  0.0005 -0.0165  0.0668
 4247W        W21771  16.919   9.069   3.174 -0.0323 -0.0272  0.0726
 4248W        W21772   4.748   2.504  11.224 -0.1835 -0.0347 -0.2391
 4249W        W21773   0.595   1.034   1.483 -0.0692  0.1742  0.2439
 4250W        W21774  10.708   2.354  13.929 -0.3330  0.1352  0.3290
 4251W        W21775   6.713  14.488  14.582 -0.2942  0.0720 -0.0277
 4252W        W21776  15.559   8.868  13.836  0.2411 -0.3291  0.4501
 4253W        W21777   8.682  12.945  12.933 -0.0786 -0.2659 -0.4196
 4254W        W21778  17.504  15.854   2.199  0.3521  0.1152  0.3210
 4255W        W21779  16.304  15.046   5.280 -0.1036 -0.0580  0.0101
 4256W        W21780  15.828  17.986  13.136 -0.1385  0.1536 -0.3158
 4257W        W21781   8.485  12.173   1.182 -0.0530 -0.0017 -0.1469
 4258W        W21782  13.246  17.961   2.931 -0.1484 -0.3382 -0.0189
 4259W        W21783   6.863   1.842  13.319 -0.1780 -0.2141  0.0262
 4260W        W21784  15.773  13.130  11.534  0.0722  0.0368  0.1318
 4261W        W21785   7.871  15.453  11.983  0.0335 -0.1657  0.1665
 4262W        W21786  13.520   3.759  13.965  0.0024  0.0700 -0.0992
 4263W        W21787  12.647   4.224   1.688 -0.0133  0.2414  0.3559
 4264W        W21788  13.603   4.618   3.078 -0.1655 -0.0066  0.2089
 4265W        W21789  12.459   2.296  12.990 -0.1001  0.4778 -0.1491
 4266W        W21790  14.889   1.328  15.402 -0.0282 -0.0327  0.1979
 4267W        W21791   8.211   3.726   1.442 -0.3234  0.0800  0.0324
 4268W        W21792  13.680  17.822  15.919  0.1478  0.1335 -0.2102
 4269W        W21793  17.654   7.216   4.742 -0.0537 -0.0403 -0.1542
 4270W        W21794  11.592  13.871   1.091 -0.0289  0.2109  0.1659
 4271W        W21795  11.561  15.636  12.460  0.2025  0.2264 -0.0825
 4272W        W21796   1.398   7.156   2.948  0.0989  0.2983 -0.1041
 4273W        W21797   2.601   4.926  13.640 -0.2546 -0.0594  0.0200
 4274W        W21798   2.296   9.545  14.862 -0.0909 -0.0554 -0.0461
 4275W        W21799   9.051  10.190   4.683 -0.0712  0.1614  0.2899
 4276W        W21800  13.412  17.024  11.509  0.1223 -0.2137  0.1394
 4277W        W21801   6.034   8.646   3.697 -0.0331  0.2813  0.1541
 4278W        W21802  12.611   6.731  14.235  0.0038  0.1300  0.0760
 4279W        W21803  13.886  12.214   5.784 -0.1856 -0.2241  0.1044
 4280W        W21804  14.632   4.021   3.433  0.0098  0.2644 -0.0492
 4281W        W21805  16.868   1.022  15.232  0.0166  0.1019 -0.2150
 4282W        W21806   2.779  16.293   4.587  0.0617  0.4023  0.0466
 4283W        W21807   4.308   9.894  14.014  0.2222 -0.0911  0.1770
 4284W        W21808   5.542   9.202   0.832 -0.0785 -0.4985  0.0118
 4285W        W21809   9.943  13.219   6.022  0.0543 -0.0733 -0.1456
 4286W        W21810   1.966  15.468  14.644 -0.1081  0.0862 -0.1225
 4287W        W21811   0.280   2.194  12.349  0.0822  0.1893 -0.1037
 4288W        W21812   9.146  13.403   0.372  0.0606  0.1794 -0.0592
 4289W        W21813   1.661   5.396   4.550 -0.1400 -0.0732  0.1647
 4290W        W21814   7.602  16.129   0.714  0.0519  0.2228 -0.1595
 4291W        W21815  12.593  17.027   3.096 -0.1948  0.1977 -0.0959
 4292W        W21816   3.012   9.152  12.406  0.0950  0.0428 -0.0441
 4293W        W21817   7.082   5.648   4.106  0.3609  0.2591  0.0017
 4294W        W21818  14.997   8.429   1.549 -0.1769 -0.2581  0.0133
 4295W        W21819   1.617   2.313  14.073 -0.1559 -0.1002  0.0631
 4296W        W21820  12.268   9.316   0.043 -0.0118  0.0234  0.0763
 4297W        W21821  17.186   4.843  15.806 -0.1501  0.2534 -0.0941
 4298W        W21822  13.609  16.911  15.922 -0.2838 -0.1329  0.2490
 4299W        W21823   2.841   9.530   2.049  0.2525 -0.0775  0.1170
 4300W        W21824   2.349   7.964   3.949 -0.0902 -0.0429 -0.0620
 4301W        W21825  15.042  12.054  12.048 -0.0479  0.0983  0.5004
 4302W        W21826  14.110  17.718  13.457 -0.1399 -0.1250  0.0963
 4303W        W21827   6.220  12.072  14.107  0.1440 -0.1171  0.2178
 4304W        W21828   0.572   5.645   5.034 -0.0683  0.0266 -0.0930
 4305W        W21829  11.006  13.853  14.946 -0.0429  0.1643  0.1812
 4306W        W21830   2.239  15.032   4.659 -0.2243  0.1096 -0.0268
 4307W        W21831   0.911   0.224  15.767 -0.0992  0.0355  0.1226
 4308W        W21832  11.024  16.245   1.286 -0.0418 -0.0282 -0.1319
 4309W        W21833   0.946  17.292  15.357 -0.3728  0.0110 -0.0729
 4310W        W21834   0.026   1.145  14.118  0.3080 -0.1107 -0.2257
 4311W        W21835  15.328  16.721   5.366 -0.0284 -0.2297 -0.1174
 4312W        W21836  15.699   5.533  14.163 -0.0426  0.0244 -0.0694
 4313W        W21837  15.276   5.017   3.806 -0.0189 -0.0240  0.2472
 4314W        W21838  17.835   3.797  13.925 -0.0609 -0.0368  0.0284
 4315W        W21839   0.283  15.681   1.100 -0.0060 -0.2319 -0.0515
 4316W        W21840   3.962   1.237  14.995 -0.2025 -0.1004  0.3505
 4317W        W21841   2.728  13.454   2.510 -0.3907  0.2168 -0.1341
 4318W        W21842   7.451   6.496   3.032  0.2496 -0.0803 -0.0130
 4319W        W21843  10.260  15.872  10.517 -0.3236 -0.1108 -0.0637
 4320W        W21844  12.306   6.918   2.718  0.1747  0.0577  0.0084
 4321W        W21845  13.066  13.304  13.286 -0.1669 -0.0788 -0.1477
 4322W        W21846   1.662   6.898   2.576 -0.0505 -0.1097 -0.2047
 4323W        W21847  10.102   8.909   1.907 -0.1564  0.1028 -0.0199
 4324W        W21848  13.497  12.816  14.346  0.1317 -0.0789 -0.1950
 4325W        W21849   5.127   6.816   0.329 -0.4337  0.3394 -0.1707
 4326W        W21850  11.069  16.597   1.667  0.0276 -0.1458  0.1309
 4327W        W21851  12.407   0.477  13.084 -0.2268 -0.0283  0.5507
 4328W        W21852   9.792  16.857  12.501 -0.1294 -0.1540 -0.2553
 4329W        W21853  10.382   5.310   3.963  0.1296 -0.2210  0.0177
 4330W        W21854   5.093   7.318   2.684  0.1054 -0.0730 -0.3646
 4331W        W21855   0.319  15.592   0.487  0.1443  0.2054  0.1240
 4332W        W21856   9.262   7.276   2.647 -0.1341 -0.1137 -0.0075
 4333W        W21857   9.046  12.375  14.115  0.0800 -0.0894 -0.1112
 4334W        W21858  17.063   1.840  13.625 -0.3253  0.2989 -0.0657
 4335W        W21859   4.236   4.421   0.399 -0.0554  0.4218  0.1632
 4336W        W21860   4.097   0.138   3.439  0.0353  0.3820 -0.1178
 4337W        W21861   7.546   9.168  12.729  0.0337 -0.0104 -0.2927
 4338W        W21862  16.634   0.956   2.709 -0.1706 -0.3271 -0.2793
 4339W        W21863  16.687  17.063   1.842  0.0256 -0.0213 -0.0853
 4340W        W21864   3.629   9.781   4.138  0.0447  0.2353 -0.1803
 4341W        W21865   7.191  12.132  14.538  0.1642  0.1517 -0.0101
 4342W        W21866   1.271  12.922   4.812  0.2799 -0.2098 -0.0995
 4343W        W21867   3.377   2.641   0.452  0.1826  0.1675  0.0125
 4344W        W21868   7.772   1.246   1.795 -0.2330  0.0431 -0.0025
 4345W        W21869  11.942  17.442  15.323 -0.0867 -0.1769 -0.0361
 4346W        W21870   3.649   3.101  15.270 -0.0994  0.0273  0.1602
 4347W        W21871   8.907   4.729  14.443 -0.1457  0.1170 -0.2078
 4348W        W21872  15.015   0.963   1.211  0.1440 -0.1773 -0.0789
 4349W        W21873   0.167   5.330   3.982 -0.3690 -0.1584  0.0947
 4350W        W21874  15.866  16.269   2.588 -0.2488 -0.1260  0.1036
 4351W        W21875   5.817  12.220  15.925 -0.0857 -0.3598  0.2556
 4352W        W21876   7.667  15.979  14.610  0.2467 -0.1425  0.2372
 4353W        W21877  12.962   0.254   2.071 -0.0839  0.0161 -0.1312
 4354W        W21878   9.778   7.651  12.264  0.3826 -0.0106 -0.0685
 4355W        W21879   9.719   3.922  12.129 -0.1024  0.2675  0.2041
 4356W        W21880   4.112   9.869   2.716  0.1490 -0.0108  0.0374
 4357W        W21881  16.862   0.065  11.286  0.0489  0.0966 -0.2731
 4358W        W21882   7.881   2.491  15.440  0.2265 -0.1016  0.0767
 4359W        W21883   2.679   8.657   1.675  0.3805 -0.1438  0.0563
 4360W        W21884  12.071  12.476   2.732 -0.0242 -0.0667 -0.0046
 4361W        W21885  15.282   0.891  15.465 -0.0151 -0.1801 -0.2115
 4362W        W21886   3.952  14.892  12.179 -0.2402  0.0188  0.0005
 4363W        W21887   8.803  17.414  13.765  0.0942 -0.0376 -0.0151
 4364W        W21888  10.775   0.637   0.442  0.1266 -0.4431 -0.0061
 4365W        W21889   8.225   5.835   1.623  0.0711 -0.0879  0.3281
 4366W        W21890   8.108   0.485  12.447 -0.1466  0.1911  0.1858
 4367W        W21891  16.650   0.449  13.358  0.0720 -0.1660  0.2568
 4368W        W21892  15.401   7.034   4.222  0.0379  0.1485 -0.2273
 4369W        W21893  11.636   0.442   4.988 -0.1103  0.0641  0.1409
 4370W        W21894   6.751   0.317  12.504 -0.0634  0.2148  0.1048
 4371W        W21895  17.518  16.724  11.563 -0.0646  0.2874 -0.0154
 4372W        W21896  11.095   1.326  14.416 -0.0737 -0.2428 -0.1805
 4373W        W21897  14.592   6.569  14.513  0.3544 -0.0352 -0.0615
 4374W        W21898  14.431   5.903   1.646 -0.0926 -0.0944  0.1274
 4375W        W21899   7.185  14.132   1.184  0.0149 -0.1313 -0.1747
 4376W        W21900   2.177   2.286   0.727 -0.0359 -0.1294 -0.1044
 4377W        W21901  12.335  10.018   4.105 -0.0736 -0.1150  0.0423
 4378W        W21902   3.416   5.761   3.409  0.2076 -0.2180 -0.0964
 4379W        W21903   3.114   2.915  12.817 -0.0868 -0.0588  0.2601
 4380W        W21904   2.493  11.645   5.116 -0.2196  0.2204 -0.2020
 4381W        W21905  11.828  17.335   4.337 -0.2515  0.1083 -0.0820
 4382W        W21906   5.576   5.175   2.120  0.1597 -0.3144 -0.0031
 4383W        W21907  14.013  17.958   0.742  0.0969  0.0747 -0.0778
 4384W        W21908  14.665   5.508   4.156  0.0495 -0.1592 -0.0574
 4385W        W21909  17.390   3.134  14.456  0.2303 -0.1453  0.3819
 4386W        W21910   2.278  15.731  14.202 -0.0059 -0.0792  0.0431
 4387W        W21911   0.717   5.359  15.062 -0.3220 -0.2200 -0.0084
 4388W        W21912  16.703   0.366   5.150 -0.0577 -0.2539 -0.1066
 4389W        W21913   0.858  15.061   5.320 -0.1872  0.2370 -0.1948
 4390W        W21914   6.706   9.068  13.159  0.0414  0.0039 -0.1598
 4391W        W21915   9.090   6.309   4.707  0.3427 -0.0388 -0.1660
 4392W        W21916  16.399  13.741   3.639  0.1654  0.0675  0.1362
 4393W        W21917   3.399   7.199   3.433 -0.2069 -0.0295 -0.0177
 4394W        W21918  11.552   2.462  14.322 -0.0032 -0.2356 -0.1755
 4395W        W21919  17.112  11.106   1.476  0.1924 -0.1835  0.4748
 4396W        W21920  11.965   3.013   3.207 -0.2239  0.0483  0.0864
 4397W        W21921   8.003   5.860   0.098  0.2659  0.1730 -0.2030
 4398W        W21922   8.466  14.158   1.558  0.1081 -0.0503 -0.2068
 4399W        W21923  15.420   1.095  15.908 -0.1200  0.0735  0.2674
 4400W        W21924  13.395   0.871   1.278 -0.0523  0.3930 -0.1426
 4401W        W21925  16.036  14.527  15.088 -0.4350 -0.2763  0.1442
 4402W        W21926   5.789   7.340  15.307 -0.0251  0.0630  0.0967
 4403W        W21927  10.401  16.384   1.250 -0.3497  0.1125  0.3036
 4404W        W21928  13.628  15.212  12.420  0.2097 -0.2569  0.1981
 4405W        W21929   7.888   4.123  10.753 -0.3316 -0.0168  0.0300
 4406W        W21930   6.079   9.822   0.203  0.2506  0.1399 -0.2229
 4407W        W21931  14.251  17.807   3.394  0.1213  0.0589 -0.0965
 4408W        W21932  15.652   5.349  11.093 -0.1963 -0.0380  0.2284
 4409W        W21933   4.425  17.633  11.893  0.0050 -0.1453 -0.0470
 4410W        W21934   9.182   4.302   3.733  0.3285 -0.2170  0.0028
 4411W        W21935  12.550   9.679  15.844  0.1297  0.0801 -0.1173
 4412W        W21936   3.460   5.792   2.400 -0.0052 -0.4322 -0.0438
 4413W        W21937   4.233  14.287   4.215 -0.0601  0.1572  0.0115
 4414W        W21938   8.443   7.590  13.337  0.1090  0.2585  0.0382
 4415W        W21939   1.380   4.119   1.317 -0.1227  0.3385 -0.0027
 4416W        W21940   0.360  12.234   0.606 -0.2594  0.0038 -0.1759
 4417W        W21941   9.572   0.315   2.899 -0.0896 -0.0768 -0.1390
 4418W        W21942  13.312   2.829   4.396 -0.1670 -0.0187  0.1078
 4419W        W21943   3.210   9.419   4.450 -0.0937  0.1847 -0.0984
 4420W        W21944  13.159   5.463   1.705 -0.2609  0.1084 -0.1908
 4421W        W21945  11.742   9.110  12.083 -0.3502 -0.1256  0.1129
 4422W        W21946  17.478  11.753  12.198  0.1543  0.1288  0.4232
 4423W        W21947   8.864   3.530  12.765  0.1382  0.0601 -0.2313
 4424W        W21948  15.230   5.531   4.060  0.1323  0.5777 -0.1108
 4425W        W21949   4.346  10.980   1.440  0.0611  0.0487 -0.1654
 4426W        W21950  14.409   4.870  13.874 -0.0087 -0.0450 -0.1820
 4427W        W21951   2.824   9.020  10.898  0.2236 -0.1119 -0.2907
 4428W        W21952   0.916  18.113   2.084  0.2980  0.1300  0.1428
 4429W        W21953   7.344   5.315   1.614  0.1778  0.0889  0.2838
 4430W        W21954   2.107   6.290  14.633  0.1166 -0.0120  0.2969
 4431W        W21955  11.018   9.383   1.916  0.1782 -0.2465  0.2713
 4432W        W21956  15.611   9.409  16.035  0.4725  0.1960 -0.0014
 4433W        W21957   8.078  18.003   3.099 -0.2211 -0.1060  0.0133
 4434W        W21958   7.597   4.324  15.052  0.1877 -0.2742  0.0154
 4435W        W21959  16.477  14.000   0.845 -0.1813 -0.0510 -0.0567
 4436W        W21960  11.989   2.638  14.530 -0.0777  0.2218  0.1309
 4437W        W21961   2.180   5.842  15.302 -0.3123 -0.0864  0.1194
 4438W        W21962  14.744  10.483  15.261  0.1190  0.2333 -0.1407
 4439W        W21963   9.499   4.410  10.555 -0.0415 -0.0329  0.0747
 4440W        W21964   7.383  10.160  13.521 -0.0206 -0.2122 -0.1726
 4441W        W21965  12.244  13.098   4.516  0.1859 -0.2426  0.0908
 4442W        W21966   9.365  12.353  13.646  0.0744  0.0337  0.0039
 4443W        W21967   2.955  11.033   4.536  0.3176  0.1497 -0.2056
 4444W        W21968   7.979  13.122  14.566 -0.0239 -0.1876 -0.1037
 4445W        W21969  13.292  16.884   2.315  0.1524 -0.0956 -0.3848
 4446W        W21970  17.673   0.467   1.345  0.0377 -0.3774  0.1077
 4447W        W21971   5.204  17.423   2.810  0.0155  0.0837  0.2299
 4448W        W21972   6.509  15.131   3.741  0.1484 -0.1265  0.3132
 4449W        W21973   5.894  12.472  12.455 -0.0701  0.1671 -0.0325
 4450W        W21974   3.074   9.628  10.878 -0.3072 -0.0700  0.1429
 4451W        W21975   7.527   6.186   4.978  0.2102  0.1323  0.0692
 4452W        W21976   7.978   7.933  10.839  0.1325  0.0101 -0.2618
 4453W        W21977   5.183   7.719  13.994 -0.2270  0.0480  0.4000
 4454W        W21978   2.277   7.301  13.680 -0.0789  0.3107 -0.0568
 4455W        W21979   7.102   1.276  14.861 -0.1410 -0.1719  0.0592
 4456W        W21980   0.051  13.647   1.717  0.4552  0.2768  0.1598
 4457W        W21981  15.543  15.056  11.850 -0.3095 -0.1133 -0.3438
 4458W        W21982  15.354  17.200  13.206 -0.3356 -0.0060  0.1762
 4459W        W21983   1.784   1.138   2.829 -0.0166 -0.0059  0.0815
 4460W        W21984   3.884  10.384  15.729 -0.1797 -0.1818  0.1115
 4461W        W21985  10.184  13.434  13.106 -0.1895  0.1889 -0.0989
 4462W        W21986   3.622  16.354  14.036  0.2210  0.0553  0.2049
 4463W        W21987  16.135   9.566   0.141 -0.1882  0.0137 -0.1821
 4464W        W21988  13.623   2.268   0.895  0.1041 -0.0502 -0.1572
 4465W        W21989   5.185   8.850  11.071  0.1630  0.0957  0.0850
 4466W        W21990  16.743   5.113  13.250  0.3744 -0.4720  0.2817
 4467W        W21991  15.392   5.039  15.355  0.0743 -0.2155 -0.0682
 4468W        W21992  14.292  13.678  14.720  0.2843  0.1259  0.4303
 4469W        W21993   3.983   1.454   2.845 -0.0703  0.2710  0.0100
 4470W        W21994  11.539   5.933  13.491  0.3745  0.3576  0.1202
 4471W        W21995   2.872  15.307   1.819  0.0304  0.0045 -0.0830
 4472W        W21996  12.334  14.337  11.746 -0.0516 -0.2113  0.1219
 4473W        W21997  14.064  11.315  13.480 -0.2866  0.0810 -0.1352
 4474W        W21998   0.615   3.244   5.952  0.0886 -0.0111 -0.4109
 4475W        W21999  12.998  17.006   1.808  0.4250 -0.0481 -0.2033
 4476W        W22000   1.141   5.907   3.932 -0.1074 -0.1162 -0.1034
 4477W        W22001   7.167   2.285  13.379 -0.1993  0.2894  0.1576
 4478W        W22002  16.125   2.218  12.450 -0.0599  0.1009 -0.0218
 4479W        W22003   4.295  13.997   5.670 -0.1713  0.0891 -0.2684
 4480W        W22004   2.765   5.674  15.927 -0.1241  0.3307  0.0484
 4481W        W22005  14.443  11.736   2.085 -0.2436  0.3253 -0.0696
 4482W        W22006   5.338  18.117  14.725 -0.1392  0.2427 -0.3028
 4483W        W22007  13.805  11.645  15.627  0.1110  0.2389  0.1046
 4484W        W22008  10.078   2.778   0.164  0.3007 -0.1951 -0.0699
 4485W        W22009   4.260  14.104  13.741 -0.0923 -0.0158  0.0969
 4486W        W22010  11.124   8.481   0.619  0.1643 -0.4503  0.1205
 4487W        W22011   2.135   3.669  11.303 -0.0810  0.3216 -0.2521
 4488W        W22012   1.665   2.495  13.593  0.1710  0.0432 -0.0089
 4489W        W22013  12.349   1.404   0.176 -0.0121  0.1512 -0.2742
 4490W        W22014   9.599   2.695  14.514  0.2176 -0.1747 -0.1608
 4491W        W22015   7.036  15.230   0.743 -0.1483  0.1020  0.2143
 4492W        W22016   7.804  15.781   1.965  0.0006 -0.1427  0.0053
 4493W        W22017  13.800  12.606  15.533 -0.0922  0.3716  0.0527
 4494W        W22018   5.875  11.835   3.965 -0.1445  0.1750 -0.1789
 4495W        W22019  14.188   4.410   0.613 -0.1573 -0.3136 -0.1540
 4496W        W22020   0.203   1.762  12.930 -0.2212 -0.0880  0.4020
 4497W        W22021   8.858  11.719  12.030  0.2122 -0.2094  0.2552
 4498W        W22022   4.679   8.239   1.110  0.1185 -0.0998 -0.1810
 4499W        W22023   1.827  17.748   4.365 -0.0473  0.0972  0.1227
 4500W        W22024  12.228  12.050  14.854 -0.0921 -0.1103  0.2912
 4501W        W22025  11.391   3.115  15.625 -0.0155  0.0446  0.4232
 4502W        W22026  12.892   4.481  10.826  0.2350 -0.0202 -0.0399
 4503W        W22027   8.019   1.873  12.603 -0.3607  0.0657 -0.3821
 4504W        W22028   0.592   6.321  12.948  0.2245  0.1120 -0.2575
 4505W        W22029   4.124   5.006   3.387  0.2818 -0.1863  0.1231
 4506W        W22030   6.544  17.611   4.330 -0.0524  0.1376 -0.0026
 4507W        W22031  12.947   5.952   3.095  0.4602  0.1888 -0.0436
 4508W        W22032   2.110   9.243  15.259 -0.2303 -0.1209 -0.0754
 4509W        W22033  10.283  15.454   1.208  0.0653 -0.1615 -0.4021
 4510W        W22034  16.726   4.230   0.855 -0.2788  0.2494  0.0373
 4511W        W22035   6.205   4.748   1.492 -0.0354 -0.1177 -0.0601
 4512W        W22036   8.008   3.836   2.440  0.1533  0.2475 -0.0119
 4513W        W22037  15.246  12.079  14.672  0.1202  0.0148 -0.0316
 4514W        W22038   7.437   2.281   2.893  0.1463  0.1420 -0.0745
 4515W        W22039  15.199   9.689  15.866  0.2032 -0.4024 -0.0419
 4516W        W22040   3.224   0.935  15.072 -0.5845  0.4432  0.1932
 4517W        W22041   2.197   0.579   1.121  0.0621  0.2661 -0.5654
 4518W        W22042   0.843   6.016   0.177  0.2244 -0.0073  0.1821
 4519W        W22043  16.436   5.318   2.761 -0.1007 -0.0667 -0.0614
 4520W        W22044   8.989  11.254   4.106 -0.0075 -0.2821 -0.1535
 4521W        W22045   1.432   3.068  14.283 -0.1963 -0.1730 -0.1946
 4522W        W22046  13.453  10.884  15.434 -0.2533  0.2311 -0.1363
 4523W        W22047   8.469  15.899   0.303  0.5064 -0.2500  0.3365
 4524W        W22048  10.923   6.185   2.219  0.1398 -0.2261 -0.2288
 4525W        W22049   1.338  17.580   1.586 -0.2982  0.0842  0.1895
 4526W        W22050   1.070   3.760   1.153  0.2920 -0.2208  0.0462
 4527W        W22051   4.965   6.715   1.635  0.1303 -0.1707  0.2014
 4528W        W22052   5.218   6.886   0.902 -0.3330  0.3083  0.0707
 4529W        W22053  16.016  10.166   2.998 -0.2169  0.3105  0.0157
 4530W        W22054   2.663   7.236   3.167 -0.0880 -0.1634 -0.1496
 4531W        W22055  13.746   5.878   0.034 -0.3827  0.2550  0.0171
 4532W        W22056   3.078  15.741   2.707  0.1563 -0.0449 -0.0245
 4533W        W22057  17.666  11.526  15.769 -0.0186 -0.0845  0.0782
 4534W        W22058   8.117   7.740   0.689 -0.2115 -0.1045 -0.0293
 4535W        W22059   3.503   1.648   0.146 -0.0270 -0.2159  0.0833
 4536W        W22060   7.313   0.023  14.456  0.1207 -0.0455  0.1486
 4537W        W22061  17.357  12.809  15.564 -0.1612  0.1341 -0.2727
 4538W        W22062  14.458  11.214   1.917 -0.0056 -0.0463  0.3334
 4539W        W22063   7.210   8.343   3.777  0.0170  0.0977  0.1066
 4540W        W22064   6.544   6.700  13.066  0.0068  0.0832  0.2635
 4541W        W22065   3.695   9.804   2.428  0.1470  0.0298 -0.2486
 4542W        W22066  12.120   6.258   3.850 -0.0161  0.0729  0.2071
 4543W        W22067  13.011  14.895  11.463  0.1806  0.2030  0.1556
 4544W        W22068  14.471  12.850   3.058  0.1694  0.2275  0.1075
 4545W        W22069  15.042  11.989   2.842 -0.2736 -0.0966 -0.0502
 4546W        W22070   4.008  13.308   4.595  0.3587  0.1446  0.0706
 4547W        W22071   6.000   5.602  14.883 -0.0186  0.0547 -0.1573
 4548W        W22072   8.473   5.420   1.571  0.2747  0.2280  0.2287
 4549W        W22073  12.649   8.309  13.303 -0.1378  0.3083 -0.0012
 4550W        W22074  12.422   3.945   2.077 -0.2126  0.4763 -0.1211
 4551W        W22075   2.344  13.513   4.464  0.0850 -0.1049 -0.0427
 4552W        W22076  13.762  12.629  12.323  0.1613  0.0868  0.0157
 4553W        W22077  10.467   3.033   0.016 -0.0009  0.0376  0.1230
 4554W        W22078  16.072  11.846  14.295 -0.1112  0.0765 -0.0666
 4555W        W22079  10.875   3.375  13.615 -0.0493 -0.3956  0.1154
 4556W        W22080   8.959   1.722   0.870 -0.0346 -0.0308  0.1318
 4557W        W22081   6.133   5.816  15.353  0.3479  0.3976  0.0107
 4558W        W22082  17.270  15.753   2.792  0.2646  0.0412 -0.4010
 4559W        W22083  14.443  17.018   1.557 -0.4212 -0.3380  0.0501
 4560W        W22084   4.805   4.065   2.419  0.0497  0.4070 -0.1427
 4561W        W22085   7.272  18.081  16.021  0.0019  0.0537  0.2843
 4562W        W22086   4.191  16.219   3.020 -0.2092  0.0418  0.0016
 4563W        W22087   8.734  13.097  11.374 -0.2404  0.2396  0.2529
 4564W        W22088  17.006  12.238  15.005  0.0732  0.0082 -0.2140
 4565W        W22089   7.336   3.324   2.724 -0.0630  0.0418  0.1139
 4566W        W22090   0.644   6.685  15.911  0.1678  0.1392 -0.1167
 4567W        W22091  16.608   9.383  13.184  0.0537  0.3155 -0.0912
 4568W        W22092  12.462  11.412  12.107  0.0272 -0.0848 -0.1003
 4569W        W22093  11.029   1.177   4.587 -0.0896  0.0885  0.0505
 4570W        W22094  16.039  12.640  13.798  0.0358 -0.1612  0.0177
 4571W        W22095   8.876  11.815   2.362  0.0851  0.1291  0.0233
 4572W        W22096  14.055  17.106  15.046 -0.1429 -0.0665  0.0712
 4573W        W22097  13.454  12.912  15.705  0.0735  0.0552  0.2650
 4574W        W22098   1.324  14.294  13.305 -0.0861 -0.0696  0.1630
 4575W        W22099  15.108  15.578  11.603 -0.2727  0.1732 -0.0122
 4576W        W22100   3.593   4.817   2.415  0.0377 -0.0821  0.0618
 4577W        W22101   5.134   3.741  11.219  0.2334  0.3569 -0.1342
 4578W        W22102  17.724   6.547   4.004  0.0980  0.0930 -0.3280
 4579W        W22103   5.520   9.279   5.255 -0.1660 -0.1367 -0.2205
 4580W        W22104   4.892   9.597   2.635  0.1696 -0.1412 -0.2237
 4581W        W22105  11.003   4.159  16.037  0.1997 -0.3803  0.0065
 4582W        W22106   9.924   4.560   1.532  0.0908 -0.0295  0.0372
 4583W        W22107  16.074  14.221   0.568 -0.2173  0.0929 -0.0435
 4584W        W22108   7.425   2.035   0.481 -0.0104  0.1352 -0.0166
 4585W        W22109   8.928   3.158   4.153  0.1537 -0.0120  0.1350
 4586W        W22110  12.238   9.447   3.899  0.1888 -0.0829  0.0093
 4587W        W22111  17.884   3.623   0.124  0.2103  0.0289 -0.1003
 4588W        W22112   3.918  13.235  12.240 -0.0929 -0.5178  0.1445
 4589W        W22113   9.730   4.248   2.502 -0.0092 -0.0575  0.1166
 4590W        W22114  12.019  16.873  11.184  0.0283 -0.3378 -0.0039
 4591W        W22115   4.226   6.798  13.540 -0.0917  0.0819  0.0342
 4592W        W22116   1.840   6.658  15.930 -0.1074 -0.1227  0.0589
 4593W        W22117   7.207   6.776  12.956 -0.2888 -0.0330  0.0855
 4594W        W22118   7.389   4.743  14.427 -0.0050 -0.5740  0.1431
 4595W        W22119  11.177   4.655  15.962  0.0274  0.1182  0.1356
 4596W        W22120   6.425   2.287   3.707 -0.0411  0.3206 -0.1949
 4597W        W22121   2.564   7.938   2.471  0.1926  0.2604  0.1033
 4598W        W22122  11.264  15.045   4.697 -0.0344 -0.0184 -0.3843
 4599W        W22123  12.246   0.426   0.505  0.0824 -0.1807 -0.2370
 4600W        W22124   3.613  13.671   5.152 -0.3223  0.0971 -0.0404
 4601W        W22125  11.890  15.001  13.867 -0.2711 -0.2245  0.0859
 4602W        W22126   0.713   7.749  13.322 -0.2342 -0.0456 -0.1688
 4603W        W22127  11.544   7.656  14.570  0.1191 -0.1018 -0.0979
 4604W        W22128  16.389  11.904   1.389  0.0591  0.3403 -0.1862
 4605W        W22129   3.423  13.039   3.379  0.1691  0.0896  0.2229
 4606W        W22130   6.135  14.743  13.611  0.0908 -0.0389  0.1348
 4607W        W22131  11.189   0.999  12.920  0.1466 -0.0730  0.1166
 4608W        W22132   2.307   2.984  12.286  0.2828 -0.1424  0.0136
 4609W        W22133   2.618  12.335   2.845 -0.6658  0.0629 -0.3379
 4610W        W22134   3.863   6.046  11.884 -0.2240 -0.2134 -0.0923
 4611W        W22135  11.946  17.759  13.834  0.0670 -0.0839 -0.0831
 4612W        W22136   9.268  13.542   1.336  0.1077 -0.0015 -0.3077
 4613W        W22137  15.631   5.438  11.604  0.0744  0.3592  0.1438
 4614W        W22138  11.042   1.138  13.460 -0.1098  0.0210  0.0148
 4615W        W22139  12.017   4.887   2.024  0.2205 -0.1142  0.0408
 4616W        W22140   1.543   8.649  15.076  0.0226 -0.1235  0.1912
 4617W        W22141  11.300   4.838  13.337 -0.1383 -0.1482 -0.0710
 4618W        W22142  16.738  15.020  12.695 -0.1334 -0.0780  0.2325
 4619W        W22143  16.797  12.734  15.687  0.1276  0.3815  0.2456
 4620W        W22144   0.561  10.537   1.007 -0.1046  0.2268  0.0816
 4621W        W22145  10.430   1.076   1.604 -0.1844 -0.0809  0.0426
 4622W        W22146   1.360   3.081  16.015  0.0535 -0.2221 -0.0977
 4623W        W22147   2.226  14.133  14.961 -0.0206 -0.0037  0.1362
 4624W        W22148  15.462   6.388   0.184 -0.1911  0.3306 -0.0410
 4625W        W22149   3.278   1.589  14.796 -0.1990 -0.0612 -0.0372
 4626W        W22150  14.713   8.093   2.849 -0.1390  0.0657  0.1144
 4627W        W22151   2.690  16.632  13.093 -0.0019 -0.2303  0.0595
 4628W        W22152  14.247  14.915  13.879  0.0659  0.0224  0.0415
 4629W        W22153  16.196   7.791   4.020  0.0241  0.1855 -0.3997
 4630W        W22154  11.636   9.774  14.724  0.1262  0.0657 -0.3240
 4631W        W22155   3.860   8.261  14.483 -0.1376 -0.0661 -0.1531
 4632W        W22156  17.634   9.963   4.828  0.1523 -0.2117 -0.1286
 4633W        W22157   4.225  16.449   5.096  0.1470  0.1755  0.2541
 4634W        W22158   5.587  13.726  11.354  0.3121  0.2400  0.1748
 4635W        W22159   4.117   4.836  10.902 -0.1490  0.1393 -0.2017
 4636W        W22160  17.706  12.921  12.295 -0.1202  0.0226  0.1094
 4637W        W22161  15.731   8.767   2.993  0.1666 -0.0227 -0.0790
 4638W        W22162  15.814  17.387   3.930 -0.0209 -0.0947 -0.0882
 4639W        W22163  17.557   8.477  15.361 -0.1358 -0.2955  0.2582
 4640W        W22164   5.494  13.729  14.250  0.0410 -0.0476 -0.0390
 4641W        W22165  17.207  16.812   4.706 -0.2883 -0.0969  0.1737
 4642W        W22166  14.259  10.625   4.467 -0.0149  0.3541  0.1395
 4643W        W22167   6.702  12.452  12.351  0.2077  0.3087  0.1829
 4644W        W22168  12.254   5.945  11.611 -0.0016 -0.0332 -0.2615
 4645W        W22169   8.369   8.903  11.491 -0.1036 -0.3018  0.0814
 4646W        W22170  10.245   8.015  13.977  0.0371 -0.0882 -0.0209
 4647W        W22171   7.768  18.080  14.351  0.1077  0.0395 -0.2156
 4648W        W22172  12.981   2.943   0.506  0.0712  0.0253 -0.0301
 4649W        W22173   7.471   0.608   2.136  0.1114 -0.0102  0.0785
 4650W        W22174   6.015   8.351  14.074 -0.0461 -0.0629 -0.0274
 4651W        W22175   9.745   0.864  13.562  0.1583 -0.1620 -0.4512
 4652W        W22176  16.905   7.728  11.877 -0.0669  0.2481 -0.3541
 4653W        W22177  10.612   8.583  15.920 -0.0247  0.2084  0.1346
 4654W        W22178  10.575  14.312  16.013 -0.0122  0.0701  0.0086
 4655W        W22179   9.682   0.456  11.716 -0.0251  0.1463  0.1126
 4656W        W22180  16.706   5.624  13.325 -0.2901  0.1022  0.2337
 4657W        W22181   4.638   9.370  14.081  0.2695 -0.0320  0.1532
 4658W        W22182  13.810  15.157  13.854  0.0142  0.1654 -0.2423
 4659W        W22183   1.231   0.354  11.844  0.1174 -0.2675 -0.2610
 4660W        W22184  12.327  13.864  11.756  0.1050 -0.1244 -0.2993
 4661W        W22185  14.469  13.953   0.247  0.1294  0.0988 -0.2136
 4662W        W22186   2.267   2.214   2.903 -0.0635 -0.0112 -0.4429
 4663W        W22187  17.525   1.057  13.659 -0.2630 -0.1291  0.0820
 4664W        W22188  13.238   9.077  11.722  0.0810 -0.2031 -0.3857
 4665W        W22189   9.983  12.689   2.126 -0.1131  0.0835 -0.1469
 4666W        W22190  11.273  16.088   2.677  0.3963 -0.0075 -0.2298
 4667W        W22191  12.883   1.267  14.203 -0.0557 -0.3676 -0.2520
 4668W        W22192   2.867  14.722   2.801  0.1312  0.2623  0.1111
 4669W        W22193  13.391   7.872  13.081  0.1399  0.0456  0.2684
 4670W        W22194  13.165   2.971  14.270 -0.1732  0.0796 -0.1598
 4671W        W22195   5.951  13.943  15.572 -0.4445  0.3587 -0.1920
 4672W        W22196  15.922   8.448   3.336 -0.1285  0.1016 -0.1695
 4673W        W22197  11.672  12.073   3.566 -0.1727 -0.2950 -0.0633
 4674W        W22198   0.200   5.296   1.990 -0.0880 -0.1652  0.1262
 4675W        W22199   0.550   2.789  12.805 -0.0137  0.0885  0.0908
 4676W        W22200   1.496   8.598  10.390  0.0733 -0.0404 -0.1867
 4677W        W22201   7.876   0.943   2.155 -0.0030 -0.1381 -0.3172
 4678W        W22202   0.035  12.574  15.972  0.2324  0.0720 -0.1465
 4679W        W22203   8.596  12.059  12.736  0.1889 -0.1445 -0.2568
 4680W        W22204  16.605  15.405  13.246  0.2838 -0.1884  0.1654
 4681W        W22205   5.308  16.711  14.550 -0.0295 -0.2768 -0.1782
 4682W        W22206   5.307   0.706   0.108 -0.2757  0.0411  0.1108
 4683W        W22207   8.561   7.853  15.941 -0.0871 -0.1229  0.0607
 4684W        W22208  11.436   2.573  15.751  0.1301  0.2781  0.4069
 4685W        W22209  11.001   2.340  15.808 -0.0567 -0.2182  0.0931
 4686W        W22210   7.771  11.431  14.567  0.2943 -0.1123 -0.0042
 4687W        W22211   9.043   0.358  14.402  0.0220 -0.1531 -0.0482
 4688W        W22212   4.325  12.037   2.819 -0.1657 -0.1006 -0.3982
 4689W        W22213  13.312   3.774   4.491 -0.3161  0.2153 -0.0769
 4690W        W22214   0.494   3.772   1.877 -0.0467  0.2771  0.0798
 4691W        W22215   1.083  15.954   5.079  0.3426  0.2572  0.1745
 4692W        W22216  17.723   6.721   4.857 -0.1699  0.0640 -0.1725
 4693W        W22217   6.430  11.710   0.516 -0.0117 -0.1370 -0.1955
 4694W        W22218  17.328  15.389   2.329 -0.1980 -0.0062 -0.2003
 4695W        W22219  15.926  10.325   5.289 -0.0162  0.0750  0.2589
 4696W        W22220  10.989  12.959  13.046 -0.1350 -0.0302  0.3442
 4697W        W22221   0.364   5.280   4.515 -0.1886 -0.2616  0.0556
 4698W        W22222  10.106   1.006   2.785 -0.0930 -0.0284 -0.1793
 4699W        W22223  11.824  15.382   3.800 -0.1246 -0.2236 -0.2114
 4700W        W22224  17.953   5.051   0.685  0.1037 -0.0159 -0.0128
 4701W        W22225   2.426   2.019  11.203  0.0750 -0.0494  0.1863
 4702W        W22226  16.266  17.270   5.136  0.0634  0.3170 -0.2238
 4703W        W22227  16.793   6.883   4.356  0.0627 -0.2563 -0.1238
 4704W        W22228   6.428  17.043   3.449 -0.3465 -0.0817  0.2346
 4705W        W22229  12.213   0.966   4.652 -0.1284 -0.1845 -0.1054
 4706W        W22230   0.184  13.575  13.729 -0.2919 -0.2331 -0.2232
 4707W        W22231   8.484  13.622  15.200  0.2785  0.0251 -0.2434
 4708W        W22232  13.321   1.519   0.574  0.1462  0.0643  0.0465
 4709W        W22233  16.556   1.410   1.377  0.1331  0.1670  0.2620
 4710W        W22234   5.413   4.633   0.137  0.3557  0.0489  0.1819
 4711W        W22235   4.562  13.516  11.385  0.0610 -0.2418  0.1506
 4712W        W22236   5.696  13.317   0.691  0.0414 -0.0909  0.0834
 4713W        W22237  14.143   8.505   0.829 -0.1389  0.0861  0.0326
 4714W        W22238  16.321   9.400   2.536  0.0647  0.0506  0.3211
 4715W        W22239  15.448  15.261   2.763 -0.0184  0.0360  0.3095
 4716W        W22240   1.802  10.152  13.697 -0.1732 -0.0332 -0.1493
 4717W        W22241   4.960  14.109   2.230 -0.0865 -0.2608  0.0209
 4718W        W22242   0.784  12.645  12.895  0.0821 -0.0001  0.3025
 4719W        W22243  12.888  11.512  11.937  0.2964  0.1542 -0.2916
 4720W        W22244  16.008   3.065  10.851  0.0474 -0.4827  0.0244
 4721W        W22245   9.356   7.178   0.705  0.1626 -0.1164 -0.1242
 4722W        W22246   7.610   5.623  11.242  0.0789  0.1495  0.2647
 4723W        W22247   0.861   3.569   1.542 -0.1222  0.0718 -0.4631
 4724W        W22248   8.651   7.491   1.772 -0.0129 -0.2020 -0.0414
 4725W        W22249  12.682  11.294  11.409  0.0461  0.0156  0.0051
 4726W        W22250  16.090   1.903   1.821  0.0982 -0.1266  0.0313
 4727W        W22251  10.061   8.497  15.238 -0.1827 -0.2444  0.0302
 4728W        W22252  14.953   2.176  13.983 -0.0958  0.0675  0.2590
 4729W        W22253   5.961  11.501   2.662 -0.3033  0.3663 -0.0079
 4730W        W22254   5.096  11.434  15.455 -0.1993 -0.3334 -0.1322
 4731W        W22255  11.504   0.011  15.095 -0.0121  0.2106 -0.0680
 4732W        W22256   8.524  14.613   3.098 -0.3052  0.2860  0.1626
 4733W        W22257   0.720   7.723   2.598 -0.0981 -0.5429 -0.0281
 4734W        W22258   8.909   0.805   3.113  0.1318  0.0042  0.2088
 4735W        W22259   3.948  15.587  13.933 -0.2150 -0.0309  0.0581
 4736W        W22260   5.480   5.357   2.630 -0.0999  0.4042  0.3003
 4737W        W22261   2.570   2.131  13.361  0.4221  0.1669  0.0476
 4738W        W22262   3.514   9.639   0.576  0.0328 -0.4395  0.0241
 4739W        W22263   5.358   9.266   4.802 -0.2675  0.2838  0.0872
 4740W        W22264   5.677  15.602  14.436  0.1816  0.1067 -0.0271
 4741W        W22265  10.282   4.087  15.131 -0.2379 -0.0077 -0.3163
 4742W        W22266   7.189  16.011  12.478 -0.0087 -0.0011  0.0991
 4743W        W22267  14.389  13.837  12.671  0.2561  0.1430 -0.0330
 4744W        W22268  12.070   3.902   3.214 -0.2709  0.0559 -0.4514
 4745W        W22269   7.066  13.845  11.200 -0.1403  0.0832 -0.0900
 4746W        W22270   1.348  13.215   2.360 -0.0108 -0.1629 -0.0436
 4747W        W22271  16.329  15.085   4.678 -0.0369 -0.0710  0.1696
 4748W        W22272   9.848  14.878   4.617 -0.0876  0.2629 -0.2327
 4749W        W22273   2.758   0.740  14.806  0.1073  0.1964  0.0207
 4750W        W22274   8.554  13.917   4.809  0.5460 -0.1627  0.0250
 4751W        W22275  14.275  17.688  12.122  0.1981 -0.0867  0.2385
 4752W        W22276   0.176  17.619   1.452  0.0532 -0.1796 -0.2925
 4753W        W22277   7.902   7.753  11.822 -0.1447 -0.2105  0.0119
 4754W        W22278   3.527   7.978   4.277  0.0750 -0.2111 -0.2998
 4755W        W22279   6.477   8.610   2.858  0.1725  0.1593  0.0232
 4756W        W22280   9.569  14.572  13.118  0.1422 -0.0471 -0.0006
 4757W        W22281   1.490   3.456  15.679 -0.2394 -0.1518 -0.0206
 4758W        W22282   6.107   6.992   4.795  0.0215 -0.1507 -0.0843
 4759W        W22283   7.998   1.312  12.445 -0.2227  0.0876 -0.1676
 4760W        W22284   4.797  14.748  14.638  0.1817 -0.0211 -0.1139
 4761W        W22285  12.210   1.566   5.269 -0.0044 -0.3393 -0.0770
 4762W        W22286  10.960  12.621  11.761 -0.1616  0.3514 -0.2872
 4763W        W22287  11.157   4.912  12.855  0.2122 -0.0414 -0.2023
 4764W        W22288  13.827  17.854  12.455 -0.0198 -0.1110  0.0426
 4765W        W22289  11.999   2.005  12.059 -0.1595 -0.0590 -0.0790
 4766W        W22290   5.746  15.497  15.058  0.1074  0.1737 -0.0819
 4767W        W22291  12.586   6.001  11.955 -0.4269 -0.4079  0.1860
 4768W        W22292   0.582  14.304  15.129 -0.1263  0.0910  0.2207
 4769W        W22293   6.610  14.834  13.831  0.0621 -0.2146 -0.1218
 4770W        W22294   9.234  18.049  13.686 -0.0892 -0.1214  0.3170
 4771W        W22295  13.115   5.792  15.973 -0.1857  0.1550 -0.0892
 4772W        W22296  14.656   4.490   2.247  0.0399 -0.1962  0.0670
 4773W        W22297   0.499   1.057  14.224  0.4849 -0.0754 -0.3112
 4774W        W22298   1.117  10.388  11.001  0.1947  0.4095 -0.1153
 4775W        W22299  16.133   7.738   0.209 -0.0412  0.2994 -0.1047
 4776W        W22300   5.175  13.100  11.636 -0.1741  0.2435 -0.0313
 4777W        W22301   3.044  14.387  13.393 -0.0365 -0.0411  0.0912
 4778W        W22302  11.091   0.118   1.488  0.0407 -0.0523 -0.1852
 4779W        W22303   2.370   1.744   5.441 -0.1733  0.0181  0.0465
 4780W        W22304   8.080  16.824   2.724  0.1756  0.0430 -0.1850
 4781W        W22305   5.155  10.473   3.896 -0.2301  0.0182  0.1361
 4782W        W22306  13.222   9.699   2.424 -0.1034 -0.0025  0.0245
 4783W        W22307   3.769   6.683   3.901  0.1448 -0.2731  0.2027
 4784W        W22308   5.442  11.497  11.794 -0.0508 -0.1786  0.2132
 4785W        W22309   4.595  14.089   3.867  0.0474 -0.1896  0.0701
 4786W        W22310   1.914   0.610   5.096  0.2162  0.1245  0.0616
 4787W        W22311  11.414  15.673   3.873  0.0990 -0.0940  0.0799
 4788W        W22312   6.606   5.126  10.391  0.1251 -0.0018 -0.0382
 4789W        W22313   9.969  15.520   4.830 -0.0429  0.0117 -0.3324
 4790W        W22314   0.996  16.757   0.122  0.1134 -0.1735  0.0378
 4791W        W22315   5.665   4.337  13.779  0.3189 -0.5102 -0.1282
 4792W        W22316   8.512   5.022   3.237 -0.3172 -0.1494  0.0472
 4793W        W22317  16.840  12.830   4.530  0.1820 -0.1117 -0.0931
 4794W        W22318   3.941  10.611  14.509 -0.0395  0.0393 -0.0548
 4795W        W22319   8.015   5.983  15.173 -0.2526  0.0239  0.3861
 4796W        W22320   1.800   2.890  14.064 -0.0797  0.0271 -0.2001
 4797W        W22321   7.578   7.097   4.294  0.2100 -0.1221 -0.0987
 4798W        W22322  12.102   2.366  14.122 -0.0100 -0.0885  0.0553
 4799W        W22323   2.947   9.689   3.064  0.1598  0.2715  0.0215
 4800W        W22324  17.224  10.005  13.723 -0.0083  0.0333  0.3545
 4801W        W22325  16.930  17.917   0.925 -0.1095  0.2328  0.1137
 4802W        W22326   7.285   3.747   1.813 -0.0246  0.1263  0.1028
 4803W        W22327  12.493   9.225   1.767  0.0655 -0.1969  0.2669
 4804W        W22328  18.072   6.078  12.356  0.0319  0.0799 -0.2454
 4805W        W22329   1.061   1.664   5.560  0.2432 -0.0535  0.1368
 4806W        W22330   6.461  13.775  15.783 -0.4700  0.2926  0.1740
 4807W        W22331  14.403  12.904   2.062 -0.2671 -0.3168  0.1584
 4808W        W22332   6.914  16.898   4.714  0.0320 -0.0291 -0.3156
 4809W        W22333   7.606   3.358   4.347  0.0439  0.0049 -0.1378
 4810W        W22334  13.235  12.880   4.489  0.3426  0.1542  0.0133
 4811W        W22335   0.738  15.082  15.261  0.0970 -0.0739  0.2569
 4812W        W22336  17.400  11.417  15.320  0.0408 -0.0901  0.0084
 4813W        W22337   9.879  16.255   1.365 -0.0761 -0.1183  0.2423
 4814W        W22338   0.491   7.708   1.854 -0.3642 -0.2251 -0.0350
 4815W        W22339  15.239  15.934  15.097  0.6037  0.4634 -0.0372
 4816W        W22340   0.105  10.981   4.914  0.1155 -0.0973  0.2357
 4817W        W22341   5.917   3.280  15.236 -0.0362  0.0205 -0.0926
 4818W        W22342   1.321   6.148  11.419 -0.1444 -0.0138  0.2110
 4819W        W22343   9.512  15.965   0.083  0.0311  0.0797  0.3229
 4820W        W22344  17.195   5.117   0.886 -0.0490  0.1962 -0.0544
 4821W        W22345  15.498  16.014  13.330 -0.0849  0.2205 -0.1033
 4822W        W22346  11.212   0.779   0.569 -0.0792 -0.0843 -0.0484
 4823W        W22347   3.339   1.085  12.781 -0.2028  0.0689  0.2318
 4824W        W22348   1.948   3.723  12.308  0.3411 -0.2167  0.2067
 4825W        W22349  11.005  14.785  15.678 -0.2979 -0.0842 -0.2148
 4826W        W22350   6.782   6.763   1.404  0.1155 -0.2453 -0.1067
 4827W        W22351  10.743   7.788  11.866 -0.0521  0.0039 -0.1265
 4828W        W22352  11.592   3.780  14.877  0.0790  0.2536 -0.1091
 4829W        W22353  15.937   2.414   0.745 -0.3550  0.2261 -0.1087
 4830W        W22354   3.531  17.770  14.578 -0.1558 -0.0083 -0.1734
 4831W        W22355  13.527  10.554   5.277  0.2212 -0.2043 -0.2396
 4832W        W22356   7.776   9.868  13.707 -0.1272 -0.0536  0.1057
 4833W        W22357  14.518  17.533   3.776 -0.0713  0.0238 -0.2536
 4834W        W22358  12.212   0.427  12.284  0.1483  0.2150  0.0275
 4835W        W22359  13.856   3.325   5.926  0.3824 -0.0916  0.2371
 4836W        W22360  17.067   4.964   3.169  0.0871  0.0242  0.2116
 4837W        W22361  17.533   4.175  14.799  0.2047 -0.1335  0.0884
 4838W        W22362  15.809  16.050  14.318  0.2871  0.1293 -0.1278
 4839W        W22363   2.996  17.076  13.478 -0.0669  0.0986 -0.1257
 4840W        W22364   5.777  14.093  12.211 -0.2185 -0.0040 -0.0306
 4841W        W22365   7.861  13.051   3.667  0.2782  0.1123  0.2319
 4842W        W22366   7.045  14.517   3.993  0.3075 -0.0570 -0.2268
 4843W        W22367   9.387  10.190   3.102 -0.1278  0.2263 -0.2151
 4844W        W22368  13.476   7.020  12.558 -0.0167 -0.2520  0.1818
 4845W        W22369  12.029   1.373   4.884  0.0911 -0.1446  0.1207
 4846W        W22370   2.542  15.686   1.816  0.2202 -0.1430  0.1998
 4847W        W22371   5.897   8.567  11.799 -0.1450 -0.1063 -0.1075
 4848W        W22372   5.279  13.480  12.054 -0.0539 -0.0840 -0.1299
 4849W        W22373  11.649  16.161  15.599  0.0927  0.0454 -0.2418
 4850W        W22374   7.071  13.155   1.430  0.0581  0.4489 -0.3067
 4851W        W22375   9.218  16.462  11.160 -0.2144 -0.1634 -0.0308
 4852W        W22376   5.567  12.601  12.810 -0.3653  0.1630 -0.0061
 4853W        W22377  17.185   4.432  11.617 -0.1268 -0.1573 -0.0971
 4854W        W22378  13.941  14.355  12.155 -0.0197 -0.2417  0.1289
 4855W        W22379   1.990  13.819  14.239 -0.0282 -0.1763  0.1735
 4856W        W22380  12.226  15.418  12.009 -0.0477  0.1636  0.1222
 4857W        W22381   1.530  13.493   3.797  0.0869 -0.2278  0.1407
 4858W        W22382  14.662   2.086   1.388 -0.0407  0.1039  0.0848
 4859W        W22383   4.414   1.869   0.255  0.0039 -0.1716 -0.0329
 4860W        W22384   2.638   4.683  15.748 -0.3939  0.0402 -0.1480
 4861W        W22385  10.858   6.627  13.882 -0.0112 -0.0983 -0.1148
 4862W        W22386   5.750   4.411   2.570  0.0993  0.2496  0.1481
 4863W        W22387   6.742  16.190   5.054  0.0612  0.2316 -0.1881
 4864W        W22388   5.079  17.413   3.463 -0.1619 -0.0773 -0.1304
 4865W        W22389   4.384  17.449   5.158 -0.3821 -0.1390 -0.1235
 4866W        W22390  16.493   7.832  14.140  0.1151  0.1213 -0.1242
 4867W        W22391   3.196   7.994   3.157 -0.0166 -0.2163 -0.1916
 4868W        W22392  13.488  16.484  11.810  0.0603  0.0776  0.0733
 4869W        W22393   7.611   8.194   4.128 -0.0229  0.2819 -0.0900
 4870W        W22394  11.403   2.383  13.020  0.0287  0.3463  0.0893
 4871W        W22395  15.785   9.346  15.147  0.0092 -0.1161 -0.0642
 4872W        W22396   3.543   6.945   1.793  0.2496  0.2691  0.2147
 4873W        W22397  17.483  12.935   1.962 -0.0899  0.0397 -0.1947
 4874W        W22398   6.728   0.570  14.067  0.3361 -0.1741 -0.0284
 4875W        W22399   1.796   4.470   4.510 -0.1849 -0.0894 -0.1794
 4876W        W22400  17.812  14.029   3.098 -0.0682  0.0278 -0.0034
 4877W        W22401  14.532  15.813  15.893 -0.2102 -0.1540 -0.0233
 4878W        W22402   4.176  14.045   1.589  0.0449 -0.0698 -0.1954
 4879W        W22403   3.012   5.020  13.299  0.0063 -0.0267  0.0583
 4880W        W22404  11.667  10.629   5.365 -0.1418  0.2397  0.1178
 4881W        W22405  12.431   6.616   3.072 -0.0667 -0.2680  0.0351
 4882W        W22406   1.360   7.114  12.853 -0.0106 -0.0860  0.0024
 4883W        W22407   2.518   2.551   2.641 -0.2880 -0.0443  0.4602
 4884W        W22408   5.113  11.662  11.208 -0.0182  0.0430 -0.0267
 4885W        W22409   7.640  12.159  14.747  0.0364 -0.0413  0.1287
 4886W        W22410   1.269  11.688  13.867  0.1754 -0.2547  0.3614
 4887W        W22411   0.619  18.137  14.328 -0.0007 -0.0895  0.2056
 4888W        W22412   6.889  10.116   2.714  0.0872 -0.0191 -0.2024
 4889W        W22413   1.304  11.205  12.015  0.0555 -0.2253 -0.1314
 4890W        W22414  15.977  17.187  14.973 -0.2909 -0.3197 -0.0442
 4891W        W22415  14.999   2.910  12.506 -0.3031 -0.1026 -0.2489
 4892W        W22416   7.373  11.182   4.497 -0.0130  0.0035 -0.1309
 4893W        W22417   6.010   5.461   1.927 -0.0374  0.0641 -0.1339
 4894W        W22418  14.357   7.416  14.381  0.2138 -0.1692  0.1746
 4895W        W22419   3.170  14.650   2.447 -0.4148 -0.2150  0.2277
 4896W        W22420   5.040  14.823   2.420  0.1178 -0.0004  0.1428
 4897W        W22421   0.230   3.219   0.651 -0.0405 -0.0600 -0.0415
 4898W        W22422   9.893   0.403  15.509  0.0146 -0.1256  0.1183
 4899W        W22423   6.337  15.944   2.394  0.0267  0.0859  0.3489
 4900W        W22424  14.766   0.700  12.003  0.0112  0.0573  0.1149
 4901W        W22425   5.308   1.543  15.531  0.1322  0.0045 -0.0826
 4902W        W22426  17.517  10.951   5.083 -0.1112  0.0399 -0.0671
 4903W        W22427   1.071   8.219  11.820 -0.0111 -0.3159  0.0918
 4904W        W22428  11.274  11.629   0.089  0.1916  0.1808 -0.0253
 4905W        W22429  14.812  16.407  11.640  0.1560  0.1372 -0.3774
 4906W        W22430  17.923   6.974   0.339  0.0545  0.0165  0.0824
 4907W        W22431   9.647  10.296   3.565  0.2552  0.1048  0.1044
 4908W        W22432  12.701   5.846  15.231 -0.3067  0.1841  0.1906
 4909W        W22433   8.931   9.188   1.477 -0.0945  0.0066  0.2077
 4910W        W22434   4.246   2.508  15.523 -0.0016  0.0079 -0.2893
 4911W        W22435   7.441   7.957   0.721 -0.0214 -0.3117 -0.1971
 4912W        W22436  10.461  10.407  13.882 -0.2478  0.0603  0.2616
 4913W        W22437  17.702  13.290   4.274  0.0805  0.1308 -0.0114
 4914W        W22438   4.610   9.081   4.152  0.2255  0.3303 -0.2451
 4915W        W22439   1.793   5.001   3.144 -0.0185 -0.2614  0.1081
 4916W        W22440   5.549   7.154  11.709  0.0029  0.1713  0.1302
 4917W        W22441  11.508   0.868  11.273  0.2585  0.0933  0.3065
 4918W        W22442  17.363   1.966  13.204 -0.1928 -0.1539 -0.0724
 4919W        W22443  15.207  12.895   5.177  0.2088 -0.2070 -0.2178
 4920W        W22444   6.316   5.225   2.827 -0.0968 -0.0352  0.1427
 4921W        W22445  10.785   2.356   1.732 -0.1744  0.2278  0.0083
 4922W        W22446   4.253   2.630   0.797  0.0498 -0.0098 -0.3323
 4923W        W22447  15.192  17.713   1.184 -0.1534 -0.0697  0.0122
 4924W        W22448  11.535   8.121   2.676  0.1830 -0.2605  0.0704
 4925W        W22449   5.875  17.979  11.190 -0.4270  0.0375  0.0947
 4926W        W22450   3.757  14.542   2.190 -0.0979 -0.0649  0.0305
 4927W        W22451  16.114   3.862  15.667  0.0664  0.0961  0.1160
 4928W        W22452   2.607  10.926  15.656 -0.1182  0.2611 -0.0384
 4929W        W22453   5.847  14.201   2.407 -0.4933  0.0869  0.1440
 4930W        W22454   1.110  18.011   0.044  0.0336  0.0439 -0.0510
 4931W        W22455   9.062   9.566  11.833  0.1135  0.1291  0.2542
 4932W        W22456  16.440   7.598  13.009 -0.4377 -0.0189 -0.1002
 4933W        W22457   7.301   1.324   1.495 -0.3652  0.0984  0.0264
 4934W        W22458  16.973   0.614   4.242 -0.1802 -0.2099  0.1457
 4935W        W22459  17.130   6.396  13.554 -0.0791  0.1226  0.0174
 4936W        W22460  11.939  15.811  12.204 -0.3919 -0.2030 -0.1713
 4937W        W22461  10.197  12.645   2.881  0.4117 -0.1692 -0.0330
 4938W        W22462  15.055   1.159  13.452 -0.2658 -0.0180 -0.0430
 4939W        W22463  10.944   2.847  13.464  0.1748 -0.0385 -0.3996
 4940W        W22464  16.644   5.363  14.211  0.0909 -0.1081 -0.1038
 4941W        W22465   6.181  12.634   2.452 -0.2309  0.0140 -0.0066
 4942W        W22466   1.068  13.966  14.618  0.1042 -0.2553  0.3429
 4943W        W22467   3.388  11.804  10.966  0.0160  0.1247 -0.1663
 4944W        W22468   0.128   4.248   0.688  0.0791  0.2357  0.2398
 4945W        W22469   9.988  14.769  14.841 -0.0700  0.3744  0.1378
 4946W        W22470   9.543   4.507  12.063  0.3894  0.1609  0.1765
 4947W        W22471  15.683   6.556  14.931 -0.1023 -0.3491  0.0964
 4948W        W22472   6.610   3.512  15.679 -0.0223  0.1630 -0.2618
 4949W        W22473   4.039  10.365  13.965  0.1173  0.0839 -0.0096
 4950W        W22474   9.644  16.091  14.464  0.0535 -0.1329 -0.1468
 4951W        W22475   1.753  14.028  14.779  0.0061 -0.2631  0.1555
 4952W        W22476  14.745  15.035  13.951  0.0365  0.1401  0.0356
 4953W        W22477   8.804   8.329   0.595  0.0607  0.0204 -0.1420
 4954W        W22478   4.098   5.635  15.414  0.0523 -0.1865 -0.1111
 4955W        W22479   6.477   7.364  15.942  0.3191  0.0471 -0.1480
 4956W        W22480  15.846   6.958  13.293  0.4814 -0.0842  0.1086
 4957W        W22481  12.347   7.203   3.837 -0.1930 -0.2215  0.0434
 4958W        W22482   1.193   8.183  14.208  0.2657 -0.0859 -0.4376
 4959W        W22483   0.500  11.306  11.033 -0.2508 -0.2780 -0.1314
 4960W        W22484  17.197   6.309   0.903 -0.2186 -0.0821  0.0959
 4961W        W22485   4.938  14.189  11.732  0.0298 -0.1381  0.1403
 4962W        W22486  10.586   1.336  15.200 -0.1098 -0.0457 -0.5047
 4963W        W22487  18.024  15.653  12.739  0.0232  0.1071  0.2943
 4964W        W22488   6.617   9.572   2.904  0.2601  0.0249 -0.1859
 4965W        W22489  13.359  16.367   3.688 -0.1418  0.3029  0.1301
 4966W        W22490   6.124   8.334  12.763  0.0710 -0.0861  0.0515
 4967W        W22491  14.950   6.532   3.153 -0.1693 -0.2524 -0.1296
 4968W        W22492   5.088   7.700  14.506  0.0256  0.0141 -0.1135
 4969W        W22493  11.531   9.440   2.182  0.0145 -0.0855 -0.2610
 4970W        W22494   1.891   8.148  14.551  0.0484 -0.1762 -0.0240
 4971W        W22495  13.210  17.465   1.714  0.1552  0.0645 -0.2464
 4972W        W22496  13.288  17.318   5.054  0.1924  0.0250  0.0106
 4973W        W22497  16.968   8.042   0.002  0.0037  0.0353 -0.1366
 4974W        W22498   7.533  13.982  12.185  0.0820  0.1129 -0.1153
 4975W        W22499  10.009  18.020  14.757  0.1411 -0.0346  0.1055
 4976W        W22500   6.183   0.647   0.949 -0.1078 -0.1820 -0.1637
 4977W        W22501  15.132  10.579   2.970  0.0766 -0.1392  0.1990
 4978W        W22502  17.747  16.067   1.820  0.1941  0.1721 -0.1393
 4979W        W22503  10.238   9.522  13.023 -0.1459 -0.1388 -0.1424
 4980W        W22504   5.948  15.213  12.077 -0.2719 -0.1262 -0.1138
 4981W        W22505   4.921   4.903   2.887 -0.0260 -0.3328 -0.0965
 4982W        W22506  16.062   9.661   3.970 -0.2141  0.0597  0.1454
 4983W        W22507   4.047  11.130   0.558 -0.2095  0.0202  0.2268
 4984W        W22508  17.233   7.130   1.881  0.0595 -0.2226 -0.0801
 4985W        W22509   8.234   7.138  16.025 -0.0129 -0.2575 -0.0693
 4986W        W22510   5.194  14.625  10.951  0.2026  0.0841  0.0858
 4987W        W22511  14.158   6.011   2.611  0.0104 -0.3300 -0.2285
 4988W        W22512  17.013   2.959   4.246 -0.3528 -0.0871  0.1206
 4989W        W22513   1.649   7.985   1.173  0.2045 -0.0283  0.0138
 4990W        W22514  17.687   5.985   0.518  0.0494  0.3046  0.0549
 4991W        W22515   8.500   1.736  15.556  0.1675 -0.1344  0.0335
 4992W        W22516  12.010   7.464  11.236  0.0296 -0.2525 -0.0781
 4993W        W22517   2.851   6.490  12.511 -0.0981 -0.0098  0.1513
 4994W        W22518   9.885  15.361   1.700 -0.0265  0.2475 -0.1208
 4995W        W22519  12.055  16.501  14.636  0.0272  0.2057 -0.0668
 4996W        W22520  15.064   5.257   2.244  0.0822  0.2921 -0.1631
 4997W        W22521  11.975   0.350  12.878 -0.2153  0.1529  0.1038
 4998W        W22522   7.624   2.378  13.166  0.1436  0.1268  0.3447
 4999W        W22523   5.671  12.613  13.286  0.2038  0.1198  0.1001
 5000W        W22524  10.113  16.494  11.210  0.1113 -0.0906  0.0269
 5001W        W22525  16.113   9.556  12.868 -0.1272  0.0540  0.1431
 5002W        W22526  10.087  14.087   3.033  0.0982 -0.1057  0.1047
 5003W        W22527  14.310   4.077  12.338  0.0346  0.1459  0.0664
 5004W        W22528   0.890  17.028  13.938  0.2832 -0.3300  0.1786
 5005W        W22529   3.356   9.190   0.387  0.1987  0.1505 -0.1254
 5006W        W22530   8.346   6.395  15.247  0.0704 -0.1565  0.0123
 5007W        W22531   3.731   3.855   2.114  0.0471 -0.2517 -0.0720
 5008W        W22532   0.893  14.695  14.137 -0.1534  0.0219 -0.0858
 5009W        W22533   1.111   4.675  12.595 -0.2649  0.3472 -0.0531
 5010W        W22534   3.380   9.558  10.411 -0.1795  0.1021  0.1301
 5011W        W22535   3.913  15.107  10.886 -0.1863  0.0224  0.1286
 5012W        W22536   3.182   8.199  14.979  0.0491 -0.1210 -0.2976
 5013W        W22537   2.653   8.122  11.927 -0.0796 -0.3260 -0.0177
 5014W        W22538  11.034  14.342  13.908 -0.2199  0.1393  0.3058
 5015W        W22539   6.982   9.917  13.738 -0.1505  0.1567 -0.0363
 5016W        W22540   4.198   6.200  15.467  0.2821  0.1781  0.0824
 5017W        W22541   7.817   8.328  13.175 -0.2181 -0.2014  0.1200
 5018W        W22542   3.775   8.009   1.930 -0.0069  0.2523 -0.1547
 5019W        W22543  13.688  10.225  13.077  0.0260 -0.1351 -0.0566
 5020W        W22544   7.811  13.974   2.405  0.1071 -0.1853  0.1056
 5021W        W22545  16.355  10.911   2.422  0.0809 -0.2175  0.2002
 5022W        W22546   7.611   7.124  11.314  0.0849 -0.0400 -0.0429
 5023W        W22547  14.760  15.733  12.556 -0.1116  0.3255  0.0526
 5024W        W22548  12.801  15.699  10.849 -0.1416 -0.0716 -0.0915
 5025W        W22549   7.016  16.942  13.482  0.0433 -0.0924 -0.1659
 5026W        W22550   3.655  13.081   4.274  0.0967 -0.1789  0.3438
 5027W        W22551  12.237  13.552   1.808 -0.2196 -0.0419  0.0698
 5028W        W22552   6.555   3.315   1.442  0.0500  0.0268 -0.1318
 5029W        W22553  16.649   6.885  15.220  0.1149 -0.0864 -0.0188
 5030W        W22554   5.781  10.578  12.995 -0.0693  0.2162  0.0193
 5031W        W22555  14.220  13.051  11.443  0.0786 -0.2783 -0.2450
 5032W        W22556  14.128  12.205  15.356  0.1981 -0.1350  0.0800
 5033W        W22557   6.949   0.320   0.170  0.1918 -0.0121  0.2101
 5034W        W22558   6.738  17.587   0.509  0.0813  0.0427 -0.0279
 5035W        W22559  15.220   2.719   1.252 -0.0766  0.1143 -0.2047
 5036W        W22560   6.663  15.439   3.284  0.0515  0.3354 -0.2445
 5037W        W22561   5.339   5.887   2.620 -0.0690  0.1132 -0.1574
 5038W        W22562   2.658   8.165   4.995  0.0748 -0.3082  0.0654
 5039W        W22563   6.887   6.614  15.522  0.0827  0.3873 -0.0646
 5040W        W22564   0.334  10.901  14.619  0.2139  0.1696 -0.0048
 5041W        W22565   8.777   0.978  11.348 -0.1569  0.0008  0.0597
 5042W        W22566   1.713  17.686  12.820 -0.0924  0.1311  0.0724
 5043W        W22567   1.857  10.570  15.825 -0.1041  0.3377 -0.1618
 5044W        W22568   9.314   4.303  14.365 -0.0927 -0.1235  0.1331
 5045W        W22569  16.582   8.647   3.235 -0.1588  0.2363 -0.3904
 5046W        W22570   2.823  17.583   4.688 -0.1473  0.3250 -0.2667
 5047W        W22571   9.993  15.005  15.801 -0.0721  0.1122  0.1959
 5048W        W22572   9.996   3.008  11.068 -0.2402  0.1422  0.2977
 5049W        W22573   1.024   6.187   0.897 -0.1939 -0.1626 -0.2622
 5050W        W22574   3.663  16.509   2.128 -0.0909  0.1331  0.1318
 5051W        W22575  13.742   7.014   4.827 -0.0211  0.1765 -0.1597
 5052W        W22576   6.864  12.926  13.755 -0.0714 -0.2659 -0.0247
 5053W        W22577   1.819  11.205   4.033  0.0725  0.0987 -0.1581
 5054W        W22578   4.532   4.641   2.690  0.1396  0.0648 -0.1250
 5055W        W22579   4.115  17.320   3.572  0.1423 -0.0137  0.0236
 5056W        W22580   5.134  10.520  12.508  0.0193 -0.2966 -0.1831
 5057W        W22581  12.441  12.031  11.949  0.1459  0.0677  0.0497
 5058W        W22582  17.530   6.615  13.511 -0.0016 -0.0414  0.2851
 5059W        W22583   9.330  11.795  11.657 -0.0838  0.1093  0.0615
 5060W        W22584   7.100   3.343  13.692 -0.0457  0.1184 -0.3844
 5061W        W22585   8.761   5.357   4.440  0.0708 -0.4171 -0.0125
 5062W        W22586  13.146  14.619  14.570 -0.0881  0.0633  0.2241
 5063W        W22587   3.953   7.812   0.318  0.0470  0.0220  0.2291
 5064W        W22588   1.980  16.577  14.289  0.3094 -0.0218  0.1386
 5065W        W22589   9.423   4.994   0.719  0.1402  0.1577  0.0487
 5066W        W22590   4.440   3.152   1.948  0.2004  0.0165 -0.1762
 5067W        W22591  16.036   5.858  12.978  0.3835 -0.0465 -0.0379
 5068W        W22592  11.926  14.669  11.994  0.2033 -0.2596 -0.0468
 5069W        W22593   7.164  12.442   1.237 -0.0723  0.4748 -0.0543
 5070W        W22594   6.090   8.126   2.016 -0.3428  0.0012  0.0305
 5071W        W22595  17.298   3.899  11.476 -0.1606  0.1293  0.2309
 5072W        W22596   1.358  12.764   5.319  0.3613  0.0682  0.4517
 5073W        W22597   9.036   2.124  14.728  0.3314  0.0852 -0.0820
 5074W        W22598   3.742   0.001   0.843 -0.2788  0.0395  0.2139
 5075W        W22599  12.702   9.741  13.951  0.3042 -0.3062 -0.1528
 5076W        W22600   8.592   3.925   0.189  0.0361  0.1359 -0.0277
 5077W        W22601   8.319   8.370   3.378 -0.0909  0.0834 -0.1667
 5078W        W22602   7.980  13.938  12.064  0.0978  0.2257 -0.3191
 5079W        W22603   1.907   2.698  12.465  0.3217 -0.0397  0.4052
 5080W        W22604   0.808   3.149   5.012  0.0308  0.1156  0.4287
 5081W        W22605   3.010   2.436   2.695 -0.0124  0.3409  0.1817
 5082W        W22606  16.779   2.139  14.912 -0.0575 -0.2581 -0.2391
 5083W        W22607  13.080  17.000  13.413  0.1331 -0.4130 -0.0186
 5084W        W22608  15.686   5.070  11.985 -0.1181 -0.1998 -0.2506
 5085W        W22609  17.197  14.566  13.151 -0.2727  0.1929  0.0200
 5086W        W22610   5.995  12.177   1.952  0.0264  0.1035  0.0745
 5087W        W22611  11.527   1.717  15.192  0.2904  0.2909 -0.0172
 5088W        W22612  12.029   5.535   0.038 -0.2413  0.1059  0.0099
 5089W        W22613   1.029  10.597   1.044 -0.2626 -0.0511  0.0362
 5090W        W22614   5.055   0.085  12.186 -0.0681 -0.1284 -0.1441
 5091W        W22615  11.253   7.964  13.716 -0.1896  0.1820 -0.0740
 5092W        W22616   3.291  16.193   2.870 -0.1571 -0.1733  0.0695
 5093W        W22617   0.614  18.122  12.221  0.0515  0.0047  0.1817
 5094W        W22618  18.021   4.867  14.511  0.1282  0.1056 -0.2942
 5095W        W22619  13.074  15.339   3.804 -0.4434  0.2591 -0.0467
 5096W        W22620   5.921   5.240  12.057  0.0522 -0.0486 -0.0899
 5097W        W22621  12.226   7.604   3.639 -0.1175 -0.0501 -0.3509
 5098W        W22622   6.571  12.363   4.245  0.0617  0.1197  0.2668
 5099W        W22623  14.953  13.414   5.173 -0.2696 -0.0215  0.0485
 5100W        W22624   7.232   0.047   3.191 -0.0012  0.1498  0.2331
 5101W        W22625  12.663  17.067  12.217 -0.0721 -0.2183  0.1579
 5102W        W22626  12.821   0.377   0.909  0.1216 -0.1224 -0.2671
 5103W        W22627   7.803   3.811   1.720 -0.3189 -0.2052  0.1000
 5104W        W22628   5.140  14.621  13.756  0.0964  0.2269  0.0621
 5105W        W22629   1.704  11.897   2.523 -0.0700 -0.2116  0.0834
 5106W        W22630  15.683  15.306  12.312  0.0757  0.1233 -0.0915
 5107W        W22631   7.145  14.824  11.643  0.2128  0.0306 -0.0002
 5108W        W22632   4.019   1.124   4.721 -0.3383  0.0518 -0.1289
 5109W        W22633  11.455   4.960   1.863  0.1046  0.0065  0.2997
 5110W        W22634   0.854   5.449  11.567 -0.1061 -0.1361  0.2910
 5111W        W22635  11.547   0.014  12.219 -0.0699 -0.1543 -0.0031
 5112W        W22636   6.444  17.609  12.514 -0.0200 -0.0340  0.3239
 5113W        W22637   3.877   5.064  13.297  0.2427  0.0508  0.0231
 5114W        W22638   2.636  13.507   1.996 -0.0149 -0.0555 -0.2804
 5115W        W22639   8.266   6.090  13.206 -0.1777  0.2474  0.0930
 5116W        W22640  11.393   8.506  15.130  0.0337 -0.1925  0.3361
 5117W        W22641   2.309   3.502  15.376  0.0891 -0.3023 -0.0058
 5118W        W22642   3.880  14.058  14.083  0.0296 -0.2378 -0.3524
 5119W        W22643   6.859   3.977  13.644  0.0307 -0.0002  0.5263
 5120W        W22644   8.257   6.352   0.424 -0.0276 -0.0994 -0.2276
 5121W        W22645  12.589  14.051   2.297 -0.0773  0.2738 -0.2066
 5122W        W22646   9.318  14.718  12.088  0.0071 -0.2049  0.5159
 5123W        W22647   5.824   3.990  13.388  0.0717  0.1367  0.3028
 5124W        W22648  10.142   6.369  15.943 -0.1615 -0.0911  0.1389
 5125W        W22649   8.855  17.735   2.023 -0.3829  0.0825 -0.0786
 5126W        W22650  16.430   0.748  15.616 -0.2365 -0.0306 -0.1611
 5127W        W22651   7.536   8.238  10.713 -0.0671 -0.3387 -0.2389
 5128W        W22652   6.180   9.490   1.618  0.2262 -0.3803 -0.2477
 5129W        W22653  13.145   6.532  14.313  0.1065  0.0717  0.1684
 5130W        W22654   3.797   5.973   4.864 -0.2033  0.1515 -0.2900
 5131W        W22655   9.777   1.657   3.929  0.3649 -0.1422  0.0878
 5132W        W22656  17.603   1.710   3.835  0.1011  0.1348  0.2319
 5133W        W22657  14.198  12.897  13.157  0.3580  0.2342 -0.2381
 5134W        W22658   4.004   7.320  12.720  0.0570  0.2335  0.1828
 5135W        W22659  15.203  12.187   1.875  0.0991 -0.0947 -0.0726
 5136W        W22660  17.201   1.378  15.924 -0.3353 -0.0205  0.1636
 5137W        W22661  16.331   6.911   2.996  0.1101  0.3339  0.0554
 5138W        W22662  15.423  10.560  15.497  0.2051  0.0467  0.1230
 5139W        W22663   3.844  15.054   0.790 -0.0990  0.0537  0.0042
 5140W        W22664  15.000  14.291   3.074  0.0286 -0.0643  0.2232
 5141W        W22665   6.492   3.075   3.984  0.1460  0.0316 -0.1085
 5142W        W22666  11.496   7.432   3.974 -0.1554  0.0575 -0.2406
 5143W        W22667   6.428   9.980   0.936 -0.0421  0.0096 -0.1941
 5144W        W22668  17.057   4.226   4.001  0.0151 -0.2998 -0.0248
 5145W        W22669   1.137  10.351   5.831  0.2328  0.1152  0.1849
 5146W        W22670  16.646  12.901   2.934 -0.1317  0.0650 -0.1585
 5147W        W22671  16.163   1.238  11.778  0.1018 -0.1311  0.0790
 5148W        W22672   4.977  17.815   2.519 -0.0114 -0.1706  0.0510
 5149W        W22673   5.484   0.485  12.079 -0.2492 -0.1412 -0.0718
 5150W        W22674  12.832  11.558   1.617  0.0652 -0.0336 -0.0157
 5151W        W22675   6.236   8.288   0.115 -0.0179 -0.1049  0.0799
 5152W        W22676  15.929   1.704   2.979  0.0792  0.1818  0.0031
 5153W        W22677  15.069  11.804   0.902 -0.1480  0.1312  0.0434
 5154W        W22678   3.924   7.121  13.157  0.0680 -0.1293 -0.0011
 5155W        W22679   5.264  12.334   3.444  0.2249 -0.0610  0.0678
 5156W        W22680   4.019  10.357   4.122  0.1067 -0.0810  0.1022
 5157W        W22681   9.589   4.807  13.670  0.0244 -0.2459  0.2151
 5158W        W22682  10.232   3.468   2.260 -0.0667  0.3359 -0.0830
 5159W        W22683   8.866   9.458   2.209 -0.3279  0.0442 -0.1317
 5160W        W22684   1.798  12.499   0.750  0.1375  0.1747  0.1445
 5161W        W22685  16.457  10.086   0.853  0.1013 -0.1132  0.2371
 5162W        W22686   6.518   5.706  10.720 -0.1415  0.0767  0.2796
 5163W        W22687   7.820  12.785   2.744 -0.1064 -0.0523 -0.1949
 5164W        W22688   5.191  16.194  11.002 -0.2130  0.0193  0.2324
 5165W        W22689   6.716  10.445   5.454  0.4950  0.2270  0.0009
 5166W        W22690  15.705  15.852   2.421 -0.0723  0.0835  0.0907
 5167W        W22691  13.466  13.390   3.607  0.0334 -0.0795 -0.2491
 5168W        W22692   4.647  14.973   3.547  0.2205  0.1065 -0.3635
 5169W        W22693   2.606   5.453  11.966 -0.2507  0.2481  0.2565
 5170W        W22694   9.414  12.022   4.607 -0.1668  0.2082 -0.2628
 5171W        W22695  14.276   5.974  13.025 -0.0682 -0.2562 -0.1011
 5172W        W22696  16.676  12.803   5.074  0.0996 -0.1370 -0.2821
 5173W        W22697   7.727  15.821   2.789  0.0270 -0.1764 -0.2294
 5174W        W22698   4.793   8.919   3.159 -0.1272  0.0980  0.3009
 5175W        W22699  17.771  16.413   0.831 -0.1122  0.1920 -0.2231
 5176W        W22700  17.185   6.749   3.182  0.0262  0.2165 -0.3463
 5177W        W22701  12.327  17.162   2.255  0.1930 -0.5507  0.0749
 5178W        W22702   1.019   1.286  15.965 -0.1177 -0.1114  0.0563
 5179W        W22703   4.808  16.578  13.684  0.1011  0.1164 -0.2697
 5180W        W22704  17.938  17.061   2.943 -0.0948  0.0131 -0.1405
 5181W        W22705   8.538  17.619   0.966 -0.0678 -0.0941 -0.0196
 5182W        W22706  11.613   2.644  13.385 -0.1908 -0.2613  0.0661
 5183W        W22707  13.746  17.127   0.322  0.1606 -0.0285  0.3909
 5184W        W22708  12.442   4.002   4.848 -0.0565 -0.0193  0.1224
 5185W        W22709   7.911   3.245   0.498  0.2417 -0.2172 -0.1074
 5186W        W22710   3.606   2.233   1.900 -0.1345 -0.3041 -0.1037
 5187W        W22711   5.981  13.080   1.081 -0.1105  0.1353 -0.0429
 5188W        W22712   0.958  16.993   6.050 -0.0800  0.0909 -0.2998
 5189W        W22713   4.400  16.598   4.189  0.1166 -0.0888  0.2114
 5190W        W22714   5.462   6.954  15.611 -0.1062  0.1059  0.1730
 5191W        W22715   8.500  10.023  11.836 -0.1578 -0.0094 -0.0986
 5192W        W22716  17.724   7.914   2.849  0.3095  0.3274  0.3606
 5193W        W22717  14.822  12.727   1.934 -0.2768 -0.2772  0.0636
 5194W        W22718   2.816  12.213  13.429  0.0396 -0.0270  0.0872
 5195W        W22719  14.989  15.828  13.468 -0.0485  0.2170 -0.1829
 5196W        W22720  11.995   4.933  11.673  0.1912  0.0598 -0.1940
 5197W        W22721  17.671  13.348   0.203  0.1259  0.0383  0.1090
 5198W        W22722   8.517  15.960  11.091  0.0180 -0.0798 -0.1010
 5199W        W22723  14.819   3.944  12.134  0.1077  0.3119 -0.3687
 5200W        W22724  15.916  16.906   0.568  0.1175 -0.2194 -0.2911
 5201W        W22725  17.071   2.309   3.300  0.1448  0.3083  0.1108
 5202W        W22726   8.024  14.175  11.112 -0.4603  0.3285  0.1001
 5203W        W22727  16.750   2.989   0.553  0.1669  0.2057 -0.1245
 5204W        W22728  17.460   8.807   0.210  0.2069 -0.0057 -0.0358
 5205W        W22729  15.641  13.820  14.213  0.0479  0.0285  0.0332
 5206W        W22730   3.460  17.216  16.046 -0.2447  0.0023 -0.0926
 5207W        W22731  13.286   2.465   2.678  0.1038  0.2492  0.0857
 5208W        W22732   6.084   1.642   4.401 -0.1237 -0.1568 -0.0185
 5209W        W22733   6.802   7.994  10.396 -0.1783 -0.4396  0.0609
 5210W        W22734   8.867   8.978   3.512  0.0459  0.2349  0.0171
 5211W        W22735   8.505   7.447   0.892  0.0852  0.0606 -0.1854
 5212W        W22736   8.704   0.528   0.950  0.0609 -0.0298 -0.0161
 5213W        W22737  16.563   4.968   3.193 -0.1395 -0.0448 -0.2694
 5214W        W22738  16.481   5.075  15.207 -0.3145 -0.2284 -0.0632
 5215W        W22739   6.279  15.632  14.290  0.0713 -0.0568 -0.1781
 5216W        W22740   5.826  16.037  10.607 -0.0099  0.1578 -0.2785
 5217W        W22741   2.913   6.409   4.586 -0.0850 -0.1572  0.2946
 5218W        W22742  15.360  15.728   3.573 -0.0113 -0.0201 -0.1719
 5219W        W22743  11.065   4.726  12.338 -0.0779  0.0636  0.0530
 5220W        W22744   0.352   2.796   0.200 -0.2092  0.0808 -0.0016
 5221W        W22745  13.500   9.923   2.779  0.0464 -0.1131  0.0223
 5222W        W22746  11.446   6.466   3.125  0.2141 -0.0025 -0.0120
 5223W        W22747  12.936  16.247  15.051  0.1871  0.2352 -0.0611
 5224W        W22748   6.495  15.717   0.376  0.0094 -0.1705  0.0574
 5225W        W22749  10.854  17.160   1.652 -0.0913  0.2078  0.0090
 5226W        W22750  12.597   6.513  13.343 -0.1141 -0.0555 -0.0637
 5227W        W22751  14.327  14.502  11.841  0.1446 -0.1051  0.0315
 5228W        W22752  10.783  10.304  14.852  0.0834  0.0880 -0.4073
 5229W        W22753  16.427   9.506  13.611 -0.3483 -0.1215  0.1876
 5230W        W22754  18.033  11.082  11.810  0.0679  0.0481  0.2532
 5231W        W22755   8.314   5.590  13.731 -0.0769  0.2181  0.2869
 5232W        W22756  14.934   4.199   1.853 -0.3344 -0.4869  0.0370
 5233W        W22757  15.879  14.503  12.904  0.0714 -0.4738  0.3283
 5234W        W22758   9.514  11.006  12.326  0.0564 -0.2195 -0.1177
 5235W        W22759  13.164  15.730  11.266 -0.4867 -0.2540  0.1170
 5236W        W22760   3.498   2.176   0.377  0.1223  0.0862  0.0840
 5237W        W22761  14.862  17.002  14.691 -0.0934  0.2892  0.1953
 5238W        W22762   0.600  13.959  14.708 -0.0437  0.0601  0.1220
 5239W        W22763  10.095  12.700  14.916  0.0996  0.2148 -0.1694
 5240W        W22764   9.953  11.533   4.090 -0.0692  0.0825 -0.2067
 5241W        W22765  18.075   5.568  14.055 -0.2399 -0.2571  0.2165
 5242W        W22766   7.398   9.747  10.518  0.2820 -0.2143  0.2685
 5243W        W22767   2.852   9.523  13.188  0.2195 -0.2531  0.2274
 5244W        W22768   2.596  14.872   3.853 -0.0339 -0.0708  0.2603
 5245W        W22769  12.611  14.904   4.505 -0.1593  0.0533  0.0400
 5246W        W22770   4.375   3.639   3.555  0.0591  0.2148 -0.1757
 5247W        W22771   9.783  12.905  15.817 -0.2952 -0.1478 -0.0060
 5248W        W22772   8.997  13.302  12.705  0.1559  0.0773 -0.0428
 5249W        W22773  12.712   3.699  13.324  0.2949 -0.1646 -0.1781
 5250W        W22774  12.539  11.945   1.788  0.1392 -0.1001  0.1514
 5251W        W22775  13.792  13.691   0.558  0.1081 -0.0443 -0.2642
 5252W        W22776   8.223  15.541  14.047 -0.2062 -0.0906 -0.2768
 5253W        W22777   9.801  11.085  12.768 -0.2166  0.2306  0.0994
 5254W        W22778   3.520  14.829   5.827  0.1334 -0.1362  0.1222
 5255W        W22779   2.683   2.118  11.831 -0.0141  0.1215 -0.2240
 5256W        W22780  11.557   7.700  11.892  0.0519  0.1309  0.0468
 5257W        W22781   3.333   0.350   4.712 -0.1895 -0.0242  0.0519
 5258W        W22782   3.667   3.818  12.661  0.0359 -0.4043  0.2782
 5259W        W22783  15.244   0.238   5.884 -0.1381  0.0412 -0.0968
 5260W        W22784  13.407  13.594   4.623 -0.0294 -0.1175 -0.3223
 5261W        W22785  12.539   0.044  15.203 -0.1690  0.2599 -0.2810
 5262W        W22786   6.022  13.683   3.901  0.1708 -0.3111 -0.1405
 5263W        W22787  10.226   0.195   0.411  0.2154 -0.0709  0.1137
 5264W        W22788   2.879   4.704  11.891  0.0434 -0.0919  0.1545
 5265W        W22789   6.429  18.070  12.440  0.3611  0.1219  0.0761
 5266W        W22790  14.244  13.624   3.059 -0.3805  0.1117 -0.2094
 5267W        W22791  15.682  17.026   0.035  0.4457  0.1357 -0.2207
 5268W        W22792  12.411   0.919  14.939 -0.2557  0.0770 -0.0444
 5269W        W22793   9.838  16.488   2.546  0.0166  0.0051  0.4253
 5270W        W22794   4.388  12.999  11.213 -0.1832 -0.0742 -0.1109
 5271W        W22795   3.831   3.153   4.442  0.1875  0.1412  0.1251
 5272W        W22796  14.617  16.507   3.036  0.2363 -0.2003  0.0567
 5273W        W22797  11.991   7.824   4.921 -0.1276  0.3309  0.2338
 5274W        W22798  11.022  12.067   2.635 -0.1635 -0.2944  0.1228
 5275W        W22799   6.120  16.398  13.560 -0.2475 -0.0810  0.2964
 5276W        W22800   4.671   7.863  15.975  0.2353 -0.0913  0.2265
 5277W        W22801   9.140  17.864  11.406  0.0961  0.0457 -0.0012
 5278W        W22802   2.715   0.669   2.522  0.1248  0.1518  0.0816
 5279W        W22803  16.883   0.308   1.422 -0.2609 -0.0234  0.4039
 5280W        W22804  12.038   7.931   0.389 -0.1364 -0.0082  0.2256
 5281W        W22805  15.386  11.146  15.333  0.3956  0.3917 -0.2141
 5282W        W22806   0.759   1.345  15.173 -0.1528  0.0622 -0.0364
 5283W        W22807   7.687  17.254   0.828 -0.0595 -0.2379 -0.0150
 5284W        W22808   1.808  14.012   4.191 -0.3333  0.0173  0.1504
 5285W        W22809   3.985  18.051  10.966  0.0189  0.3803 -0.3230
 5286W        W22810  12.959  17.991  15.418 -0.1345 -0.5062  0.0433
 5287W        W22811  16.841   7.854   3.453 -0.1212 -0.0204 -0.0043
 5288W        W22812   6.621  14.602  12.823  0.2551  0.0079 -0.2457
 5289W        W22813  12.223   1.214   0.614  0.0872  0.0319 -0.1477
 5290W        W22814  13.085   9.494   0.504 -0.1466 -0.2106 -0.1945
 5291W        W22815   9.993  14.420   4.372 -0.2485  0.0573 -0.1326
 5292W        W22816   2.401   1.154  12.919  0.2031  0.0612  0.0241
 5293W        W22817  16.455  14.749  12.322  0.0593 -0.1781  0.2548
 5294W        W22818   4.653   9.036  11.158 -0.1744  0.0315 -0.0525
 5295W        W22819   0.020   4.815  15.228  0.3768  0.3047 -0.0675
 5296W        W22820  18.083   7.029  11.782  0.1170  0.0779 -0.0237
 5297W        W22821  11.578   4.533  11.534  0.0362 -0.1020  0.0724
 5298W        W22822   2.004   7.065   4.733  0.2778 -0.0270  0.1780
 5299W        W22823  13.629   8.385   3.575  0.0384  0.1424  0.1319
 5300W        W22824   6.893  10.325  14.544  0.2274  0.0750 -0.1290
 5301W        W22825   0.972   8.186   0.703  0.2076 -0.0957 -0.1991
 5302W        W22826   0.594   9.350  13.956 -0.0689 -0.0848  0.0106
 5303W        W22827  15.127   0.694  11.652 -0.1717 -0.0959  0.1472
 5304W        W22828  12.803  16.386   3.762  0.0255 -0.3083 -0.0825
 5305W        W22829   3.439   8.110   2.597  0.1042 -0.1787  0.0652
 5306W        W22830  10.897   5.666  12.732 -0.1797 -0.0181 -0.1217
 5307W        W22831   3.489   5.488   1.738 -0.0784 -0.0010  0.3196
 5308W        W22832  12.653  17.289   4.651  0.0151  0.1154 -0.0288
 5309W        W22833   2.767  15.659  12.195  0.2903  0.3657 -0.1092
 5310W        W22834  11.607   3.451  12.376 -0.0187  0.1232 -0.0468
 5311W        W22835  16.539   9.010   1.895  0.1131  0.0266 -0.1665
 5312W        W22836   0.990  13.068   3.078  0.1755  0.1838 -0.2308
 5313W        W22837  16.091   5.346  12.798  0.2978 -0.1192  0.2528
 5314W        W22838  12.009   8.325   4.961  0.1557  0.0872  0.0808
 5315W        W22839   2.110  15.512  15.184  0.0703  0.1286  0.0167
 5316W        W22840   7.741   8.256  11.799 -0.1128 -0.1543 -0.2059
 5317W        W22841   7.029  15.405  14.732 -0.0606  0.1694  0.0606
 5318W        W22842   8.756   9.209  11.405 -0.0816 -0.2978 -0.1114
 5319W        W22843   0.504   9.888  13.235  0.0104 -0.2547 -0.1019
 5320W        W22844  10.859   5.015   0.436 -0.2422  0.1873  0.0484
 5321W        W22845  10.868   6.539  12.343 -0.1315  0.1719  0.0734
 5322W        W22846   6.991  12.962   3.028  0.1001 -0.2377  0.1825
 5323W        W22847   7.777   5.338   0.222 -0.1168 -0.1129 -0.1652
 5324W        W22848   1.434   7.698   3.650  0.0240 -0.1427  0.0040
 5325W        W22849   4.497   9.393   0.336 -0.2109 -0.0227  0.1449
 5326W        W22850   5.653   9.633   1.447 -0.4567  0.1944  0.2341
 5327W        W22851   4.829   5.423   4.475 -0.1852  0.0753  0.0834
 5328W        W22852   0.064  10.373  15.365  0.0128  0.0699 -0.1269
 5329W        W22853   6.400   7.358   4.134 -0.1956 -0.1184  0.1340
 5330W        W22854  13.581  13.386  14.080  0.0610  0.0963  0.0858
 5331W        W22855   6.966   4.711  16.020 -0.2079 -0.2996 -0.1582
 5332W        W22856  13.469  18.085  15.582  0.1056  0.1397  0.1519
 5333W        W22857  13.408   7.778   5.180 -0.1135 -0.1313  0.1264
 5334W        W22858  13.922  14.974  12.067  0.0477 -0.2687  0.2561
 5335W        W22859   8.948  10.955  13.158 -0.0126 -0.2536 -0.1962
 5336W        W22860   5.693   3.188  12.268  0.1300  0.0429  0.2725
 5337W        W22861   7.899  17.651  14.035 -0.1175  0.1343  0.1547
 5338W        W22862   6.550   8.145  15.348  0.0189  0.0415 -0.0126
 5339W        W22863  15.390  10.723   1.119  0.0315  0.1010  0.3029
 5340W        W22864  14.983  10.997   0.161  0.0208  0.2675  0.1178
 5341W        W22865  11.411   4.756  14.237  0.1525  0.3184  0.3186
 5342W        W22866  11.928   2.098   4.166  0.0738  0.2028 -0.0327
 5343W        W22867  12.619   9.345   3.451  0.0882 -0.1091  0.0992
 5344W        W22868  14.512   3.619   0.663 -0.1325 -0.0821  0.1634
 5345W        W22869   6.196  14.017  13.957 -0.0446  0.1238 -0.0770
 5346W        W22870   0.170  13.963  14.488  0.0269 -0.1826 -0.0359
 5347W        W22871   1.636  14.313   2.207 -0.2501 -0.1191  0.3803
 5348W        W22872  14.261   7.484  13.912 -0.1786  0.3326  0.1060
 5349W        W22873   3.984  17.244  10.023 -0.0779 -0.3576 -0.2407
 5350W        W22874  11.230   2.366   4.947  0.1851  0.2889 -0.1280
 5351W        W22875   7.327   2.081   2.051 -0.0946 -0.0059 -0.1462
 5352W        W22876   3.204   1.275  14.230  0.2042  0.0914  0.0005
 5353W        W22877   0.689   8.602   3.412  0.5909  0.2512 -0.2138
 5354W        W22878  10.502  13.269   9.809 -0.1351 -0.0760  0.0708
 5355W        W22879  16.300  10.704   3.723 -0.3164 -0.0156 -0.1907
 5356W        W22880  11.650   5.716  15.569  0.3518 -0.0546  0.2350
 5357W        W22881  18.035   2.844   0.509 -0.1046  0.4523  0.0105
 5358W        W22882  17.655  16.804   1.243 -0.2717 -0.0079  0.1204
 5359W        W22883  10.622  16.815   2.462 -0.0232 -0.3798  0.0698
 5360W        W22884   5.476  13.744  15.549  0.0614 -0.1828 -0.0439
 5361W        W22885   2.891  12.570   5.095 -0.0962  0.0745  0.0425
 5362W        W22886  17.125  16.922  14.609  0.1973 -0.0241 -0.1844
 5363W        W22887   6.922   9.227  12.097  0.1802 -0.0465  0.3552
 5364W        W22888  10.260  14.772  15.414 -0.0263  0.2451 -0.2916
 5365W        W22889  14.467   6.720  14.968  0.0706  0.1586  0.0904
 5366W        W22890  14.380  15.532   3.025 -0.0803 -0.0209  0.0619
 5367W        W22891   6.671  10.449  13.757 -0.2271  0.0848 -0.1609
 5368W        W22892   5.432  16.524   0.251 -0.1867  0.0539 -0.1786
 5369W        W22893   7.262   9.261  14.880 -0.0917 -0.0631 -0.1964
 5370W        W22894   8.715  16.339  13.100  0.3236  0.1691 -0.2619
 5371W        W22895  14.308  18.046   3.855  0.3339  0.0320 -0.1742
 5372W        W22896   9.017   3.700   2.462  0.0590 -0.1772  0.1109
 5373W        W22897  18.127   2.667  12.163  0.2463  0.0985 -0.1317
 5374W        W22898  15.365   7.806  10.888  0.0663  0.2078  0.2642
 5375W        W22899   6.125  16.898  13.614  0.1125 -0.0480  0.0154
 5376W        W22900  12.330  13.886  13.121  0.0729 -0.0043 -0.0464
 5377W        W22901   4.336  16.503   0.003  0.0175  0.0654 -0.1590
 5378W        W22902  13.932  14.920  13.419  0.1499 -0.1083  0.0869
 5379W        W22903   4.439   2.447  12.503  0.0428 -0.0953  0.0188
 5380W        W22904  17.007   0.734   3.499  0.1378  0.2645  0.2748
 5381W        W22905  13.408  15.129   4.877  0.0352  0.0780 -0.1759
 5382W        W22906   1.588  11.055  10.866  0.0411  0.1177  0.0165
 5383W        W22907   3.832  10.986  15.764 -0.0727 -0.3316  0.0782
 5384W        W22908  12.957   3.066   1.257  0.1005  0.1095 -0.3590
 5385W        W22909   6.820   6.061   0.929 -0.2424  0.1412 -0.0198
 5386W        W22910   3.886   9.138   0.265 -0.3054 -0.0593 -0.0687
 5387W        W22911   1.353   2.715   2.734 -0.2284 -0.0470  0.0593
 5388W        W22912   8.955   4.931   1.008  0.0784  0.0205 -0.1746
 5389W        W22913   9.176   2.245  15.255  0.1846  0.1254 -0.2215
 5390W        W22914  10.988  17.145   2.618  0.2866 -0.0438  0.0737
 5391W        W22915  16.159   8.330  15.297 -0.2942 -0.1011 -0.0349
 5392W        W22916  14.374   5.035  15.413 -0.4503  0.1200  0.1872
 5393W        W22917  13.289   2.548   0.682 -0.0608  0.2482 -0.1675
 5394W        W22918  17.960   6.016   3.645  0.0008 -0.1805  0.1879
 5395W        W22919  16.732   9.363  15.063 -0.0508 -0.1176  0.0952
 5396W        W22920  16.509   8.750   1.489  0.0481  0.1601 -0.1287
 5397W        W22921   1.241  13.571  11.973  0.2689 -0.0682  0.1374
 5398W        W22922   7.459  15.971  11.286  0.0486  0.1936  0.2307
 5399W        W22923  10.012  10.530   3.859 -0.1641  0.2779 -0.0495
 5400W        W22924  13.276  15.280  13.922 -0.2097 -0.2543 -0.0300
 5401W        W22925  13.754   1.181   1.482  0.1238  0.0492  0.1441
 5402W        W22926   5.755  13.280  14.653 -0.0614  0.0390 -0.1145
 5403W        W22927  17.653   9.272   0.221  0.0819  0.0748 -0.2380
 5404W        W22928   3.456  14.391  11.466 -0.0223  0.0117  0.1330
 5405W        W22929   2.240  17.968   5.256  0.2303 -0.2837 -0.0644
 5406W        W22930   6.226   9.971   2.383 -0.0479  0.0689  0.2146
 5407W        W22931  17.666   0.001   4.814 -0.0939 -0.2538  0.0490
 5408W        W22932   6.061   4.799   2.910  0.0596  0.0193  0.1273
 5409W        W22933   9.023   9.573   1.785 -0.1115  0.1231  0.0712
 5410W        W22934  12.183   2.895  14.950  0.0152  0.1142 -0.1060
 5411W        W22935   3.064  16.597   4.050  0.5463 -0.0826 -0.0813
 5412W        W22936  15.499  15.223   5.174  0.1532  0.2003  0.0147
 5413W        W22937   9.739   8.619   3.305  0.0573 -0.1319  0.2760
 5414W        W22938   1.882  15.563  13.911  0.1070  0.0519  0.4319
 5415W        W22939  16.385  16.572   2.364 -0.0511 -0.0284  0.0535
 5416W        W22940   2.389  16.512  10.590  0.2201  0.2452  0.0265
 5417W        W22941   5.789   2.310  10.291  0.0712 -0.0000  0.1388
 5418W        W22942  12.368   7.474  13.872 -0.2421  0.0069 -0.1921
 5419W        W22943   2.972   9.043  13.885  0.0703  0.0995  0.1231
 5420W        W22944  11.115  13.333   1.946  0.1958 -0.0758  0.0942
 5421W        W22945  17.552  11.743  13.058  0.0373 -0.3818  0.0346
 5422W        W22946  11.130  15.031  12.115  0.2340 -0.3656  0.0570
 5423W        W22947   0.358  11.393   2.315  0.1102 -0.0571  0.1030
 5424W        W22948   4.554  10.423   2.837  0.0398 -0.1419  0.4213
 5425W        W22949   3.594  17.449   4.220 -0.0847  0.2334  0.0113
 5426W        W22950   4.986   5.387  11.044 -0.1151  0.0771 -0.2566
 5427W        W22951   4.388   6.224   3.741 -0.2105  0.0533  0.1476
 5428W        W22952   0.148  11.198  14.954  0.0599  0.2105  0.0696
 5429W        W22953   1.770  11.299  11.328  0.0720  0.2706  0.2797
 5430W        W22954  16.500   4.319   0.340 -0.1418 -0.0622  0.2069
 5431W        W22955   9.869  11.252   0.510  0.0450 -0.0390  0.1941
 5432W        W22956   5.089   4.395  10.800 -0.0687  0.1709 -0.2077
 5433W        W22957   6.302  12.618   5.143  0.2886  0.2145  0.0331
 5434W        W22958   7.158   3.112  12.876 -0.0796 -0.2536 -0.2739
 5435W        W22959   1.863  10.349  11.714  0.3432 -0.1944 -0.0379
 5436W        W22960   1.010   3.770   5.209  0.0238  0.0554  0.2924
 5437W        W22961  14.240   8.003   2.931 -0.2448 -0.1436  0.1104
 5438W        W22962   2.584   1.323  12.430  0.1814  0.1373 -0.2162
 5439W        W22963   5.147   3.594  15.635  0.1996  0.2541 -0.1287
 5440W        W22964   1.590  12.257   5.303 -0.1890  0.3094 -0.2916
 5441W        W22965   5.652  11.626   4.467  0.2002  0.4221  0.3073
 5442W        W22966   4.999  16.395   0.513  0.0822 -0.1181 -0.0698
 5443W        W22967  10.360   8.616   2.632 -0.1918 -0.1101  0.2018
 5444W        W22968  13.438   1.429   4.957 -0.2431  0.1830 -0.1702
 5445W        W22969   0.702  11.620  10.324  0.0871  0.2035  0.0172
 5446W        W22970   3.928  16.547   1.628 -0.1221 -0.0527 -0.0835
 5447W        W22971   3.687   9.277   4.126  0.2860  0.0058 -0.2967
 5448W        W22972   2.497   6.702   3.895 -0.3028  0.1330  0.1543
 5449W        W22973   0.332   2.501   4.255 -0.1634 -0.0426 -0.1900
 5450W        W22974  16.951   0.976   3.113 -0.0279  0.2530  0.3545
 5451W        W22975  11.464  10.642  12.246  0.2208  0.0593  0.0006
 5452W        W22976  16.552   2.234  11.427 -0.0440  0.0495 -0.0243
 5453W        W22977   3.586  15.204  16.024  0.3625 -0.3948 -0.0563
 5454W        W22978   0.245  13.864   0.311 -0.1233 -0.0506 -0.2690
 5455W        W22979  12.599  14.816   5.051  0.1363  0.1336  0.5190
 5456W        W22980  17.743  14.310   0.489  0.1184 -0.0746 -0.0794
 5457W        W22981   8.899  15.368   1.021 -0.1242  0.0035 -0.3232
 5458W        W22982   4.363  11.036  14.526  0.2028 -0.2618 -0.0304
 5459W        W22983  13.074   3.545   1.055 -0.2759 -0.1038 -0.1759
 5460W        W22984   7.432   9.173  12.162 -0.1087 -0.2138  0.0529
 5461W        W22985  15.357   4.171   2.774  0.0077 -0.0530  0.0104
 5462W        W22986   7.915   1.581  14.791  0.2467 -0.1047 -0.1301
 5463W        W22987  17.158   9.842   4.866  0.1067  0.1458  0.1018
 5464W        W22988   0.953   6.955  11.764 -0.0305 -0.1711  0.1748
 5465W        W22989  10.224   5.379  11.893 -0.2773  0.0948 -0.2032
 5466W        W22990   0.072  15.335   2.204 -0.2343 -0.1301  0.0273
 5467W        W22991  15.776  14.446  10.255  0.2708 -0.3375 -0.2841
 5468W        W22992   8.940   2.701  11.196  0.0588 -0.2314  0.0445
 5469W        W22993  12.474  13.401  11.376  0.0691 -0.0401  0.0250
 5470W        W22994  10.504  11.951   3.643 -0.0020  0.2036 -0.3710
 5471W        W22995   9.935   4.014  12.820  0.1321 -0.0723 -0.0600
 5472W        W22996   8.527   7.923  14.603  0.1860 -0.0648 -0.0081
 5473W        W22997  13.339  10.639   4.820 -0.2351 -0.2923 -0.2761
 5474W        W22998   7.770  14.357  13.175  0.0263 -0.1235 -0.0542
 5475W        W22999   2.555   6.780   3.383  0.1768 -0.1143 -0.1382
 5476W        W23000  11.649   5.897  16.026  0.2361  0.2143 -0.0522
 5477W        W23001  12.552   4.901  14.160  0.1111  0.1952 -0.1460
 5478W        W23002   5.219   1.334   3.260 -0.2376  0.1508 -0.3809
 5479W        W23003  10.807  14.208   2.218  0.0163 -0.2364  0.1590
 5480W        W23004   5.441  17.139  11.205  0.3263  0.1868 -0.2996
 5481W        W23005   1.783   2.135   3.342 -0.0554  0.0826  0.2986
 5482W        W23006  16.305   1.893   1.263 -0.0316 -0.0711 -0.0567
 5483W        W23007   7.791   4.582  15.955  0.1606 -0.0320  0.1142
 5484W        W23008  18.120   2.724  15.647  0.2474  0.0873  0.0202
 5485W        W23009  14.863  15.626   3.468  0.0242 -0.4515  0.0839
 5486W        W23010   9.520   2.356   1.333  0.0958  0.2858 -0.0645
 5487W        W23011  16.128  15.604   2.184 -0.5726 -0.1220  0.2239
 5488W        W23012  12.547  13.761  13.960  0.3625  0.3128  0.0297
 5489W        W23013   8.950  10.047   0.404  0.1747 -0.3614 -0.0003
 5490W        W23014  14.097   9.125  12.294 -0.1338  0.2817 -0.0073
 5491W        W23015   2.658   4.827   0.284 -0.0037 -0.0962 -0.2165
 5492W        W23016  14.529  15.676  14.850  0.2663 -0.0614  0.2077
 5493W        W23017   9.155  16.177  15.234 -0.3027  0.0052 -0.2059
 5494W        W23018  10.402  11.728  13.061  0.1784 -0.2785 -0.0874
 5495W        W23019   6.481   7.022   3.762 -0.1671  0.2598  0.0484
 5496W        W23020  15.482  14.457  12.567  0.3018  0.2781  0.0537
 5497W        W23021   1.596  11.096  12.461  0.0132  0.2684  0.0262
 5498W        W23022  17.529   4.212   3.663  0.0670 -0.0378 -0.1651
 5499W        W23023  17.442  12.253   0.914  0.0833 -0.2310  0.0015
 5500W        W23024   0.424   3.992  12.062 -0.0597  0.3584  0.1703
 5501W        W23025   8.620   6.099   0.831 -0.1310 -0.1165 -0.0967
 5502W        W23026   1.734  16.932  11.644 -0.0537  0.2013 -0.2888
 5503W        W23027  16.945  13.439  12.651 -0.1762  0.3588  0.1100
 5504W        W23028  12.621  16.392   4.878 -0.1767  0.1791 -0.0461
 5505W        W23029  16.568   7.430   3.661 -0.1434  0.0091 -0.0104
 5506W        W23030   4.716  13.991  11.332  0.0035  0.0613 -0.0555
 5507W        W23031  13.869   6.548  10.881 -0.2166 -0.4248  0.1032
 5508W        W23032  15.710  12.398  13.420 -0.0699  0.0655  0.1596
 5509W        W23033  12.495  16.178   3.387 -0.0773  0.1257 -0.2075
 5510W        W23034   9.608   8.975   0.935 -0.0670  0.2432 -0.1092
 5511W        W23035  16.528  17.986  15.037  0.3264 -0.0763 -0.1290
 5512W        W23036   2.402   2.382   0.290  0.2681  0.2348 -0.2926
 5513W        W23037   6.296   3.961   0.865  0.0377  0.1072 -0.0060
 5514W        W23038   9.465   9.877   2.678  0.1314 -0.0158  0.0330
 5515W        W23039  16.100  14.098   4.996 -0.0161 -0.1449 -0.1004
 5516W        W23040   7.858  16.385   4.876 -0.2311 -0.1548 -0.0026
 5517W        W23041   6.518  11.366   0.909 -0.2641  0.2716 -0.1280
 5518W        W23042  10.498   2.798  11.103 -0.0715  0.1579  0.1892
 5519W        W23043   4.795  10.755   3.582  0.3294  0.0637 -0.1574
 5520W        W23044   9.982  16.646  11.710  0.1039  0.0409  0.0337
 5521W        W23045   3.943  14.547  13.984  0.4409  0.0905 -0.0831
 5522W        W23046  14.657   4.423  12.358  0.1695 -0.0471  0.3255
 5523W        W23047   3.667  12.213   4.565 -0.1117  0.1529 -0.0292
 5524W        W23048   2.372   0.254   2.464  0.0164 -0.0436  0.1090
 5525W        W23049  18.091   5.014  15.697 -0.3545 -0.0296 -0.0513
 5526W        W23050   0.089  10.834   3.576  0.0777 -0.3910 -0.1840
 5527W        W23051   8.269   9.316   4.128 -0.1715  0.0773 -0.1728
 5528W        W23052   9.839  12.941   3.622 -0.0211 -0.2854 -0.0815
 5529W        W23053   2.591   9.219   0.526  0.2132 -0.1055  0.0226
 5530W        W23054  10.535   1.432   3.987  0.0949 -0.0668 -0.2560
 5531W        W23055  10.031  17.327   2.261 -0.2101 -0.0781  0.2171
 5532W        W23056   5.152   4.483   1.569  0.1204 -0.2491 -0.2790
 5533W        W23057  12.561  11.804   0.054  0.1291 -0.0991  0.1640
 5534W        W23058   5.251   3.304  11.123  0.1393 -0.2399  0.2941
 5535W        W23059   3.989   2.482   3.901  0.2509 -0.0372  0.2155
 5536W        W23060  13.047   7.587   3.647 -0.1255  0.0916  0.0353
 5537W        W23061  17.845  17.141  13.266  0.1980  0.0396 -0.2882
 5538W        W23062   2.748  18.047   2.407  0.1322  0.0957  0.1154
 5539W        W23063  11.112  16.681  11.759 -0.0524 -0.1167  0.2062
 5540W        W23064  14.138   0.871  13.207 -0.0838 -0.1178  0.0886
 5541W        W23065   2.180   4.398  11.812 -0.4488  0.2744 -0.3437
 5542W        W23066   3.142  11.469   4.450  0.1550 -0.0782  0.3117
 5543W        W23067   3.356  10.711   0.596  0.1039 -0.2645  0.0109
 5544W        W23068  15.423   7.873   4.450 -0.0317  0.2104  0.1091
 5545W        W23069  16.188  16.096   5.215 -0.0616 -0.3139 -0.0640
 5546W        W23070   5.468  16.917  12.594  0.1600  0.5520 -0.1001
 5547W        W23071  14.573   5.810   2.827 -0.1585  0.0070  0.3088
 5548W        W23072  10.912  14.403   0.697  0.1869 -0.1135 -0.3116
 5549W        W23073   9.403   3.005  11.112  0.0591 -0.0422  0.3586
 5550W        W23074   2.070   3.930  10.115 -0.2788 -0.2232 -0.1429
 5551W        W23075  11.938   2.876  11.889 -0.0193 -0.1118  0.0484
 5552W        W23076   4.758   0.403  13.417  0.1493  0.0687 -0.0373
 5553W        W23077  15.983   4.267   4.567 -0.1375  0.0201  0.1921
 5554W        W23078   2.272  12.695  15.119  0.2543 -0.2444  0.0144
 5555W        W23079   7.225   5.889  14.457 -0.0137 -0.0601 -0.0371
 5556W        W23080  17.849   9.419  13.035 -0.1891 -0.3794  0.0069
 5557W        W23081   6.039  11.585  15.306  0.1567  0.1670 -0.0738
 5558W        W23082  14.536  17.430   1.939 -0.1648 -0.0717 -0.3040
 5559W        W23083  15.432   6.568   4.405  0.3332  0.0609  0.1505
 5560W        W23084  11.087   5.062   2.437 -0.0465 -0.0985 -0.3374
 5561W        W23085  16.320   0.014  12.961  0.2211  0.2009 -0.0390
 5562W        W23086   7.922   0.007   2.609 -0.1138 -0.2311 -0.2958
 5563W        W23087  15.888  12.943  11.978 -0.0621 -0.2084 -0.1502
 5564W        W23088   4.909   6.973  13.062  0.0776  0.0470 -0.1159
 5565W        W23089   0.989   2.989   2.408  0.0519 -0.1846  0.2337
 5566W        W23090  18.056  14.949  14.112  0.4304 -0.2000 -0.0396
 5567W        W23091  17.626   9.642   3.879  0.2816 -0.0817 -0.2116
 5568W        W23092  15.657  10.142   2.198 -0.0914  0.0545 -0.2260
 5569W        W23093  11.616   7.849   3.656 -0.1826 -0.0075  0.0850
 5570W        W23094  13.604  15.108   3.019 -0.1070  0.1992  0.1431
 5571W        W23095   8.698   8.561  14.018 -0.0865  0.2886 -0.0003
 5572W        W23096   3.828  13.259   3.183 -0.1425  0.1989 -0.0324
 5573W        W23097  12.070  10.950   0.870 -0.2982 -0.0904 -0.3051
 5574W        W23098   2.593  13.178   1.149 -0.0492  0.0935  0.0246
 5575W        W23099   9.374  15.191   2.333  0.2763 -0.0976  0.1897
 5576W        W23100   6.465  13.709   0.241 -0.0565 -0.1989 -0.1928
 5577W        W23101  11.524  13.712  13.375 -0.2096  0.2034  0.1645
 5578W        W23102   4.718   9.022   1.933  0.1752  0.1894 -0.0396
 5579W        W23103   4.079  11.091  12.480 -0.0276 -0.0934 -0.1781
 5580W        W23104   4.824   0.033  15.527  0.1214 -0.3360  0.2594
 5581W        W23105  11.262   7.056   4.948 -0.1603  0.1242  0.2074
 5582W        W23106   9.448  12.456  12.998  0.2751 -0.0132 -0.1364
 5583W        W23107   5.234   1.249  13.875 -0.1199 -0.3203 -0.2921
 5584W        W23108  10.224   9.349   3.192 -0.1930 -0.0598  0.0087
 5585W        W23109   4.455   9.541   0.859 -0.0207 -0.2075 -0.1610
 5586W        W23110  15.851   3.167   0.118 -0.0281  0.0100  0.0931
 5587W        W23111   5.404   2.542  14.066  0.1522 -0.1742  0.0305
 5588W        W23112   1.163   8.641   3.452  0.0858  0.1934  0.0026
 5589W        W23113   7.171   8.699  13.648  0.0236  0.2613  0.1735
 5590W        W23114   0.365  13.607   4.814 -0.1356 -0.1971 -0.0657
 5591W        W23115   1.513  17.048   4.776  0.2103 -0.1759 -0.0974
 5592W        W23116  14.468  15.068   0.364  0.0468  0.0707 -0.4677
 5593W        W23117  13.542   6.705  11.801 -0.2856  0.1470 -0.0166
 5594W        W23118   8.727   9.062  13.815  0.1723 -0.1574  0.1325
 5595W        W23119   6.219   8.561  13.668  0.1862 -0.0560  0.1106
 5596W        W23120  11.753  16.878  13.062 -0.3349 -0.3749  0.0253
 5597W        W23121  17.920   3.852  14.775  0.0803  0.0476  0.2096
 5598W        W23122  17.755   4.735  14.896 -0.2683  0.1400 -0.2435
 5599W        W23123  17.537   8.313   2.286 -0.4236  0.0681  0.1288
 5600W        W23124   5.307   0.548  14.806 -0.1367  0.3715 -0.0148
 5601W        W23125  12.515   5.393  15.377 -0.1620  0.1360  0.0751
 5602W        W23126   0.089  13.340  12.895 -0.1249 -0.0123  0.0043
 5603W        W23127  17.972   3.004  14.422  0.0241  0.1728  0.2413
 5604W        W23128  10.903   0.762  12.236 -0.0501  0.1098  0.0023
 5605W        W23129  12.702  10.284  15.205  0.1159 -0.0664  0.1133
 5606W        W23130   8.753   0.128  10.668  0.0525 -0.4265 -0.1622
 5607W        W23131   6.538   0.141  15.322 -0.0168  0.5140  0.2256
 5608W        W23132   0.562  10.809   5.337  0.3093 -0.1210 -0.1291
 5609W        W23133  14.972   0.172  13.614  0.1226 -0.4161 -0.1861
 5610W        W23134   7.827  10.015  15.655  0.0298  0.1202 -0.4326
 5611W        W23135   8.814  14.840  12.116 -0.0166  0.1003 -0.2206
 5612W        W23136  12.898   5.153  11.364 -0.0794  0.2096 -0.1736
 5613W        W23137  13.186   6.392   0.607 -0.3948  0.1452 -0.3416
 5614W        W23138  16.441  10.874  12.500  0.0169  0.4286  0.0433
 5615W        W23139   3.349   4.704  13.580  0.0319  0.0437 -0.2045
 5616W        W23140   5.946  10.755   1.822  0.3115 -0.1805  0.1061
 5617W        W23141   8.897  14.195  11.968 -0.2395 -0.1100  0.1400
 5618W        W23142   4.982   7.845   0.326 -0.1912  0.1219  0.0060
 5619W        W23143  17.196  17.995   2.206  0.0358  0.4483  0.1686
 5620W        W23144   7.485   3.003   1.201 -0.3159  0.1032  0.1738
 5621W        W23145   6.873   6.230  13.818 -0.0426 -0.2178 -0.0785
 5622W        W23146   8.824  14.064  15.238 -0.2070 -0.0143 -0.1924
 5623W        W23147  17.759   9.880  11.245 -0.0634  0.0138 -0.3704
 5624W        W23148  11.276   9.662   1.468  0.0358  0.1893 -0.2075
 5625W        W23149   9.433  15.608   1.651 -0.1117  0.0562  0.2146
 5626W        W23150  11.682  12.655   2.461 -0.0417 -0.1107  0.0868
 5627W        W23151   1.230   6.068   3.119  0.3843 -0.1819  0.1319
 5628W        W23152  11.880  13.360   3.067 -0.0581 -0.2991  0.2282
 5629W        W23153   3.816  11.586  11.120 -0.0098 -0.1619  0.3406
 5630W        W23154  17.379   5.789  14.228  0.1862  0.1235  0.0440
 5631W        W23155   4.948  14.223   1.306  0.0860  0.0519  0.1962
 5632W        W23156   4.626  15.504   4.300  0.0964 -0.1292 -0.0585
 5633W        W23157  16.110  12.088  12.985  0.0101 -0.0287 -0.0217
 5634W        W23158  11.070   2.864  15.926  0.0556 -0.2327 -0.0739
 5635W        W23159  10.325   4.751  12.544  0.1909 -0.0587 -0.1344
 5636W        W23160   3.682   6.474  15.645  0.0817 -0.2046  0.3304
 5637W        W23161   3.985   5.709   2.528 -0.1643  0.5330 -0.2511
 5638W        W23162   8.819   4.966  14.857 -0.3945  0.0511 -0.1111
 5639W        W23163  11.248   2.161  14.051  0.0010 -0.0446  0.0425
 5640W        W23164  17.758   8.141  12.796  0.0916 -0.0401  0.0934
 5641W        W23165  14.765   3.095   1.552 -0.1056 -0.2298  0.0559
 5642W        W23166  13.606  15.365   1.585 -0.0974 -0.4448 -0.0841
 5643W        W23167   1.749   2.398   2.913  0.2779  0.0210  0.0717
 5644W        W23168   3.466   5.297   3.922  0.1561  0.2166  0.1872
 5645W        W23169   5.035   0.325  15.137 -0.2255  0.1535  0.0805
 5646W        W23170   8.368  18.044  12.369  0.3175  0.1668  0.0022
 5647W        W23171   6.139  10.477  14.787  0.1613  0.3131 -0.0122
 5648W        W23172   8.261   2.620  15.082 -0.4487  0.3065  0.4752
 5649W        W23173   6.148   4.696  11.286 -0.1179 -0.3158  0.3149
 5650W        W23174   9.145   6.657  13.975 -0.4085 -0.2562  0.1475
 5651W        W23175   5.110  14.178   0.855  0.0570  0.2098  0.2565
 5652W        W23176   6.421  10.842  14.664  0.1148 -0.0196 -0.0928
 5653W        W23177   6.187   1.055   0.586  0.2818 -0.2112 -0.3057
 5654W        W23178  12.086  15.863   3.726  0.0829  0.0099 -0.0489
 5655W        W23179   0.855  11.208  13.204  0.0894 -0.0512  0.0749
 5656W        W23180   2.462   3.665   0.924 -0.0706 -0.1391 -0.1795
 5657W        W23181   3.709   7.346  11.345 -0.1696  0.2493  0.1834
 5658W        W23182  10.006   5.170   0.460 -0.2109  0.0192  0.1444
 5659W        W23183  11.275   3.233   2.279 -0.0945  0.0253 -0.1712
 5660W        W23184   5.961  15.140   0.428  0.2824 -0.0258  0.2293
 5661W        W23185   1.584  12.400  12.011 -0.1548 -0.2064 -0.2184
 5662W        W23186  15.297   5.636  13.617 -0.1063  0.1306  0.3162
 5663W        W23187  12.358   7.715  15.932 -0.2568 -0.0249  0.2038
 5664W        W23188  14.598  10.289  12.344 -0.0072 -0.0105  0.2922
 5665W        W23189  14.601   7.809  14.141  0.0850  0.0092  0.0944
 5666W        W23190   4.718   3.436   3.190 -0.3463  0.1353 -0.1828
 5667W        W23191  11.924  14.604  11.484  0.0423  0.1437  0.3018
 5668W        W23192   9.093   7.083  13.159  0.1532  0.0742  0.3982
 5669W        W23193   6.440   9.350  11.932  0.0548 -0.2394  0.1761
 5670W        W23194   6.687   8.891  13.610  0.0925  0.0534  0.2379
 5671W        W23195   8.097  17.686   4.197 -0.3792 -0.3073 -0.2148
 5672W        W23196  13.961  10.787   5.429 -0.0346 -0.0466  0.2431
 5673W        W23197  10.009   8.655  11.565  0.0264  0.0361 -0.0731
 5674W        W23198   5.041  12.776   1.147  0.0740 -0.2029  0.1005
 5675W        W23199   4.625   0.589   3.945  0.1613 -0.1031  0.0369
 5676W        W23200   7.512   8.244   1.737  0.2559  0.0008 -0.0554
 5677W        W23201   5.511   8.692   4.782  0.0756  0.2338  0.0029
 5678W        W23202   0.034  10.471   2.753 -0.1426  0.0572 -0.0583
 5679W        W23203  10.229  13.259   1.191 -0.0064 -0.2617 -0.1382
 5680W        W23204   4.731   6.043  13.235 -0.1207 -0.0123 -0.3389
 5681W        W23205   4.337  10.761   4.381  0.0415  0.0064  0.2343
 5682W        W23206   6.504   9.028   3.098 -0.0129 -0.4813 -0.1460
 5683W        W23207   3.915   2.768  13.722  0.1672  0.2805 -0.1051
 5684W        W23208  10.177  13.277   4.403  0.0885  0.4397 -0.0946
 5685W        W23209   6.201   3.608   2.343 -0.1537  0.2432  0.1965
 5686W        W23210   3.042   5.000  14.368  0.0010  0.1150  0.2888
 5687W        W23211  12.276  17.764   0.756  0.0945  0.0063  0.3012
 5688W        W23212   2.516   9.488   2.875  0.0850  0.0498  0.0525
 5689W        W23213   6.781  17.246   6.018 -0.0240 -0.0902  0.0226
 5690W        W23214  16.780  16.227   2.549 -0.1615 -0.2848  0.2978
 5691W        W23215   1.334  13.900  13.057  0.0149  0.0583  0.0310
 5692W        W23216  15.649  14.362  13.350 -0.0555  0.1233 -0.0631
 5693W        W23217   5.674   0.424  13.948 -0.3754  0.1686 -0.2503
 5694W        W23218   5.144  16.973   0.026 -0.1421 -0.3048  0.1414
 5695W        W23219   4.884  16.481   2.045 -0.1905  0.0107  0.0647
 5696W        W23220   0.568   9.328   0.352 -0.1717  0.0134 -0.1485
 5697W        W23221  12.590   3.263  14.799  0.4705 -0.1156 -0.1661
 5698W        W23222  16.106  17.333  11.558  0.1311  0.0892 -0.0123
 5699W        W23223   1.463  13.343   2.963  0.3645  0.1219 -0.3362
 5700W        W23224  12.907   7.129  15.096  0.2621  0.1040 -0.2512
 5701W        W23225   2.720  15.427  14.438 -0.0583 -0.1237  0.0349
 5702W        W23226  11.289  12.998  15.071 -0.1468 -0.0644 -0.1663
 5703W        W23227   7.073   8.397  10.626 -0.0494  0.0098  0.0816
 5704W        W23228   3.091  15.344  12.043  0.1140  0.1200  0.2250
 5705W        W23229  14.581   8.848  12.691  0.0256  0.4961 -0.1185
 5706W        W23230  13.658  17.333   1.295 -0.1649 -0.0489  0.0285
 5707W        W23231   8.677  14.679   0.164  0.3938 -0.1091 -0.0592
 5708W        W23232   0.512   3.382  10.558  0.0066 -0.0413 -0.0875
 5709W        W23233   4.202  15.168   4.377  0.1169  0.0184  0.1409
 5710W        W23234  13.661   0.609   4.737  0.1619 -0.1516  0.3506
 5711W        W23235  10.476   2.125   4.910 -0.1427  0.0749 -0.1723
 5712W        W23236  11.220   8.508  11.661  0.2211 -0.0811  0.0742
 5713W        W23237   3.093  16.265  13.935  0.1857  0.1190 -0.0741
 5714W        W23238   0.837  13.691   3.479  0.1897 -0.0827  0.3708
 5715W        W23239  10.765  12.037  12.884  0.0727 -0.2622 -0.1468
 5716W        W23240   3.397   5.417  12.735  0.3030  0.0407  0.1363
 5717W        W23241   3.573   5.908  12.798  0.2531 -0.1570  0.0139
 5718W        W23242   7.985   9.866   5.480 -0.0413 -0.4146 -0.2873
 5719W        W23243  16.667  13.226  15.989  0.1205 -0.0826  0.4014
 5720W        W23244  15.394   9.469   0.724  0.0884  0.0589 -0.1364
 5721W        W23245   2.178   1.705   3.513  0.0904  0.2473 -0.3541
 5722W        W23246  14.702   9.140  14.672 -0.1641 -0.0248  0.2756
 5723W        W23247  17.308  17.835   3.346 -0.0964 -0.0456  0.1018
 5724W        W23248   8.537   2.255   2.519  0.1065  0.2576  0.1125
 5725W        W23249  17.262   2.943   0.064 -0.2265 -0.2515  0.1822
 5726W        W23250   3.611  10.538   1.779 -0.3861 -0.0301 -0.0581
 5727W        W23251   6.769  17.456   0.045 -0.0750  0.0947 -0.1434
 5728W        W23252  14.623   2.212   3.872  0.0739  0.3828 -0.1212
 5729W        W23253   3.222   4.746   3.145 -0.1114 -0.2331  0.0935
 5730W        W23254   9.330  10.098   1.776  0.0512  0.0020 -0.2101
 5731W        W23255   0.386  17.691  13.321  0.2566 -0.3739 -0.2392
 5732W        W23256  16.582   2.650  11.902  0.1159  0.0824 -0.0978
 5733W        W23257  13.899  10.732  13.681 -0.0162 -0.2381  0.0788
 5734W        W23258   8.263  12.012   3.031 -0.1932  0.0554 -0.0204
 5735W        W23259   8.338  12.238   4.877 -0.0224  0.1603 -0.3327
 5736W        W23260   8.971   5.713  15.795 -0.2374  0.0077  0.2630
 5737W        W23261   8.575   3.219   3.043 -0.0374 -0.1856 -0.2029
 5738W        W23262  11.402   6.126  15.593 -0.0530  0.0509  0.2788
 5739W        W23263  10.611   2.553   0.005  0.0063  0.1589  0.0687
 5740W        W23264   3.055   5.206  10.156 -0.1823 -0.0708  0.1254
 5741W        W23265   8.371   4.292  12.469 -0.3281 -0.2495 -0.3030
 5742W        W23266  10.209   6.033   3.395  0.0088 -0.1372  0.0266
 5743W        W23267   8.199   0.047  14.070  0.0776 -0.0195 -0.1649
 5744W        W23268  12.559   2.702   1.748  0.0976 -0.1089 -0.2176
 5745W        W23269   2.254  12.596  11.807  0.0334  0.2704  0.1321
 5746W        W23270   6.826   9.954  15.701 -0.0976  0.0667  0.0802
 5747W        W23271   4.584   8.551   1.785 -0.4114  0.1201 -0.3950
 5748W        W23272   4.478   7.192  12.638 -0.1523  0.1497 -0.1974
 5749W        W23273  12.567  13.211  12.607 -0.1533  0.0850  0.4340
 5750W        W23274  12.433  12.257  15.851 -0.0134  0.2615 -0.0541
 5751W        W23275   5.313   4.015   1.301 -0.0088 -0.0510 -0.0293
 5752W        W23276  13.260   5.055   3.125 -0.0041  0.1814  0.1394
 5753W        W23277  14.786  12.923   3.496  0.0131  0.2263 -0.4075
 5754W        W23278  15.937  12.845   0.481 -0.1745  0.0464 -0.0081
 5755W        W23279   2.372   7.847  15.822  0.0954 -0.1534  0.2596
 5756W        W23280   8.112  13.936  13.976  0.2159  0.1589  0.2953
 5757W        W23281  11.427   8.806  15.727  0.0145  0.0381 -0.1387
 5758W        W23282  13.373   7.082  14.371  0.2913 -0.1328  0.0580
 5759W        W23283   4.285   0.110   2.034  0.0284  0.0475  0.2052
 5760W        W23284   9.221  10.521  12.279 -0.0097 -0.2808 -0.2370
 5761W        W23285   7.015   9.018  12.743 -0.1428  0.0443 -0.4356
 5762W        W23286   6.687   5.488  13.237 -0.0591 -0.1363  0.2541
 5763W        W23287   6.237   7.688   3.064  0.2455 -0.2725 -0.1162
 5764W        W23288   5.404  15.591  12.725  0.0396 -0.1150 -0.0997
 5765W        W23289   7.191  10.246   3.068  0.1339  0.0955 -0.1145
 5766W        W23290  12.545   4.898   4.156 -0.2155  0.0307  0.1792
 5767W        W23291   2.862  13.862  13.542  0.1244 -0.0858 -0.2318
 5768W        W23292   1.718  11.174   4.946 -0.0908 -0.2014 -0.2526
 5769W        W23293  17.742   0.188  13.697 -0.0493 -0.2533 -0.3242
 5770W        W23294  12.862   5.591  12.064  0.1357  0.1651  0.3229
 5771W        W23295  15.382   4.981  12.832 -0.0789 -0.2285  0.0267
 5772W        W23296   2.386  13.152   2.270  0.1868  0.0313 -0.0585
 5773W        W23297  14.029  14.248   0.177 -0.4088  0.1127 -0.0291
 5774W        W23298  17.470  16.327   4.491 -0.0849 -0.3035  0.1554
 5775W        W23299   4.324   6.818  13.005 -0.0124 -0.0361  0.0972
 5776W        W23300  14.031   3.596  14.204  0.2947 -0.0429  0.0357
 5777W        W23301  13.698   8.093  14.651  0.0256 -0.0005  0.0144
 5778W        W23302  11.899   7.395  14.306 -0.2023  0.3268 -0.4238
 5779W        W23303  13.579   8.892  12.562  0.0803  0.3263  0.1044
 5780W        W23304  14.144  14.456   0.971 -0.0648 -0.0674 -0.1632
 5781W        W23305   3.746   9.499  15.516 -0.1742  0.0315  0.0812
 5782W        W23306   0.632  12.864  12.397  0.0846  0.0063  0.2869
 5783W        W23307  10.405  15.456   1.743  0.2793 -0.1698  0.0224
 5784W        W23308   3.203   3.807  12.588  0.0743  0.0398  0.3566
 5785W        W23309   7.191   1.060  11.852 -0.0049  0.0003 -0.0105
 5786W        W23310   9.478  11.532  13.591  0.0663  0.0556  0.1237
 5787W        W23311   5.476  12.339   5.756  0.1012 -0.2601 -0.1105
 5788W        W23312   6.519  15.993  15.645  0.1109  0.0950 -0.2446
 5789W        W23313   8.878   0.714  12.331 -0.2260 -0.0759  0.0028
 5790W        W23314   8.203   1.141  10.997  0.0527  0.1373 -0.1105
 5791W        W23315   6.954  17.357  15.660 -0.0963  0.3135  0.3105
 5792W        W23316   3.434   6.240  14.502 -0.0982 -0.4140  0.0865
 5793W        W23317   1.483  17.458  15.686  0.1306 -0.0600  0.0092
 5794W        W23318  12.859   9.914   1.215 -0.1346  0.1441 -0.2454
 5795W        W23319  10.136  14.040   1.356 -0.2117 -0.1740 -0.1261
 5796W        W23320   7.065   0.959   3.018 -0.0327  0.1862  0.2842
 5797W        W23321  13.211  17.976   4.322 -0.0649 -0.0676  0.2295
 5798W        W23322   9.342  16.790  12.963  0.0844 -0.2384 -0.0197
 5799W        W23323  15.735   1.307   1.643  0.2759 -0.1184 -0.0379
 5800W        W23324   8.568  10.407  15.171  0.1717  0.3576 -0.0525
 5801W        W23325  17.021  12.514   3.605  0.1297  0.0021 -0.0339
 5802W        W23326  13.864  16.004  12.546  0.3148  0.1549  0.0555
 5803W        W23327   9.934   9.466   2.055  0.3883  0.3106  0.0432
 5804W        W23328  12.864  16.913  12.664 -0.1059  0.1088 -0.2002
 5805W        W23329   3.285  10.316   1.454 -0.0582  0.0070 -0.0344
 5806W        W23330   8.062   7.788  14.316 -0.1373  0.0544 -0.3088
 5807W        W23331   6.083  12.057  11.312  0.1794  0.1106 -0.0095
 5808W        W23332   8.591   4.094  15.715 -0.1662  0.0516  0.0036
 5809W        W23333   3.831   4.347  13.815  0.0742  0.0378  0.0768
 5810W        W23334   3.639   9.082   3.634  0.1923  0.3317 -0.1787
 5811W        W23335   2.883   6.807  12.934 -0.0343  0.4229  0.0376
 5812W        W23336   1.136  10.518  15.574 -0.2048 -0.1293 -0.3107
 5813W        W23337  15.167   6.119  14.953  0.1483  0.0787 -0.3923
 5814W        W23338  10.257   9.911  15.389 -0.1821 -0.2557 -0.0333
 5815W        W23339  11.688  14.853  14.454 -0.0741  0.1186 -0.1475
 5816W        W23340  17.518  12.606  12.781 -0.2470  0.2183  0.0276
 5817W        W23341  14.976  13.503   4.450  0.0980 -0.3794  0.2774
 5818W        W23342  17.904   0.341   2.880 -0.2146  0.4088 -0.0237
 5819W        W23343   6.532  12.648  11.387  0.0996  0.0913 -0.5360
 5820W        W23344  11.773  16.117  12.720 -0.0605  0.4585 -0.1801
 5821W        W23345   7.163  17.869   2.290 -0.4553  0.0605  0.1395
 5822W        W23346  18.065   0.876   1.721 -0.1969  0.1996  0.0390
 5823W        W23347  11.096   7.552   4.236 -0.2060 -0.1228 -0.1616
 5824W        W23348   5.298  13.083  14.791  0.0554  0.0561  0.3646
 5825W        W23349   7.617  10.612  13.511 -0.0719 -0.0309 -0.2412
 5826W        W23350   3.846   7.675  15.212  0.0555 -0.0717  0.1190
 5827W        W23351  11.912   3.091  12.936 -0.0089 -0.3235 -0.0236
 5828W        W23352  10.565  12.994   2.877  0.1339 -0.1299  0.0860
 5829W        W23353   9.287   1.770  15.053  0.3115 -0.1855 -0.3297
 5830W        W23354   1.484  10.813   4.699 -0.0938 -0.2723  0.0509
 5831W        W23355   5.496   0.646   3.848 -0.0453  0.1553 -0.2386
 5832W        W23356  14.728  13.629  14.457  0.2424  0.3299  0.2651
 5833W        W23357  17.072   5.006   0.239 -0.3225  0.2682 -0.2246
 5834W        W23358   2.203   5.810  12.721 -0.3084  0.2910 -0.1517
 5835W        W23359   5.525   4.106   3.646 -0.0490 -0.0029 -0.1738
 5836W        W23360   0.961   3.563  14.292 -0.0614  0.1799  0.2657
 5837W        W23361  17.540  14.256  13.220 -0.0696  0.0144 -0.0575
 5838W        W23362   3.948   9.119   1.750  0.2987 -0.0848  0.0135
 5839W        W23363   5.340  16.905   2.772 -0.0059  0.1505  0.3999
 5840W        W23364  12.861  13.826  15.295  0.2512 -0.3160 -0.1579
 5841W        W23365   1.222  15.339  15.657 -0.0508 -0.3967  0.1650
 5842W        W23366  17.867   1.006  12.255 -0.3221 -0.0932 -0.2546
 5843W        W23367   6.243  13.798  12.437  0.1888  0.1842  0.1898
 5844W        W23368   4.541  13.756  10.321  0.0864  0.0542 -0.0232
 5845W        W23369  15.969  10.593  11.401  0.2310  0.2190 -0.0296
 5846W        W23370  12.436  17.665  15.261 -0.0226 -0.1465 -0.2568
 5847W        W23371   2.331   5.942  14.118  0.1185  0.1133  0.0788
 5848W        W23372   3.466  15.672  11.937 -0.2320 -0.1442 -0.0609
 5849W        W23373   1.448   6.411   2.712  0.3098 -0.0071  0.0090
 5850W        W23374   4.872   5.857  11.175 -0.3859 -0.2627 -0.1010
 5851W        W23375   4.319  15.303   3.872 -0.2004 -0.0663 -0.1226
 5852W        W23376   0.346  13.646   4.297 -0.1622 -0.1209 -0.2778
 5853W        W23377  13.745   8.305  11.754  0.0419  0.0072  0.0410
 5854W        W23378   8.956  17.957  12.415  0.2873 -0.2221  0.1426
 5855W        W23379   0.831  10.341   1.402  0.4932 -0.0199  0.0266
 5856W        W23380  11.958   1.192  13.622  0.1082  0.0206 -0.4002
 5857W        W23381  17.392   8.934  12.319  0.2335 -0.2336 -0.4106
 5858W        W23382  14.230   4.873   1.084  0.1555 -0.0080  0.3820
 5859W        W23383   6.649  16.139   2.046  0.1490 -0.2114  0.0963
 5860W        W23384  15.502   9.366  12.191 -0.0243  0.1189 -0.0912
 5861W        W23385   5.694   4.670  14.525 -0.2140  0.1825  0.0075
 5862W        W23386   8.772   6.534   1.051 -0.1670  0.1083 -0.1697
 5863W        W23387   6.189  10.404  11.307  0.0921 -0.1290 -0.2166
 5864W        W23388  16.675  17.375  11.440 -0.4823  0.4793 -0.1950
 5865W        W23389  16.164  12.094   0.885 -0.2133  0.0288  0.1226
 5866W        W23390  14.200   1.951   4.263 -0.3945  0.0355 -0.1170
 5867W        W23391   9.822   1.302  11.988 -0.1366  0.1334  0.1159
 5868W        W23392  10.677  15.886   1.166 -0.0345 -0.0012  0.0604
 5869W        W23393  12.477   2.726  11.794  0.1009 -0.1350 -0.1703
 5870W        W23394  10.687  13.157  12.592  0.1350  0.0290 -0.4163
 5871W        W23395  10.363  17.503   5.626  0.0038  0.3015 -0.1820
 5872W        W23396   0.782  16.683   3.396  0.0297 -0.1406 -0.2141
 5873W        W23397   1.217  12.867  15.217 -0.1764  0.2502 -0.0523
 5874W        W23398  13.835   4.145   0.402 -0.0888 -0.0223 -0.0402
 5875W        W23399  10.224   5.373  15.892 -0.1869 -0.1414  0.0191
 5876W        W23400   6.926   5.132  14.347 -0.3123 -0.1821  0.1090
 5877W        W23401  12.411   4.364   0.163 -0.0722  0.0610  0.0290
 5878W        W23402  10.468   5.660  14.377 -0.0482  0.3091 -0.0752
 5879W        W23403  17.050  15.543   1.359  0.2715  0.3685  0.2303
 5880W        W23404   4.567   2.848  12.738  0.0199  0.1671  0.1055
 5881W        W23405   3.109  17.130  15.626 -0.3151  0.1779 -0.2466
 5882W        W23406   7.273  14.035   5.211 -0.0011 -0.2127 -0.2251
 5883W        W23407   1.481   4.659  12.311  0.0378 -0.2216 -0.1586
 5884W        W23408   4.660  13.250   1.248  0.0596 -0.1197 -0.4328
 5885W        W23409   9.609   6.848  12.505 -0.0078  0.0592  0.1055
 5886W        W23410  16.245   4.034  11.228 -0.1601  0.2442  0.0351
 5887W        W23411   8.557   2.030   2.001  0.0432  0.0481 -0.0641
 5888W        W23412  10.619   9.238  14.832 -0.1397 -0.1338  0.0895
 5889W        W23413  13.475  12.544  12.697 -0.0517 -0.0572 -0.1725
 5890W        W23414   4.338   0.321  11.265  0.0774  0.0247 -0.0183
 5891W        W23415   6.905   6.005   3.204  0.0262  0.0156  0.2277
 5892W        W23416   1.332   4.943  13.887  0.0700 -0.0538 -0.0067
 5893W        W23417  10.129  14.274  15.037  0.0456 -0.1031 -0.0096
 5894W        W23418   0.971   2.881  12.254 -0.1594  0.1851 -0.2404
 5895W        W23419   9.340  12.948   4.111  0.0317  0.0149 -0.2054
 5896W        W23420  14.499  14.476  12.798 -0.1747  0.0493  0.4111
 5897W        W23421  16.728   6.121  12.474  0.1453  0.0224 -0.1777
 5898W        W23422  12.602   1.499   0.592  0.1364 -0.1581 -0.1215
 5899W        W23423   7.394  11.572  15.338  0.0749  0.0654  0.2073
 5900W        W23424  13.663   4.971  10.995  0.3002  0.0389 -0.3983
 5901W        W23425   8.615  16.886   3.824 -0.2270  0.2316 -0.4303
 5902W        W23426  10.112  15.981  15.088  0.1864 -0.2320 -0.0908
 5903W        W23427  16.823   9.529   3.418  0.3295 -0.2483 -0.4528
 5904W        W23428  11.058   0.978   1.556 -0.0433 -0.2152 -0.0371
 5905W        W23429   9.809   7.727   0.385 -0.1179  0.3627 -0.3850
 5906W        W23430   4.659  10.285  12.463 -0.2067 -0.0810 -0.0624
 5907W        W23431   2.655  14.904  14.092  0.2778 -0.1918 -0.1310
 5908W        W23432  14.740   2.420  13.372 -0.0273 -0.0757 -0.0324
 5909W        W23433  17.532   9.774  12.818 -0.2276  0.5392 -0.2328
 5910W        W23434  14.587   4.813  14.965 -0.2750 -0.3210  0.0135
 5911W        W23435   8.874  14.049  12.414 -0.0151 -0.0534 -0.0960
 5912W        W23436  13.233  11.603  13.628  0.0235 -0.4144  0.3002
 5913W        W23437  17.875   1.073   3.118  0.1939 -0.1307 -0.0393
 5914W        W23438   2.634   7.169   4.676 -0.0933 -0.0956  0.2470
 5915W        W23439  15.726  17.190   2.199  0.1337 -0.1376 -0.2165
 5916W        W23440  11.652  10.735  11.239  0.2754  0.2355 -0.4137
 5917W        W23441   3.434   5.197  13.519  0.0094  0.1781  0.0591
 5918W        W23442  10.619  16.095  13.337  0.0431 -0.3136  0.1592
 5919W        W23443   6.330  12.277   3.340  0.2852  0.0958  0.3861
 5920W        W23444   8.570  14.584   5.288  0.0247 -0.3151  0.1155
 5921W        W23445   8.896   1.503  11.518 -0.3319  0.5719  0.0041
 5922W        W23446   8.967  12.429  12.757 -0.0211  0.0040 -0.0375
 5923W        W23447  15.700   1.352   0.712 -0.1569 -0.0272  0.0972
 5924W        W23448  13.521   4.821  14.453 -0.1280 -0.2763  0.0173
 5925W        W23449  10.562   0.363   3.009  0.1571 -0.0336 -0.2778
 5926W        W23450  10.964  14.164  13.387 -0.0441  0.1719  0.4827
 5927W        W23451  13.554  16.613  11.304 -0.0324 -0.1521  0.1478
 5928W        W23452   0.769   5.297   5.895  0.0041 -0.4869  0.2189
 5929W        W23453  12.387   3.514   4.738 -0.3370 -0.2566 -0.0709
 5930W        W23454  14.086   2.766   0.432 -0.0869  0.3464  0.0892
 5931W        W23455   9.962  11.845   1.006 -0.1549 -0.3769  0.0488
 5932W        W23456   7.145  10.848   2.981 -0.0209  0.1832  0.1289
 5933W        W23457  17.762  10.962  13.075 -0.1472 -0.0586  0.2303
 5934W        W23458   0.632   1.859  14.352  0.2562 -0.0840 -0.2131
 5935W        W23459  12.821   4.698   3.061 -0.1524 -0.1315  0.0434
 5936W        W23460  12.565   7.122   6.229 -0.0414 -0.0132 -0.1007
 5937W        W23461   2.312  17.430  12.183  0.2127  0.0141  0.1770
 5938W        W23462  10.462   2.743  13.125 -0.1223  0.1837  0.0268
 5939W        W23463  10.389   6.576   2.734  0.0131  0.0893  0.1373
 5940W        W23464  15.032  14.480   4.425 -0.0173  0.0332 -0.0096
 5941W        W23465  17.857   9.287   5.987  0.1063  0.1504  0.1212
 5942W        W23466   9.986   4.997   3.943 -0.3020 -0.1550  0.1839
 5943W        W23467   0.481   2.265   3.133  0.0353  0.1799  0.1501
 5944W        W23468  16.221   2.317  13.928 -0.1858  0.1119  0.0362
 5945W        W23469   5.679  10.516   0.516 -0.0766 -0.3092  0.2163
 5946W        W23470   0.241  10.208  15.968 -0.2046 -0.0573 -0.1164
 5947W        W23471   5.806  17.235  12.370 -0.0983  0.3103  0.2963
 5948W        W23472   6.351  13.533  15.380 -0.2746  0.0318 -0.0712
 5949W        W23473   8.729   8.649   2.376  0.0807 -0.2869  0.4041
 5950W        W23474   2.352   7.117  11.182  0.0683  0.2883 -0.1295
 5951W        W23475   4.119   4.667   0.896  0.3498  0.0318  0.0014
 5952W        W23476   7.525   2.494   1.141  0.1657  0.2848  0.1016
 5953W        W23477   1.430   3.775   0.254  0.0965  0.0623 -0.0552
 5954W        W23478   4.163  10.755  12.125  0.2570  0.1271 -0.0073
 5955W        W23479  14.184   4.812  10.012  0.0816 -0.0698 -0.0577
 5956W        W23480  16.642   8.026  13.724 -0.1084 -0.4355  0.1671
 5957W        W23481   8.172   5.478  11.642 -0.2048  0.0557  0.0214
 5958W        W23482  11.691  17.243  11.342 -0.0977 -0.0864 -0.2947
 5959W        W23483  15.689   8.341   3.757  0.2230  0.0205 -0.0130
 5960W        W23484  16.062   8.945  16.038 -0.3777 -0.0936 -0.2085
 5961W        W23485  13.529  11.234  13.515 -0.0432  0.3101 -0.1847
 5962W        W23486   0.983  13.066   4.299  0.0287 -0.2892  0.2263
 5963W        W23487   0.227  12.911  13.049  0.0395  0.2556 -0.1512
 5964W        W23488  15.099   7.839  14.260  0.1220  0.1054  0.0020
 5965W        W23489   3.123  17.267   4.435 -0.2570 -0.0614 -0.1500
 5966W        W23490  12.586  12.494  13.877  0.2216  0.1920  0.0744
 5967W        W23491   8.754   6.728  11.812  0.2207 -0.3069 -0.2225
 5968W        W23492  10.720   5.191  15.200  0.1437  0.0590 -0.1489
 5969W        W23493   6.069  14.305   3.698 -0.3039 -0.1636 -0.1946
 5970W        W23494  16.634  16.016   4.850 -0.0827 -0.1279 -0.0401
 5971W        W23495   5.319   2.943  14.872  0.2001  0.0673 -0.2953
 5972W        W23496   9.982  13.840   3.466  0.0278 -0.2310 -0.0590
 5973W        W23497   7.741   7.245  11.894  0.0979  0.3532  0.1788
 5974W        W23498  13.332   7.134   2.804 -0.2144 -0.1508  0.1127
 5975W        W23499  16.286   1.158   3.037 -0.1867 -0.2279 -0.4625
 5976W        W23500   7.706   3.117  13.630 -0.0217  0.0335 -0.3338
 5977W        W23501   2.941   1.864  13.119  0.1024 -0.3029 -0.3127
 5978W        W23502  13.206  17.461  14.860  0.1370 -0.2280  0.0219
 5979W        W23503   3.870   9.831   3.109  0.0438  0.0653 -0.0439
 5980W        W23504   3.593   8.924  13.163 -0.0934  0.1156  0.1531
 5981W        W23505   1.778   0.247   3.635  0.1923  0.0409 -0.1010
 5982W        W23506   2.002   8.373   3.168  0.0405 -0.1453  0.1561
 5983W        W23507   6.592   0.983   0.369  0.0321  0.2424  0.1703
 5984W        W23508   0.743  15.393  15.801  0.2108 -0.2212 -0.0934
 5985W        W23509   3.528  15.841  14.026  0.0612  0.1008  0.1609
 5986W        W23510  17.775  17.496   2.665 -0.0643  0.0251 -0.1823
 5987W        W23511  17.996  14.707   1.356  0.3163  0.3076 -0.1766
 5988W        W23512   1.019   0.616  15.488  0.1757 -0.0495  0.2142
 5989W        W23513   7.404   9.657  14.505  0.0244 -0.2935 -0.3013
 5990W        W23514   0.819  11.394  11.420 -0.2211 -0.2455  0.1314
 5991W        W23515  18.088   8.853   4.381 -0.0821  0.0038  0.0271
 5992W        W23516   9.626   6.143  11.558 -0.0820  0.1020 -0.2555
 5993W        W23517  16.998   6.698   2.304  0.3524  0.0313 -0.1493
 5994W        W23518   8.216   1.797   1.750 -0.0225  0.1836 -0.0763
 5995W        W23519  17.171  15.071   3.328 -0.0285  0.2253  0.0484
 5996W        W23520  17.036   5.229  12.130  0.3624  0.2206  0.0062
 5997W        W23521   7.278  11.416   2.110 -0.2635 -0.2777 -0.2469
 5998W        W23522  10.820   1.377  12.987  0.2266 -0.3598 -0.0888
 5999W        W23523  16.814  12.603  14.331  0.0499  0.0982 -0.1098
 6000W        W23524  12.731  15.524  14.006 -0.3567 -0.0040 -0.0320
 6001W        W23525   2.882   6.922  13.874  0.2080 -0.0693  0.0942
 6002W        W23526   1.172   1.245   4.272 -0.0285 -0.0823  0.0269
 6003W        W23527   7.760  11.321   0.319  0.1660 -0.1472 -0.0531
 6004W        W23528   3.216  15.078  14.538  0.3050  0.2018  0.0931
 6005W        W23529  11.817   1.228   4.447 -0.0664  0.1469  0.0779
 6006W        W23530  14.776   8.128  14.491  0.1256 -0.2584  0.0635
 6007W        W23531  10.909  17.726   2.673  0.0127  0.0252 -0.1141
 6008W        W23532   2.838   9.071   2.399 -0.2162  0.2098  0.1361
 6009W        W23533  13.788  17.871   1.187  0.3269 -0.2163 -0.0980
 6010W        W23534   5.986  16.280   4.395 -0.0757  0.2066 -0.3295
 6011W        W23535  14.599  15.025   5.085  0.1060 -0.0459  0.0215
 6012W        W23536  14.997   3.736  14.394 -0.3497 -0.1568 -0.2084
 6013W        W23537  14.927  13.742   1.799  0.3129 -0.2421  0.0177
 6014W        W23538   8.385  12.765   4.865  0.1665 -0.0066  0.1416
 6015W        W23539  15.842  10.405  11.812  0.0061 -0.0568 -0.2113
 6016W        W23540   0.741   6.305  11.766  0.0204 -0.1647  0.1525
 6017W        W23541  16.789   4.731   1.580  0.0406 -0.1645  0.3401
 6018W        W23542  17.135   3.705   1.363 -0.2858 -0.0434 -0.1678
 6019W        W23543  11.194   1.485   0.570 -0.0165  0.1238  0.3367
 6020W        W23544  16.029  12.311   1.391 -0.1983 -0.1967  0.2827
 6021W        W23545  10.210  14.981   1.791  0.2458  0.1027 -0.0277
 6022W        W23546  14.074   0.984   0.526 -0.0969  0.2509 -0.1290
 6023W        W23547  15.785   1.529  13.696 -0.1347 -0.0235 -0.1712
 6024W        W23548  10.884   5.077  10.285 -0.1363 -0.0774 -0.0922
 6025W        W23549  14.579  16.954   3.857 -0.0043 -0.1864  0.1129
 6026W        W23550   0.088   5.166  11.368 -0.0495  0.3176 -0.0202
 6027W        W23551   0.201   2.937   4.424  0.4434  0.0167  0.0627
 6028W        W23552   5.327   8.865   3.133  0.0877  0.0446 -0.0288
 6029W        W23553  10.830   6.130  15.618  0.2595  0.0957 -0.1223
 6030W        W23554  12.022  17.475  14.483 -0.0991  0.2502  0.0533
 6031W        W23555   4.635   2.087  13.816  0.1025 -0.1221 -0.1563
 6032W        W23556  16.798  17.036  12.764 -0.2466  0.3429  0.2323
 6033W        W23557   9.575   2.046  16.042  0.0484  0.2640 -0.0643
 6034W        W23558   1.205   2.190  13.366  0.2814 -0.2063  0.0538
 6035W        W23559  11.768  12.393   1.464  0.0726 -0.0539 -0.0445
 6036W        W23560  16.968  17.851  14.850 -0.0678  0.2269  0.1680
 6037W        W23561  14.314  10.526   0.798 -0.2423  0.4964 -0.0216
 6038W        W23562  11.975   8.358   1.740  0.0714 -0.0670 -0.2983
 6039W        W23563  13.956   4.113  14.937  0.0550 -0.2706  0.1789
 6040W        W23564   0.814   9.737   1.313  0.5581  0.0250 -0.1852
 6041W        W23565  17.274   4.719  11.200  0.1622  0.2895 -0.1976
 6042W        W23566  14.168  17.439   1.469  0.0910  0.2318 -0.0636
 6043W        W23567  13.718   7.963   4.808  0.1060  0.0001 -0.2560
 6044W        W23568   2.266   1.970  14.894  0.0474 -0.1779  0.1418
 6045W        W23569   4.012  17.180  15.090 -0.0622 -0.2103 -0.1740
 6046W        W23570  10.287  14.667  10.097  0.0324  0.0976 -0.0317
 6047W        W23571  13.790  16.839   2.075  0.1681 -0.0775  0.0073
 6048W        W23572   4.790   8.510  11.123 -0.0842  0.3566 -0.2708
 6049W        W23573  11.580   7.751  14.046  0.1760 -0.2394 -0.0093
 6050W        W23574  17.775  10.096   4.165 -0.2468  0.2327  0.1929
 6051W        W23575   4.825  14.875  12.426 -0.1675  0.2274 -0.3571
 6052W        W23576   5.691   1.339  13.512 -0.1351  0.1147 -0.0672
 6053W        W23577   3.766  10.929  11.817 -0.1622 -0.0264  0.0920
 6054W        W23578   7.777   8.279   0.399  0.0481  0.0635 -0.0164
 6055W        W23579  17.413   2.339  11.493 -0.1398 -0.0074 -0.0003
 6056W        W23580  18.114   2.946   1.005  0.1990  0.0110 -0.0423
 6057W        W23581   6.229  15.527   0.786 -0.0343 -0.1122 -0.2596
 6058W        W23582   2.666  17.273   4.159 -0.0672  0.1674  0.0211
 6059W        W23583   5.486  15.895   1.971  0.0387 -0.3501 -0.2519
 6060W        W23584   4.552   2.715  11.728  0.2773 -0.1238  0.0499
 6061W        W23585   1.457   3.580  14.378 -0.0700  0.0960 -0.0679
 6062W        W23586  10.145   4.801  11.234 -0.0319  0.1257  0.4918
 6063W        W23587   8.976  15.113  11.669  0.1926 -0.2734  0.0726
 6064W        W23588  13.443   9.411  14.893 -0.0760  0.2330 -0.1163
 6065W        W23589  10.031  15.191  13.959  0.4080  0.2148  0.2641
 6066W        W23590  11.649   6.829   1.310 -0.2538  0.1124  0.1974
 6067W        W23591  13.205   7.844  14.686  0.0808  0.4535 -0.0612
 6068W        W23592   4.162  10.524  10.638  0.2093  0.1359 -0.0218
 6069W        W23593   4.723   7.577   2.046  0.1929  0.1546  0.0830
 6070W        W23594   8.536  14.798   2.272  0.2057 -0.1716  0.1991
 6071W        W23595   2.294  10.401  11.499  0.1559 -0.0939 -0.1516
 6072W        W23596   2.829   3.419   2.385 -0.0610  0.0674 -0.0034
 6073W        W23597   2.059   5.757   0.129  0.1138  0.1670  0.3161
 6074W        W23598   1.942   0.051   1.113 -0.1914 -0.0434 -0.2053
 6075W        W23599   4.055  13.516   2.045 -0.0493 -0.0721 -0.1670
 6076W        W23600   5.053   0.819  14.466 -0.1538 -0.1686 -0.0303
 6077W        W23601  14.529  17.168  15.822  0.7018  0.0456  0.2912
 6078W        W23602   6.844   6.745  10.757  0.1252 -0.1801 -0.1456
 6079W        W23603   9.680   7.487   4.942  0.2918  0.0822 -0.0706
 6080W        W23604   5.548  17.391   3.757 -0.0246  0.4864 -0.0699
 6081W        W23605  13.631   2.080   3.587  0.3000  0.0279 -0.0884
 6082W        W23606  13.791   7.513   0.133 -0.1083 -0.1473  0.0836
 6083W        W23607  17.125   9.211  10.827  0.2895  0.1466  0.2969
 6084W        W23608   6.984   4.371  15.665 -0.2333 -0.0808  0.2217
 6085W        W23609   8.808   1.014   1.151 -0.1858 -0.1937 -0.1496
 6086W        W23610  13.811   4.716   0.142 -0.2073  0.0185 -0.0275
 6087W        W23611  13.925  16.546  15.645 -0.0187 -0.2196  0.0309
 6088W        W23612   0.977   4.683  15.713 -0.2676 -0.2250 -0.2356
 6089W        W23613   3.860   4.242   0.047  0.0440  0.2766 -0.0186
 6090W        W23614  17.733  18.012   1.380 -0.1394 -0.0603 -0.0556
 6091W        W23615   5.567  11.037  12.150 -0.0308 -0.2003 -0.2028
 6092W        W23616  16.520   3.932  13.852  0.0822  0.1489  0.0155
 6093W        W23617  12.880   2.729  15.780  0.1499 -0.1873  0.0672
 6094W        W23618   9.395   8.493   2.427  0.1157  0.0875  0.0469
 6095W        W23619   0.764   6.366   4.763  0.1690 -0.1539 -0.0418
 6096W        W23620  12.191   1.326   3.738  0.2064 -0.1781 -0.3067
 6097W        W23621  14.230  16.572   5.319 -0.0968 -0.3077 -0.0478
 6098W        W23622   7.814   6.560   5.609 -0.3271  0.1671  0.0942
 6099W        W23623   8.510  14.250   5.655 -0.0727  0.0641 -0.1602
 6100W        W23624   2.644   5.914   3.785 -0.1530 -0.1458  0.1362
 6101W        W23625   3.088   0.073  13.968 -0.4279  0.2824 -0.0478
 6102W        W23626   6.820  16.137  11.922  0.3333  0.0746 -0.1956
 6103W        W23627  12.061  10.270   3.674 -0.3357  0.0593 -0.1218
 6104W        W23628   5.998   8.347   4.985 -0.1871 -0.2751 -0.0115
 6105W        W23629   1.859   9.679  12.885  0.2154  0.0417 -0.1342
 6106W        W23630  11.670  10.884   1.124  0.2419 -0.1919 -0.0769
 6107W        W23631  14.795   8.449  15.804 -0.3707  0.3429 -0.2249
 6108W        W23632  17.820  15.890   1.061 -0.0557 -0.0770  0.2066
 6109W        W23633   3.226   4.010  15.301 -0.0163 -0.1836 -0.0531
 6110W        W23634   3.981  15.731  12.743 -0.1584 -0.0747 -0.3155
 6111W        W23635   1.101  18.138  12.134  0.1125 -0.1308 -0.3153
 6112W        W23636   5.040   8.342   0.255 -0.0545 -0.0941 -0.0909
 6113W        W23637  13.882   7.130  15.394  0.1136 -0.0239  0.1182
 6114W        W23638   0.065  10.152   3.732  0.0935 -0.1405  0.1708
 6115W        W23639   9.943   1.797  15.769  0.1615 -0.1851 -0.0905
 6116W        W23640   0.326  16.738  15.877  0.1524  0.2154  0.0327
 6117W        W23641  13.066  10.667  13.551  0.1976 -0.1408 -0.0755
 6118W        W23642  15.563   0.885   0.344  0.3808 -0.1688  0.2763
 6119W        W23643   3.770  11.846   4.881  0.0112  0.0666 -0.0836
 6120W        W23644   2.177   9.783   1.474  0.3907  0.2978  0.4283
 6121W        W23645  14.197  14.839  14.962  0.0230  0.2875  0.0269
 6122W        W23646   3.451   0.120  11.806 -0.0134 -0.4015 -0.0782
 6123W        W23647  15.080  13.052  13.597  0.1527 -0.2084 -0.1617
 6124W        W23648   0.860  13.633   4.413  0.1858  0.0821  0.0045
 6125W        W23649   3.730   9.981  16.018 -0.0482 -0.0783  0.1353
 6126W        W23650   3.675   0.232  15.680 -0.0728  0.0628  0.1537
 6127W        W23651   3.616   7.164  14.426  0.1149 -0.0758 -0.0840
 6128W        W23652   5.232  11.724  12.537 -0.0736 -0.6815 -0.2028
 6129W        W23653  16.585  10.888  14.030 -0.1780  0.2406 -0.0585
 6130W        W23654   2.178  16.600   3.538  0.0453 -0.0955 -0.0408
 6131W        W23655   3.686   2.672  11.212  0.0988  0.0826  0.3142
 6132W        W23656   6.765   5.311  10.919  0.2316 -0.0030 -0.1862
 6133W        W23657   8.831   7.540  14.373 -0.1634  0.2089  0.3243
 6134W        W23658   2.645  15.148  15.236 -0.0328 -0.0287  0.0493
 6135W        W23659  12.545   4.305  12.578  0.0795 -0.1096 -0.0700
 6136W        W23660   9.404  14.371  14.141 -0.1619 -0.4153 -0.0314
 6137W        W23661   5.348  13.473   1.001  0.0218 -0.1923 -0.2030
 6138W        W23662  17.117  13.299   0.299 -0.1229 -0.0107  0.0480
 6139W        W23663  15.545   7.612  15.049  0.2626 -0.0830  0.0089
 6140W        W23664  12.877   5.557  14.237  0.3152  0.0457  0.1982
 6141W        W23665  17.727  10.666   3.655  0.1279  0.1385 -0.3000
 6142W        W23666  14.188   7.687   1.861  0.1864  0.0406 -0.3735
 6143W        W23667  16.891   3.868  12.935  0.4504  0.2374 -0.1854
 6144W        W23668   5.165  17.552  10.591 -0.1731  0.0970 -0.0692
 6145W        W23669   0.276  11.515   2.920 -0.0260 -0.0173 -0.2001
 6146W        W23670   4.727   9.274   1.116 -0.0711 -0.2690 -0.3051
 6147W        W23671  15.804   5.394  15.273 -0.1711  0.1143 -0.3174
 6148W        W23672   9.208   1.285   0.875 -0.1424  0.1369  0.2894
 6149W        W23673   1.492   2.964   1.286  0.0480  0.0270 -0.0694
 6150W        W23674  12.750  15.255   1.805 -0.1747 -0.1006  0.0495
 6151W        W23675  15.465  12.087   0.051  0.0072 -0.1756 -0.2226
 6152W        W23676   1.092   9.727  11.497  0.1003 -0.3663 -0.1290
 6153W        W23677   5.504  15.166  14.294  0.3649  0.0594 -0.0794
 6154W        W23678  13.320   9.001   2.802  0.1006  0.2509  0.0293
 6155W        W23679   5.177   2.286  12.094  0.2207  0.1576  0.1127
 6156W        W23680  17.269   6.864   4.943  0.2358  0.3012  0.0763
 6157W        W23681   6.713   5.833   1.993 -0.2852  0.1391 -0.1063
 6158W        W23682   9.339  13.858  15.387 -0.0591 -0.1705  0.2299
 6159W        W23683   7.614   8.236  12.731  0.3930 -0.2126 -0.0869
 6160W        W23684   3.639  17.122  14.691  0.4510 -0.2333  0.2465
 6161W        W23685  12.536  12.077   0.841 -0.0710 -0.3266 -0.2935
 6162W        W23686   6.292   6.423   2.114 -0.0660 -0.0354 -0.1757
 6163W        W23687   3.759  12.002   0.915 -0.1234  0.2563  0.1365
 6164W        W23688   8.689   5.357  13.964  0.0447 -0.0238 -0.0618
 6165W        W23689  12.107  12.742  10.976 -0.0077 -0.5470  0.0077
 6166W        W23690   1.887  11.774   3.053 -0.1293 -0.2150  0.0034
 6167W        W23691   2.172   3.838  12.700  0.1568  0.0075 -0.2096
 6168W        W23692   4.727  15.929   1.454  0.0886  0.0922 -0.2805
 6169W        W23693   7.085  12.628   5.996 -0.0704 -0.3154  0.1126
 6170W        W23694   3.363   4.146   2.310  0.1364  0.0694 -0.4139
 6171W        W23695   3.490  11.284  14.160 -0.0519 -0.0329 -0.0692
 6172W        W23696   3.194   5.845   2.999  0.1545  0.0283  0.2592
 6173W        W23697   3.832   2.274  11.466 -0.1483  0.0061 -0.0498
 6174W        W23698  13.144   2.269   3.729  0.1561  0.1966 -0.0785
 6175W        W23699   4.536  13.850   2.408  0.1202 -0.1381 -0.0758
 6176W        W23700  10.363   0.484  15.625  0.1054  0.2754 -0.2358
 6177W        W23701  14.218   6.109   3.686  0.0873 -0.0927 -0.0884
 6178W        W23702  13.978   1.080  15.612  0.2740  0.0177 -0.0650
 6179W        W23703   3.355  17.371  12.900  0.0986 -0.1747  0.3737
 6180W        W23704  18.046  13.834  12.500 -0.2085 -0.0787 -0.0435
 6181W        W23705   3.466   0.433  14.965 -0.0228  0.0127  0.0411
 6182W        W23706   7.558  13.075   5.289 -0.0414  0.1356 -0.0748
 6183W        W23707  10.355   8.986  13.914 -0.1094 -0.1738 -0.0770
 6184W        W23708  16.986  14.588   5.037  0.2284  0.1559 -0.2085
 6185W        W23709   6.940  10.309   4.498 -0.0334  0.3389 -0.2765
 6186W        W23710   4.736   3.357  13.941  0.0979 -0.3277 -0.0867
 6187W        W23711  15.292  16.739   0.236 -0.0745  0.4213 -0.1019
 6188W        W23712   9.506   3.261   0.075 -0.0214 -0.0656  0.5364
 6189W        W23713   3.649  12.787   0.741 -0.2005 -0.3654  0.0380
 6190W        W23714  12.569  17.453   0.995  0.3812  0.0924 -0.0175
 6191W        W23715   9.231   9.692  13.344 -0.1516 -0.2675 -0.3203
 6192W        W23716  17.049  16.078   5.300  0.1960  0.3374  0.2977
 6193W        W23717  12.878   6.579  15.666  0.1067  0.1048  0.0235
 6194W        W23718   8.799  11.722   1.142  0.0472 -0.1142 -0.0518
 6195W        W23719   5.097   1.458   1.497  0.1476 -0.0413  0.0902
 6196W        W23720   2.015   5.746   3.809  0.0522 -0.0928  0.0458
 6197W        W23721  13.063   2.429   1.766  0.0281  0.0973 -0.0081
 6198W        W23722   4.924   1.704   4.601  0.2053  0.0956  0.0674
 6199W        W23723  15.069   4.300   2.354 -0.0549  0.2567  0.0987
 6200W        W23724  17.328   7.035   0.132  0.3226 -0.1850 -0.2221
 6201W        W23725  11.684  15.512  15.737  0.3394  0.1281  0.1019
 6202W        W23726  12.093  15.358   4.635  0.0710 -0.0635 -0.2027
 6203W        W23727   0.133  14.561  15.875 -0.2846 -0.0986 -0.2095
 6204W        W23728  14.612   4.739   0.718  0.2792 -0.0554 -0.2054
 6205W        W23729  10.987  17.424  11.224  0.1303 -0.0879  0.0031
 6206W        W23730   6.544  16.959  13.220 -0.5303 -0.0509  0.3816
 6207W        W23731  10.579  13.094   5.176  0.0452 -0.1339  0.0399
 6208W        W23732   8.652   5.133   0.488 -0.0139 -0.1713  0.0341
 6209W        W23733   6.361   2.799   2.885  0.1031 -0.0184  0.0603
 6210W        W23734   5.748   3.677  11.161  0.0095 -0.2022  0.0099
 6211W        W23735   3.637  17.897  15.431  0.0780  0.0810 -0.1784
 6212W        W23736   6.890  17.912  14.344  0.5125 -0.5243  0.0438
 6213W        W23737  15.938  17.782   2.917  0.0069  0.1768  0.2344
 6214W        W23738   5.449   2.699   4.525 -0.1947  0.0476  0.0808
 6215W        W23739  16.267  16.946   3.274  0.0093  0.0529 -0.0771
 6216W        W23740   5.001  13.775   3.124  0.1811  0.2573  0.2387
 6217W        W23741  14.081   4.597  15.632  0.1909 -0.1500 -0.0691
 6218W        W23742  15.451  17.380  14.859  0.1964  0.2359  0.3572
 6219W        W23743   5.098   8.089  13.120 -0.2122  0.0276  0.1172
 6220W        W23744  11.304   6.703   0.214  0.0078 -0.0757 -0.0632
 6221W        W23745   5.362  11.039   0.722  0.1330 -0.0183 -0.1604
 6222W        W23746  13.111  16.019   3.994 -0.1491  0.0467  0.0227
 6223W        W23747   8.603   7.597  12.252 -0.2257  0.0401  0.0997
 6224W        W23748  15.368  10.004   3.560 -0.1510  0.0865 -0.0696
 6225W        W23749   0.513  13.572  11.389  0.0373  0.0619 -0.3031
 6226W        W23750  13.034  10.387   4.583  0.4657 -0.1152 -0.2405
 6227W        W23751   9.475  15.104  11.716  0.0191 -0.1481  0.2987
 6228W        W23752  16.750  16.080  15.797 -0.0132 -0.0083 -0.1050
 6229W        W23753  10.858   8.399  13.517  0.1012 -0.0113 -0.2336
 6230W        W23754  17.828   8.922   1.505 -0.1457 -0.1308  0.1222
 6231W        W23755  15.749   5.367  15.810 -0.0946 -0.1159  0.1594
 6232W        W23756  12.058   0.819   0.972 -0.1633  0.0670  0.1540
 6233W        W23757  12.382   7.215  15.856  0.1844 -0.1172  0.3095
 6234W        W23758   0.615  14.537   3.324 -0.2490 -0.0061  0.0733
 6235W        W23759   2.882   6.389   0.315 -0.1355 -0.2828  0.0724
 6236W        W23760  14.919   3.452  11.227 -0.2635  0.1279 -0.1540
 6237W        W23761  15.053  15.931   4.798 -0.0524  0.0125 -0.1257
 6238W        W23762   0.570  15.552   1.516  0.1095 -0.2912 -0.0084
 6239W        W23763   7.017   5.319  13.904  0.3040  0.2080 -0.0251
 6240W        W23764  11.739  12.815  15.350 -0.2175  0.1733  0.2410
 6241W        W23765   8.944   2.970  13.169  0.0182  0.1731 -0.1513
 6242W        W23766   6.790  17.379  13.636 -0.1597 -0.1650  0.0442
 6243W        W23767   7.235   7.906  11.248  0.1217 -0.0348  0.2140
 6244W        W23768  14.016  17.499  12.782 -0.1441 -0.1061  0.0208
 6245W        W23769   7.535   8.747  13.176  0.1482  0.1961  0.0829
 6246W        W23770  18.122   4.184  10.553  0.2038 -0.3261 -0.1841
 6247W        W23771   4.710  11.003  11.710 -0.2861  0.2360  0.1169
 6248W        W23772   3.922   6.437   4.985 -0.0503  0.0888  0.1007
 6249W        W23773   9.367   7.922  14.303  0.0663 -0.3461  0.0372
 6250W        W23774   3.435   8.684   0.064  0.1637 -0.1437  0.0218
 6251W        W23775   2.382   5.806   4.962  0.3575 -0.0619 -0.2197
 6252W        W23776   9.432   4.804   3.098 -0.3027  0.0389  0.0154
 6253W        W23777   9.094   2.872   0.158  0.2160  0.0932  0.1177
 6254W        W23778   4.144   2.273  12.895 -0.0362 -0.2190  0.1522
 6255W        W23779  12.708   0.800  11.525  0.2137  0.2259 -0.3694
 6256W        W23780   0.927  15.620  15.352 -0.1000 -0.0954 -0.1224
 6257W        W23781  10.107  12.795  13.285  0.3688  0.0865 -0.0497
 6258W        W23782  13.300   6.352  14.740 -0.0677  0.0490 -0.1185
 6259W        W23783   8.722  11.712   1.681 -0.0203  0.1083 -0.0641
 6260W        W23784   2.303  17.924  12.194  0.0425  0.2257 -0.0198
 6261W        W23785  16.836  16.752   2.634 -0.3191  0.0261  0.2086
 6262W        W23786   0.338   9.380  14.407  0.0144 -0.0006  0.0265
 6263W        W23787   6.251   1.498  15.660 -0.3770 -0.2052 -0.2688
 6264W        W23788   5.773   6.721   2.641  0.1674  0.0889  0.2266
 6265W        W23789   6.141   8.678   0.470  0.0511  0.0473  0.0829
 6266W        W23790  15.351  15.093   1.964  0.0008 -0.1392 -0.0303
 6267W        W23791   7.396  15.189   2.604 -0.0634  0.2315  0.1074
 6268W        W23792  14.763  16.506   5.195 -0.1207 -0.2146 -0.0280
 6269W        W23793   4.457  16.498  11.833  0.1046 -0.0178  0.2830
 6270W        W23794  14.411   2.786  11.658  0.2575 -0.1035  0.1803
 6271W        W23795  11.553   1.028   1.390 -0.0021 -0.0850 -0.0357
 6272W        W23796  14.991   1.063   4.632 -0.2095 -0.0841 -0.3411
 6273W        W23797  16.809   7.203  10.483 -0.0446  0.2081 -0.1280
 6274W        W23798  15.753   6.237   2.249  0.3885  0.1854 -0.3630
 6275W        W23799  15.747  16.904  13.994 -0.0043  0.0658 -0.1771
 6276W        W23800   6.561   2.726  11.179  0.1304  0.0333 -0.0968
 6277W        W23801  15.526  16.918  15.179  0.0594 -0.0912 -0.2382
 6278W        W23802  10.507  13.258   0.731 -0.1818  0.0872  0.2281
 6279W        W23803  14.549  16.427  12.055 -0.2719  0.0638 -0.0490
 6280W        W23804  12.949   0.879  16.037 -0.1889  0.0494  0.1891
 6281W        W23805   6.549  13.887  13.407  0.0730 -0.2482  0.1763
 6282W        W23806  14.414  15.564   0.352 -0.1326 -0.1879  0.0168
 6283W        W23807  13.803  10.362   2.757  0.0832 -0.0940 -0.2213
 6284W        W23808   8.872  12.646  11.157  0.0021 -0.0220 -0.0521
 6285W        W23809   4.703   4.310  14.073  0.0895 -0.3264 -0.1845
 6286W        W23810   9.563  11.578   4.897 -0.1073  0.1582  0.0013
 6287W        W23811  16.826   6.370   4.114 -0.0309  0.1000 -0.0796
 6288W        W23812   1.910  12.145   4.089  0.1275 -0.1792  0.3318
 6289W        W23813  12.962  17.767  14.508  0.1395  0.0661 -0.0424
 6290W        W23814   5.723   4.531  11.467 -0.1560  0.0839  0.4355
 6291W        W23815   0.260   4.676   3.640 -0.1908 -0.4263 -0.0893
 6292W        W23816  13.431  10.708   0.938 -0.1419  0.2068 -0.1515
 6293W        W23817  14.353   1.608   2.275 -0.1791  0.2238 -0.2343
 6294W        W23818   1.669   4.191   2.657  0.0739  0.0354  0.2808
 6295W        W23819  17.820   4.752   2.477 -0.2719 -0.0510  0.0029
 6296W        W23820   5.015   2.938  11.374 -0.0543  0.1903  0.4187
 6297W        W23821  17.982  15.644   0.206  0.1981 -0.0642  0.0648
 6298W        W23822   1.515  10.694   1.124 -0.0311 -0.3124 -0.0338
 6299W        W23823  17.277   3.494   2.686  0.0463  0.1886  0.0857
 6300W        W23824  15.799   7.317   3.326 -0.3926 -0.0655  0.3674
 6301W        W23825   7.921   5.753  12.928  0.1450  0.0235 -0.1605
 6302W        W23826   1.486   3.532   1.374 -0.0070  0.2152 -0.1707
 6303W        W23827   2.901   8.304  14.509 -0.1597 -0.0306  0.1572
 6304W        W23828  12.242  15.041   0.802 -0.1320 -0.2307 -0.0462
 6305W        W23829   8.386   3.942  11.100 -0.0357 -0.0613  0.1382
 6306W        W23830  12.662  14.322  13.077 -0.1686 -0.3218 -0.0560
 6307W        W23831   4.880   3.299  15.987 -0.4659 -0.1154  0.3996
 6308W        W23832   0.278  11.139  12.366  0.0627  0.0819 -0.0569
 6309W        W23833   5.483   2.983  10.831 -0.0782 -0.4834  0.1561
 6310W        W23834  11.941   2.330  12.905 -0.1036  0.3777 -0.2436
 6311W        W23835   2.538   4.692  11.434 -0.2137  0.1609  0.0116
 6312W        W23836  11.189   7.267  14.465  0.2544 -0.0219 -0.1769
 6313W        W23837  13.244  15.620   4.670 -0.2538  0.1964 -0.2018
 6314W        W23838   8.415   5.623  14.391  0.1742  0.1551 -0.2052
 6315W        W23839   1.999   7.752  15.066 -0.0395  0.1290 -0.1699
 6316W        W23840   5.701   4.336   1.216 -0.2443 -0.2197 -0.1096
 6317W        W23841  10.138  17.217  13.903 -0.3545  0.0101 -0.1305
 6318W        W23842   2.576   2.781  14.564  0.0364 -0.0692 -0.2228
 6319W        W23843   0.501  12.625   0.247 -0.0391  0.2975 -0.0432
 6320W        W23844  11.872   4.404  14.089  0.2343  0.1289 -0.0051
 6321W        W23845  16.612   2.518   1.927  0.1293  0.3951 -0.0930
 6322W        W23846   4.491   9.041   4.624 -0.0660  0.0331 -0.3677
 6323W        W23847   8.315  15.647  11.802  0.1046 -0.2208  0.2525
 6324W        W23848   7.355  17.372   2.508 -0.2289 -0.3239 -0.0448
 6325W        W23849  14.550   3.629  14.328  0.1779  0.0964  0.2816
 6326W        W23850   2.105   0.763   4.551  0.0186 -0.0599 -0.0103
 6327W        W23851  11.301   2.393   3.334 -0.0975  0.0525  0.1385
 6328W        W23852  17.621  13.799  15.834  0.1658  0.1726  0.1280
 6329W        W23853   4.360   5.975   2.812 -0.0830 -0.0682 -0.1098
 6330W        W23854  13.169  11.585  14.162 -0.1360  0.0972 -0.1170
 6331W        W23855   1.180   7.928   1.171  0.0201  0.0019  0.1439
 6332W        W23856   5.285   9.298   2.388  0.2512 -0.4022 -0.2085
 6333W        W23857  15.696  10.255  15.181 -0.4356 -0.1402  0.0063
 6334W        W23858  12.746  10.942  10.691  0.0611  0.0419  0.1418
 6335W        W23859  14.443   3.072   2.359 -0.0406 -0.0449 -0.1370
 6336W        W23860   0.999  10.873   2.561  0.0612 -0.0577  0.2538
 6337W        W23861  17.222   8.942  14.547 -0.0186 -0.0381 -0.1648
 6338W        W23862   7.208  17.759   0.314 -0.0275  0.1808 -0.4426
 6339W        W23863  13.513  13.311  15.129 -0.0334  0.1069 -0.0154
 6340W        W23864  15.377   6.238  13.602 -0.1741 -0.4095 -0.3473
 6341W        W23865   5.693   4.951  12.407 -0.1590 -0.0706  0.0954
 6342W        W23866   2.061  16.984  13.988  0.1661  0.0234 -0.1630
 6343W        W23867  14.870   1.623  13.171  0.1327  0.2794 -0.1768
 6344W        W23868  14.178   8.569  15.121  0.0366 -0.1746 -0.0155
 6345W        W23869   9.774  16.446  14.115  0.4468 -0.0901 -0.0007
 6346W        W23870   1.356  15.887  15.177  0.0729 -0.1099  0.1642
 6347W        W23871   4.146   1.760  15.911  0.0031  0.0901 -0.0737
 6348W        W23872   9.495   0.852   0.973 -0.2415 -0.3393 -0.0715
 6349W        W23873   3.076   9.303   3.431  0.2700  0.0384 -0.0172
 6350W        W23874   3.469   6.146   0.813  0.1738 -0.0488 -0.1819
 6351W        W23875  16.165   8.557   1.946 -0.3009  0.0233 -0.0296
 6352W        W23876   1.025  10.031   3.653 -0.1218 -0.0310  0.1687
 6353W        W23877   8.778  16.002  14.552  0.0340 -0.0162 -0.2191
 6354W        W23878  12.431  12.365  14.345  0.0395 -0.0157  0.0099
 6355W        W23879  16.688   7.812   4.001  0.2801 -0.0200  0.2372
 6356W        W23880   0.223   8.462   2.584  0.3846  0.1039  0.0199
 6357W        W23881  16.842   9.615   2.352  0.0864 -0.1663 -0.0631
 6358W        W23882  14.368   3.970   0.206  0.1463 -0.0120  0.0548
 6359W        W23883  15.262   8.572   2.944  0.1198 -0.1387 -0.1221
 6360W        W23884  11.140  15.198   1.844 -0.1500 -0.1599 -0.1042
 6361W        W23885  13.040  12.081  14.259 -0.1705  0.1486 -0.0940
 6362W        W23886  13.458   2.287  13.210  0.3534 -0.2966 -0.1254
 6363W        W23887   8.292   2.504   3.589  0.2241  0.0459 -0.0120
 6364W        W23888  15.995   3.221  15.589 -0.1221 -0.1445  0.2326
 6365W        W23889   9.985  13.435  10.825 -0.0245 -0.2347 -0.3724
 6366W        W23890   7.571  14.082   4.240 -0.0602 -0.1928 -0.1627
 6367W        W23891   4.535  13.306   4.555  0.0884  0.0492 -0.2032
 6368W        W23892  14.731   1.768  15.679 -0.2340  0.2314  0.0502
 6369W        W23893   0.530  11.602   1.917 -0.2384 -0.3614 -0.5131
 6370W        W23894   3.532  14.057   2.175 -0.2568  0.2937 -0.3163
 6371W        W23895   0.609   5.878   0.628  0.3544 -0.1264 -0.1079
 6372W        W23896  14.338   3.895  12.935  0.1225 -0.1575 -0.0780
 6373W        W23897   7.028   7.206   4.324 -0.1526  0.3568 -0.0129
 6374W        W23898   0.157   0.272  12.995 -0.0455  0.0488  0.0409
 6375W        W23899  13.742   5.286  14.667 -0.3498 -0.0351  0.0694
 6376W        W23900  17.762  12.206   4.365  0.0374 -0.0162 -0.3043
 6377W        W23901   8.688  17.253   2.304 -0.1949 -0.0149 -0.1481
 6378W        W23902   0.945   8.386  13.770  0.1704  0.0813 -0.3094
 6379W        W23903   5.215   7.406   1.075  0.0697  0.0131  0.0358
 6380W        W23904   4.422  12.025  11.847 -0.1731  0.1948 -0.1243
 6381W        W23905  14.413   9.544   2.636  0.0545 -0.2189  0.2515
 6382W        W23906   9.344  13.850  11.251  0.0033 -0.1976  0.0013
 6383W        W23907   3.447   6.932   1.247  0.0350 -0.0795  0.2391
 6384W        W23908  11.742   2.589   4.349 -0.2017 -0.1301  0.0642
 6385W        W23909   4.728   9.823   5.148  0.0817 -0.4212  0.0958
 6386W        W23910  15.129  12.812   2.462 -0.1496  0.0297 -0.1420
 6387W        W23911  11.427  11.190   2.432 -0.1663 -0.1946  0.0476
 6388W        W23912   9.456   5.867  15.756 -0.1847  0.2412  0.1401
 6389W        W23913   0.826   7.973  11.440  0.1500 -0.0465  0.1865
 6390W        W23914  10.767   9.426   4.198  0.1264  0.3542 -0.3072
 6391W        W23915  13.433   7.092   3.522  0.1728 -0.2107 -0.2702
 6392W        W23916  13.567   9.411   2.723 -0.0916  0.1849 -0.0032
 6393W        W23917  10.925  16.741  11.020 -0.0101  0.0504 -0.0514
 6394W        W23918   9.888  12.336  13.203  0.2160  0.1556  0.1419
 6395W        W23919   7.081   8.000  14.274 -0.0262  0.1751 -0.0001
 6396W        W23920  15.489   8.161  15.077 -0.0312  0.0528 -0.0299
 6397W        W23921  11.994  12.550  12.618 -0.1234  0.2384 -0.0870
 6398W        W23922   8.020   3.166  15.954  0.0339  0.0877 -0.1596
 6399W        W23923   6.768   8.251   4.854 -0.4134 -0.0386  0.0921
 6400W        W23924   8.810  14.142   5.171  0.0653 -0.2962 -0.0406
 6401W        W23925   2.213  12.329  12.807 -0.1303  0.0590 -0.1685
 6402W        W23926   1.902   8.107  12.083 -0.2562  0.2503 -0.1725
 6403W        W23927   7.968   9.776  15.237 -0.1016  0.1208 -0.3138
 6404W        W23928   7.667   0.832  16.026 -0.2522  0.1561 -0.1876
 6405W        W23929  10.374   5.892  15.700 -0.0274  0.1762  0.0344
 6406W        W23930   0.927  13.728  15.039 -0.2543 -0.2366  0.0270
 6407W        W23931   3.609   6.768   0.770 -0.2368 -0.2776 -0.1274
 6408W        W23932  13.787   0.453  13.096 -0.1393  0.1568  0.0980
 6409W        W23933   9.174   7.554   2.172 -0.0779  0.2532 -0.0049
 6410W        W23934  18.008  15.097   2.753  0.1004  0.0201 -0.0728
 6411W        W23935   5.498   2.782   3.603  0.2242  0.0594 -0.0661
 6412W        W23936   5.562   1.927   4.313 -0.0223  0.1125 -0.1269
 6413W        W23937   2.893  16.410   0.284  0.1779  0.0886  0.1145
 6414W        W23938  15.620   5.871  15.953 -0.0299  0.2087 -0.1014
 6415W        W23939  17.516  16.633  14.214  0.1195  0.0441  0.4082
 6416W        W23940  10.465   5.055  15.598 -0.0200  0.3286 -0.2697
 6417W        W23941  11.381   9.159   0.064  0.1672 -0.0717  0.0646
 6418W        W23942  12.894   3.923  12.648 -0.2059  0.1331  0.0537
 6419W        W23943  10.431   8.769  12.437 -0.1928 -0.0077 -0.0691
 6420W        W23944  13.787  14.431   1.704 -0.3289 -0.2150  0.0300
 6421W        W23945   4.735   8.527   4.173 -0.0308 -0.0106  0.1174
 6422W        W23946   4.739  15.237   0.965 -0.0118  0.0536  0.1319
 6423W        W23947  15.835  17.577   5.121  0.0450 -0.2101 -0.2678
 6424W        W23948   0.121  11.046   2.570 -0.0385 -0.0414 -0.1950
 6425W        W23949  14.653   2.717  15.540  0.2838  0.1073 -0.1668
 6426W        W23950  14.328   2.686  12.201  0.2908 -0.0194 -0.2902
 6427W        W23951   0.162   7.424   3.229  0.1131 -0.2771 -0.1240
 6428W        W23952   6.133  14.044   1.741 -0.1325  0.2912  0.0635
 6429W        W23953   9.963  10.203  13.796 -0.5596  0.0325  0.2566
 6430W        W23954  15.093   8.315   3.756  0.0521 -0.1226 -0.1920
 6431W        W23955   9.150   0.684  11.532 -0.0078 -0.1800  0.0839
 6432W        W23956  18.073   0.637  14.960  0.0401  0.0923 -0.0235
 6433W        W23957   1.831   3.123   0.934  0.0038  0.2312 -0.1981
 6434W        W23958  10.747  11.588   3.377 -0.0882 -0.0009 -0.0357
 6435W        W23959  15.240   8.488   2.026  0.0327  0.1698 -0.1696
 6436W        W23960  12.938   5.929   3.641 -0.0409  0.0312 -0.0026
 6437W        W23961   1.034   1.773  14.078 -0.0572  0.0800  0.2873
 6438W        W23962  15.681   9.560   3.680 -0.0073 -0.1079  0.0112
 6439W        W23963  15.183   8.560  13.888 -0.1598  0.0107  0.0407
 6440W        W23964   2.404  15.213   4.192  0.2033  0.2110 -0.0537
 6441W        W23965  14.769   4.065   3.896 -0.3521  0.1066  0.2684
 6442W        W23966  12.248  16.435  11.029  0.1779  0.3010  0.0110
 6443W        W23967   3.073   7.814  11.723  0.3531  0.1120  0.0717
 6444W        W23968   9.069  11.736   4.864 -0.0669  0.2572 -0.3401
 6445W        W23969   5.303   6.697  12.311 -0.1739  0.0356  0.3453
 6446W        W23970  10.723  13.378  14.332  0.0092 -0.5365 -0.1070
 6447W        W23971   7.918   8.169   1.405  0.1870  0.4660 -0.0060
 6448W        W23972   5.503  11.179   5.135 -0.1723  0.0749 -0.2123
 6449W        W23973   9.617   6.802   1.020  0.3611  0.1910 -0.2296
 6450W        W23974   4.169  14.320  12.804  0.2025 -0.4814  0.0655
 6451W        W23975   0.110  10.633  11.511  0.1701  0.0082 -0.0009
 6452W        W23976   6.998  15.692  12.876  0.0424  0.1171  0.0680
 6453W        W23977  12.684   6.087  13.061 -0.0402  0.0797 -0.1814
 6454W        W23978  14.982  11.331  10.420 -0.2059 -0.2742 -0.0565
 6455W        W23979   9.028  12.516  13.283  0.1432  0.0029 -0.2620
 6456W        W23980   2.485   1.070   0.866  0.3963 -0.2410  0.0143
 6457W        W23981  12.040   6.913  16.034  0.1684 -0.0522  0.5763
 6458W        W23982  13.802   3.804   4.625  0.0846  0.0716  0.1109
 6459W        W23983  14.428  15.511  12.194  0.4766  0.0320  0.1172
 6460W        W23984  11.493  14.869  11.742 -0.0742 -0.0274 -0.0543
 6461W        W23985   8.581   4.413  12.058  0.0692 -0.2046 -0.0057
 6462W        W23986  10.309  16.436   2.719 -0.0203 -0.2919 -0.1803
 6463W        W23987  10.899   9.784  11.871 -0.3233  0.0866  0.1192
 6464W        W23988  11.141  14.007   0.971 -0.1610 -0.1863  0.0517
 6465W        W23989   2.644  11.053  13.860  0.1246 -0.3113  0.0469
 6466W        W23990  12.193  14.053   4.195 -0.3498 -0.1582  0.0738
 6467W        W23991  17.841   5.513   3.403 -0.0264 -0.1888  0.0498
 6468W        W23992   1.655  13.113  14.735  0.0101 -0.1101  0.0111
 6469W        W23993   6.346   0.918  12.249 -0.3199 -0.0613 -0.0635
 6470W        W23994   1.540   1.617  13.140  0.3279  0.0949 -0.3253
 6471W        W23995   0.930  10.208   4.617 -0.0065 -0.0572 -0.0843
 6472W        W23996  10.664  10.577  11.463 -0.2323  0.0970 -0.0470
 6473W        W23997   7.269   4.020  14.815  0.0097 -0.1643 -0.1646
 6474W        W23998  16.246  10.403  12.305 -0.6636 -0.0487  0.2609
 6475W        W23999  17.667  13.611   3.617  0.1860  0.2523 -0.0995
 6476W        W24000  10.092  10.201  12.369 -0.3305  0.0921  0.1127
 6477W        W24001  16.382   9.189  14.755  0.2608  0.0392  0.1006
 6478W        W24002   4.275  15.289  12.925  0.3976 -0.0307  0.1041
 6479W        W24003   5.878   3.539   4.517  0.1865  0.2265  0.0567
 6480W        W24004  17.726  11.608  12.621  0.2432  0.1266  0.1131
 6481W        W24005   1.556   4.152  13.199  0.0544 -0.2381  0.0224
 6482W        W24006   0.968  16.686   3.935 -0.1443 -0.3676  0.3131
 6483W        W24007  12.652  14.688  13.974  0.1850 -0.2396  0.1133
 6484W        W24008   6.404  11.581   5.253 -0.0036 -0.3217  0.0740
 6485W        W24009   2.705   9.646   4.423  0.0997  0.1055  0.1184
 6486W        W24010   3.099   3.392   3.397  0.1366 -0.0107 -0.1062
 6487W        W24011   5.848   1.546  11.869  0.0813 -0.0565 -0.0140
 6488W        W24012  13.734   0.157  14.294 -0.0021  0.1814 -0.1628
 6489W        W24013  11.642  12.448   1.961  0.3738  0.1533 -0.1860
 6490W        W24014   9.626   7.501   2.383  0.0432  0.1157  0.1823
 6491W        W24015   4.060   4.671  12.904  0.0454  0.2753  0.0409
 6492W        W24016  13.141  11.941   1.299  0.1509 -0.2739  0.3160
 6493W        W24017   3.427   5.029  13.050  0.0137  0.0873 -0.3510
 6494W        W24018  10.441   4.474   1.427 -0.2772 -0.1333 -0.1033
 6495W        W24019   5.040   9.994  14.606  0.0243  0.3493  0.0468
 6496W        W24020   1.309   0.477  14.341  0.1284  0.1259  0.0045
 6497W        W24021  14.495   4.446  15.292  0.0695  0.1361 -0.2099
 6498W        W24022   5.596  12.159   1.493  0.0688  0.2064 -0.0660
 6499W        W24023   3.709  15.966  13.087  0.3235  0.1802  0.1242
 6500W        W24024   3.174  13.161   4.299 -0.0314 -0.0689 -0.3837
 6501W        W24025   7.827   3.897  10.299  0.1069  0.1474  0.1436
 6502W        W24026   7.699   0.810   4.187  0.1248  0.3550  0.0221
 6503W        W24027   7.834   5.776   3.455  0.1033 -0.0418  0.2450
 6504W        W24028   7.972   2.154   2.060  0.0792 -0.0212  0.3479
 6505W        W24029  11.737   7.355   0.526  0.0117  0.3083  0.1124
 6506W        W24030  10.311   2.469  12.775 -0.1416 -0.0699 -0.0619
 6507W        W24031  15.055   6.556   1.840  0.0022  0.0989  0.1051
 6508W        W24032   3.742   3.956   0.795 -0.0261 -0.1400  0.0544
 6509W        W24033  10.968   5.590  14.346  0.0370  0.1350  0.1202
 6510W        W24034   6.781   1.547  14.383 -0.2356  0.3628 -0.0335
 6511W        W24035  14.294  17.063  11.271 -0.1426  0.2261 -0.0307
 6512W        W24036  15.168  10.359  14.348  0.1497 -0.1520  0.2225
 6513W        W24037  16.040   3.563   1.672  0.2924  0.4848  0.2911
 6514W        W24038   1.626  11.728   4.890 -0.0822  0.0787 -0.1623
 6515W        W24039   8.860   7.622   3.503  0.1069 -0.0579 -0.1328
 6516W        W24040   2.164   8.967   0.765 -0.0131 -0.2260 -0.0134
 6517W        W24041  13.692   9.473   2.202  0.2871  0.1501  0.0555
 6518W        W24042   8.342   9.717   4.502 -0.1278 -0.1095 -0.4168
 6519W        W24043   0.881   5.772   2.337  0.1650  0.0157 -0.2710
 6520W        W24044  11.545   8.465  12.664  0.0137 -0.2380  0.0453
 6521W        W24045   5.708  14.467   2.857  0.2221  0.2081  0.1210
 6522W        W24046   0.835  13.956   1.656  0.2414 -0.0638  0.0645
 6523W        W24047  17.314   1.028  12.128  0.1355  0.1182 -0.1810
 6524W        W24048   5.612   3.722  12.942  0.1653  0.0109  0.1428
 6525W        W24049  17.721  14.917   4.269 -0.0664 -0.2185  0.2835
 6526W        W24050  10.221   6.430  11.107 -0.0099  0.1408 -0.0395
 6527W        W24051   4.751   9.588  14.529  0.3500  0.1210  0.0801
 6528W        W24052   1.087   5.201   2.031 -0.0486  0.2659  0.2165
 6529W        W24053   5.726  15.581   2.283 -0.0087  0.1464 -0.1113
 6530W        W24054   9.944   8.226  13.580  0.0643  0.0403  0.0309
 6531W        W24055   8.138   7.596  15.766  0.0138  0.1316  0.0606
 6532W        W24056  17.933   8.361  14.456  0.0698 -0.1497  0.1662
 6533W        W24057   2.324  16.325  12.892  0.1172 -0.0755 -0.0381
 6534W        W24058  17.453  11.579   4.962  0.0673  0.1889  0.1585
 6535W        W24059   5.383  13.739  10.868 -0.4864  0.2102  0.0701
 6536W        W24060  15.373  13.331   4.961 -0.1277  0.0616  0.0035
 6537W        W24061   5.471   0.188  12.463 -0.3475  0.3028  0.0031
 6538W        W24062   9.482  10.136   0.486 -0.0467 -0.0004 -0.0736
 6539W        W24063   0.558   5.654   3.194  0.2634 -0.1313 -0.0618
 6540W        W24064  11.374  15.691  14.309  0.1513 -0.0946  0.0608
 6541W        W24065  12.883   2.676   3.335  0.0817 -0.0475 -0.0055
 6542W        W24066  13.602   0.192   0.487 -0.0460  0.2218  0.0328
 6543W        W24067  15.944  16.577   3.416  0.0292 -0.1638  0.1572
 6544W        W24068   7.493   1.504  11.039 -0.0695  0.4204 -0.0319
 6545W        W24069  13.911   4.351  10.604 -0.0868  0.2571 -0.0451
 6546W        W24070  13.140   0.094  14.299  0.3744  0.0093  0.2055
 6547W        W24071   8.452   1.804   0.690  0.1199  0.0001 -0.1381
 6548W        W24072   6.214   0.606   4.522  0.1003 -0.1925  0.1245
 6549W        W24073  18.065   2.045   5.312  0.1660 -0.2099  0.2734
 6550W        W24074   3.882  11.294   3.086  0.0560 -0.1061  0.0908
 6551W        W24075   9.910   8.558   2.215 -0.0613  0.0021  0.0739
 6552W        W24076  14.779   4.496  13.584  0.0995  0.1299 -0.0772
 6553W        W24077   9.427  17.908   3.589  0.2179  0.1355 -0.2510
 6554W        W24078   6.473  13.177   3.201  0.0933 -0.1989 -0.1661
 6555W        W24079  15.871   7.519   2.508 -0.0077 -0.0585  0.0823
 6556W        W24080  10.461   7.856   1.033 -0.3457 -0.0705  0.0996
 6557W        W24081   6.950  13.726  14.666 -0.0189 -0.1827 -0.0033
 6558W        W24082   9.352   4.481   2.749  0.1636  0.0265 -0.3124
 6559W        W24083   8.953   6.654  11.304 -0.2993 -0.1582 -0.2501
 6560W        W24084   5.479  11.403   2.174  0.0767  0.0120  0.0288
 6561W        W24085   9.866   7.354   0.741 -0.1059 -0.0653  0.0911
 6562W        W24086   9.236   2.488  14.167  0.0553  0.0302  0.2581
 6563W        W24087   0.250   1.705  11.897 -0.1506  0.1519 -0.1046
 6564W        W24088   8.296  12.598   1.773  0.0647 -0.1246  0.0873
 6565W        W24089   9.047  16.979   2.531 -0.1740 -0.0345 -0.0295
 6566W        W24090  10.409  14.356   2.581 -0.5236 -0.1993  0.3708
 6567W        W24091   6.401  11.783   2.518  0.1270  0.0208 -0.0073
 6568W        W24092  14.321  13.698   1.528 -0.1025  0.3666  0.2375
 6569W        W24093   3.372  17.320   1.913 -0.1538 -0.0605 -0.1217
 6570W        W24094  18.041   0.162  15.526  0.1295  0.1803 -0.0547
 6571W        W24095  11.884  15.951  16.008 -0.0939  0.1207 -0.0194
 6572W        W24096   2.654   3.109   3.666 -0.1596  0.0315 -0.3464
 6573W        W24097   5.073   0.661  13.033 -0.0887  0.0207  0.3129
 6574W        W24098   1.447   1.510  11.504  0.0413 -0.0432 -0.2899
 6575W        W24099  11.951   4.588   1.563 -0.2333 -0.3213  0.3753
 6576W        W24100  17.306  15.527   0.931 -0.0045  0.0350  0.0401
 6577W        W24101   4.243   8.401  13.564 -0.1557 -0.0129  0.2999
 6578W        W24102   1.765  17.402   5.932  0.1993  0.0846  0.1795
 6579W        W24103   8.259   9.818  15.712 -0.0897  0.3296  0.3297
 6580W        W24104   8.653   6.952  15.228 -0.0143  0.1869 -0.3657
 6581W        W24105   4.055  13.034   2.088  0.0463  0.1184  0.1235
 6582W        W24106  14.574  14.411   1.256 -0.1052  0.1643 -0.1080
 6583W        W24107   1.337  10.318   1.369  0.0492  0.0455  0.4432
 6584W        W24108  15.082  16.436   3.143 -0.0368 -0.1612  0.1366
 6585W        W24109  11.943   5.043  10.528  0.0973 -0.0265  0.1417
 6586W        W24110  15.296  10.943   4.049  0.1405 -0.3104  0.0537
 6587W        W24111   2.422   6.053  15.787  0.0787  0.1862 -0.2499
 6588W        W24112  17.315  13.904  12.034  0.1232 -0.3087 -0.0867
 6589W        W24113  14.268  16.554   0.339 -0.0608  0.1528  0.0431
 6590W        W24114   3.773  14.243   4.772  0.1471 -0.1431 -0.0295
 6591W        W24115   7.976  16.405   0.019 -0.0347  0.1880  0.2266
 6592W        W24116  13.956   9.733   3.640 -0.0898  0.0323  0.0418
 6593W        W24117   1.541   8.149  15.906 -0.0658  0.1710 -0.1070
 6594W        W24118  16.328   6.852   4.423 -0.1251  0.2136  0.1351
 6595W        W24119  11.709  11.172  11.536  0.3137 -0.3993 -0.0737
 6596W        W24120   8.908   1.354   2.217  0.0785 -0.0943 -0.1663
 6597W        W24121   4.659   0.903  13.101  0.2208 -0.1946  0.0236
 6598W        W24122  11.696   0.474  12.331 -0.1220 -0.2024 -0.1668
 6599W        W24123  10.041   4.123   4.617 -0.1478 -0.2753  0.2121
 6600W        W24124   1.955  12.277   3.083 -0.1357  0.2452  0.0706
 6601W        W24125  12.086   8.307   2.737 -0.0396 -0.1844 -0.0355
 6602W        W24126   8.388  15.853  13.152 -0.3172 -0.2526 -0.2094
 6603W        W24127   5.517  11.464   6.214 -0.0989 -0.1795  0.0659
 6604W        W24128  10.554   7.226   1.973  0.0883 -0.0681 -0.0944
 6605W        W24129  17.998   0.626  14.354  0.1462  0.1111  0.1869
 6606W        W24130  15.342  15.511   1.666  0.3709  0.0683  0.4766
 6607W        W24131   8.596   0.367  12.195  0.1064 -0.0593  0.1040
 6608W        W24132  15.493   1.316   1.197  0.0967  0.1731  0.1677
 6609W        W24133   1.831   7.101  11.251  0.0556 -0.4475  0.1487
 6610W        W24134   5.855  14.443  13.150 -0.1732 -0.1217  0.0548
 6611W        W24135  13.118  15.167  13.275 -0.3228 -0.1513 -0.3375
 6612W        W24136   8.755  16.346  11.303  0.0313  0.0578  0.0030
 6613W        W24137   8.019   0.671   3.313  0.0307  0.2287 -0.2867
 6614W        W24138   2.537   8.401   4.048  0.0516 -0.1076  0.0687
 6615W        W24139   3.584   0.168  10.797 -0.2138  0.1784  0.0394
 6616W        W24140   3.465  15.258  15.085  0.1764 -0.1435  0.1798
 6617W        W24141  13.979   6.465  13.685  0.1457 -0.1627 -0.1274
 6618W        W24142   4.458   9.629   1.418  0.1766 -0.0569 -0.1603
 6619W        W24143  10.007   6.247   2.397 -0.0231  0.0088  0.1544
 6620W        W24144   7.618  17.771   0.745  0.0752 -0.2385 -0.0092
 6621W        W24145   6.326  13.104  12.938  0.0188  0.1287  0.0019
 6622W        W24146   9.781  11.564  10.973  0.2625  0.1949  0.0698
 6623W        W24147   0.785   2.256  15.047 -0.3897 -0.1412 -0.1048
 6624W        W24148   7.007   0.663   1.829 -0.1209 -0.2989 -0.0747
 6625W        W24149   8.035  18.091   1.195  0.3142 -0.0239 -0.2083
 6626W        W24150   3.549   6.712   3.430  0.0727 -0.1971 -0.0021
 6627W        W24151   2.420   2.985   4.789 -0.0450  0.0241 -0.1279
 6628W        W24152   8.222   6.415   1.010 -0.0200 -0.1283 -0.1072
 6629W        W24153   0.486   0.465   0.968 -0.0263 -0.0101  0.0260
 6630W        W24154  16.757   9.859  13.954 -0.2005 -0.1168 -0.2495
 6631W        W24155   1.418   3.921  15.350  0.0846  0.0705 -0.1528
 6632W        W24156  12.626   6.453   1.316 -0.2407 -0.1213 -0.1597
 6633W        W24157  16.297  10.893   0.358  0.0449  0.1104  0.1756
 6634W        W24158   0.410   0.246   1.832  0.0887 -0.0299 -0.1877
 6635W        W24159  10.925   7.571   2.165 -0.2721  0.3536  0.1409
 6636W        W24160   9.870  12.434   3.824 -0.0373 -0.1158 -0.1966
 6637W        W24161  13.467   3.235  14.877  0.2898  0.1358  0.2867
 6638W        W24162  16.160   4.521   2.507 -0.0439 -0.0640 -0.1382
 6639W        W24163  15.419   3.696  14.773 -0.2904 -0.3437  0.1477
 6640W        W24164  16.554   8.379  14.150  0.0542 -0.1099  0.1539
 6641W        W24165  14.965  12.516   4.305  0.0340 -0.0558 -0.0806
 6642W        W24166  15.968  10.168   0.899  0.1658  0.1437 -0.2007
 6643W        W24167   5.737  11.978   0.328  0.1865  0.3167  0.3397
 6644W        W24168   0.563   9.819   3.787  0.0824  0.2476 -0.1893
 6645W        W24169   5.559   3.695   3.939 -0.0576  0.2078  0.0298
 6646W        W24170  12.980  13.814  12.441  0.1851 -0.0303 -0.2214
 6647W        W24171  13.082   9.442   3.658  0.2694  0.2428 -0.1624
 6648W        W24172   0.199  17.121  13.132 -0.0315 -0.1444  0.0238
 6649W        W24173  11.160   1.666  12.715 -0.1755  0.0414 -0.1239
 6650W        W24174   6.951   5.996  12.966  0.1082 -0.0310  0.0156
 6651W        W24175  16.734   4.391  11.877 -0.1706  0.0651  0.2069
 6652W        W24176   0.859  12.443  14.097 -0.3563 -0.0364 -0.1810
 6653W        W24177   4.799  15.495  14.735  0.3707  0.0517 -0.0313
 6654W        W24178   3.236   8.176  12.824  0.1230 -0.0261  0.3144
 6655W        W24179   0.096  15.463  14.281  0.3099  0.0802  0.1615
 6656W        W24180   7.386  16.287  10.097  0.4823 -0.3972 -0.0338
 6657W        W24181   3.892  11.966   0.229 -0.4692  0.1061 -0.1416
 6658W        W24182  15.235   7.505   4.152 -0.3162 -0.4103 -0.3646
 6659W        W24183   4.187  17.267  10.489 -0.2567 -0.3587 -0.0483
 6660W        W24184  11.800  14.691  13.492  0.1602 -0.3924  0.1039
 6661W        W24185   9.131  13.009  13.426  0.0680  0.2658 -0.0177
 6662W        W24186   1.223  13.854  13.529  0.3746 -0.2381 -0.0773
 6663W        W24187   6.946   6.051  12.406 -0.2671 -0.0836  0.0190
 6664W        W24188   8.603   2.964  15.305 -0.2360 -0.0612 -0.0394
 6665W        W24189  13.086   4.025   3.748 -0.3277 -0.1993  0.0389
 6666W        W24190   7.333   0.456   4.472  0.0249 -0.2254 -0.0062
 6667W        W24191   8.766   9.822   4.820  0.0278  0.4013  0.1592
 6668W        W24192   2.401   4.035  12.163  0.3211 -0.2108  0.3145
 6669W        W24193   8.442  10.892  12.419  0.1286  0.1239  0.0988
 6670W        W24194  18.035  15.460   3.059 -0.0054  0.0372 -0.1144
 6671W        W24195   7.364   8.895  14.074 -0.1110 -0.1373 -0.0350
 6672W        W24196  13.022   6.376   4.475 -0.0121 -0.1644  0.1985
 6673W        W24197  11.064  13.189   0.720 -0.1714  0.1053  0.2322
 6674W        W24198   8.845  13.789   1.351 -0.0438  0.1469 -0.0458
 6675W        W24199  15.095   4.163  11.731 -0.2330  0.1367 -0.2310
 6676W        W24200   3.647   3.844  14.528  0.0264 -0.2340 -0.1282
 6677W        W24201  12.194  17.041   1.109  0.0415  0.0536 -0.0414
 6678W        W24202   2.102   2.324   2.419 -0.2531  0.0591 -0.0980
 6679W        W24203   7.124   9.026   0.166  0.0408 -0.0485  0.3294
 6680W        W24204  15.379  15.646  12.504  0.1220  0.1640  0.0083
 6681W        W24205  14.200   4.747   3.132  0.1832  0.1998 -0.0361
 6682W        W24206  11.325   6.524  15.236 -0.2974 -0.0039 -0.3313
 6683W        W24207  14.911   2.807   4.548 -0.0632  0.2153  0.0627
 6684W        W24208   2.754   4.868   4.530 -0.2371 -0.0779  0.1488
 6685W        W24209  11.423  15.703  12.916 -0.0496 -0.0479  0.1984
 6686W        W24210   2.355   4.495  13.872  0.2073  0.2095  0.0743
 6687W        W24211   1.218  17.411   4.120  0.1830  0.3423  0.1776
 6688W        W24212   5.100  10.546   1.504 -0.1939  0.0347  0.0474
 6689W        W24213  14.872   7.798  12.182 -0.0244  0.0873 -0.0421
 6690W        W24214   0.811  10.219   3.247  0.0635  0.0181  0.0543
 6691W        W24215   1.668   4.620  13.252  0.0471  0.0269  0.0160
 6692W        W24216   7.873   1.203  10.258  0.1122  0.1738  0.2367
 6693W        W24217  16.717   6.650  11.150  0.0527 -0.1751  0.0241
 6694W        W24218  16.780   4.611  11.409 -0.0939  0.2331 -0.1909
 6695W        W24219  12.727  14.328   4.758  0.1471 -0.2646  0.0332
 6696W        W24220   0.566   3.971   3.408  0.0219 -0.0250 -0.1265
 6697W        W24221   7.710  17.200  13.179 -0.0404  0.1675  0.1136
 6698W        W24222  14.744  10.851   4.434 -0.0571 -0.0786  0.0597
 6699W        W24223   1.351  10.637  10.621  0.2209 -0.4506 -0.3395
 6700W        W24224   7.020  11.658  14.376  0.0240 -0.5733 -0.2523
 6701W        W24225   4.744   1.537   3.054  0.2504  0.4471 -0.0691
 6702W        W24226  10.926  16.295   3.691  0.0995 -0.0107  0.1298
 6703W        W24227   7.388   4.076  15.432 -0.0990  0.1009  0.0827
 6704W        W24228  16.256   8.516   2.861 -0.2470 -0.0320  0.1038
 6705W        W24229  10.779   8.385   5.224  0.0638 -0.1364 -0.2181
 6706W        W24230  13.077   7.302   3.218  0.0940  0.0226 -0.1583
 6707W        W24231   5.265  17.804  13.105 -0.0978  0.0893 -0.0825
 6708W        W24232  11.893  15.887  13.655 -0.0433 -0.3842 -0.2033
 6709W        W24233   1.314   1.986   3.067 -0.2410 -0.2073  0.1963
 6710W        W24234   9.674   8.910  12.769  0.1122 -0.0018 -0.1569
 6711W        W24235   5.000  15.455  15.609 -0.1565 -0.2988 -0.2629
 6712W        W24236   1.028   8.045   2.143 -0.1651  0.0837 -0.4773
 6713W        W24237  11.261  14.035   3.930 -0.1066 -0.0320 -0.5003
 6714W        W24238  14.655   1.160   0.332  0.0844  0.2305 -0.1212
 6715W        W24239  11.606  18.021   3.923 -0.1683  0.0250  0.0735
 6716W        W24240   6.939  11.947  13.767 -0.2073  0.0741 -0.3054
 6717W        W24241  12.851  16.350  14.512 -0.3055  0.0786  0.1771
 6718W        W24242  12.415  14.738   1.691  0.1135  0.0652  0.1214
 6719W        W24243   3.537  12.151  14.256 -0.1039 -0.1481  0.1066
 6720W        W24244   9.274  12.689   0.871 -0.0219  0.2101 -0.0029
 6721W        W24245   3.756  12.133  15.086  0.0397 -0.3473  0.0673
 6722W        W24246  15.263   0.259  13.258  0.0449  0.2303 -0.0874
 6723W        W24247   8.589   1.456   1.087  0.0468  0.0520  0.3956
 6724W        W24248   8.516   7.704   1.321 -0.0193  0.0846  0.1593
 6725W        W24249  17.685   7.589   1.721  0.2061  0.1282  0.0086
 6726W        W24250   4.945  10.135  10.786 -0.3357 -0.0074 -0.2933
 6727W        W24251  10.749   0.001   2.479  0.4003  0.1159  0.0500
 6728W        W24252  11.319   0.740  15.535  0.3124  0.0822  0.2339
 6729W        W24253  14.643   2.583   0.577  0.5669 -0.0161  0.1921
 6730W        W24254  16.396   4.586   0.772 -0.2458  0.1278  0.1053
 6731W        W24255  14.715  11.957  13.136  0.0433 -0.0911  0.1566
 6732W        W24256   1.782   9.968  15.702 -0.0486  0.2440  0.2633
 6733W        W24257   2.638   6.692  11.361  0.0818  0.2756 -0.2888
 6734W        W24258   7.582   6.190  12.393 -0.3179 -0.2362 -0.1398
 6735W        W24259   3.788  17.271   0.366 -0.0198  0.0574 -0.2907
 6736W        W24260  12.280  17.756   0.215  0.0226 -0.0661  0.0062
 6737W        W24261  10.552  13.139   1.661  0.0419  0.0960  0.1285
 6738W        W24262   5.206   7.065   4.463  0.3642  0.2387 -0.1589
 6739W        W24263   5.288  10.937   1.255  0.1297  0.0197 -0.3392
 6740W        W24264  13.676  14.801   2.589  0.0006 -0.1200  0.0467
 6741W        W24265  11.555  14.951   4.115  0.1076  0.1564  0.1596
 6742W        W24266  11.349  18.049  11.207  0.0398 -0.4446 -0.1443
 6743W        W24267  12.806  12.693  12.645  0.4368 -0.1248  0.2196
 6744W        W24268   1.127   5.610   0.177 -0.0489 -0.2157 -0.0042
 6745W        W24269   2.313   9.202   0.085  0.2166 -0.0604 -0.0436
 6746W        W24270   9.264  16.023  10.514 -0.1627  0.0775  0.0933
 6747W        W24271  10.748  16.512  13.874  0.3309 -0.1780  0.2745
 6748W        W24272   0.807   9.108  11.516 -0.0585  0.3280 -0.1438
 6749W        W24273   1.671  11.342  14.549 -0.1572  0.1891  0.0731
 6750W        W24274   7.716   5.929   1.664  0.1197  0.2040  0.1818
 6751W        W24275   3.474  10.495   1.022  0.2003 -0.1382  0.3902
 6752W        W24276  10.592  13.578   4.163 -0.0115 -0.1497  0.2000
 6753W        W24277   6.358  16.424  15.464  0.2721 -0.0708  0.0510
 6754W        W24278  12.186  13.639  13.493 -0.1072 -0.0950  0.0814
 6755W        W24279   2.106   1.943   0.398  0.0739  0.2288  0.0675
 6756W        W24280  11.582  15.047   5.119 -0.0900 -0.0200 -0.1070
 6757W        W24281  12.480  11.139  12.587  0.1133  0.0240 -0.3351
 6758W        W24282   4.821   7.051   2.997 -0.0158 -0.1977  0.0541
 6759W        W24283  12.147  15.086  10.276  0.1017  0.6499  0.1795
 6760W        W24284  13.707  14.618   3.092  0.0126  0.2110 -0.2113
 6761W        W24285   6.055  14.517   3.239 -0.0509 -0.1056  0.0429
 6762W        W24286   7.236  17.827   5.588 -0.0181  0.3901 -0.1483
 6763W        W24287   4.674   9.591   4.262 -0.3273  0.2392  0.2429
 6764W        W24288   2.427   1.625  13.092  0.0568 -0.1744 -0.0985
 6765W        W24289  12.458  12.252   0.324 -0.5454 -0.0686 -0.1431
 6766W        W24290  18.002   6.720   3.173 -0.0125  0.2375 -0.2756
 6767W        W24291   2.925  10.044   2.227 -0.2540 -0.0036  0.1285
 6768W        W24292  12.483  10.327   4.478  0.2110  0.0713 -0.3803
 6769W        W24293   3.694  14.978   1.845 -0.4138  0.2509 -0.1501
 6770W        W24294   4.952   5.127   0.982 -0.0433 -0.0192  0.0390
 6771W        W24295  14.415   3.779   5.277  0.0359  0.0866 -0.0702
 6772W        W24296  12.918  10.087   2.982 -0.0609  0.2439  0.1653
 6773W        W24297   5.496  13.992   1.228 -0.1664 -0.0013  0.4184
 6774W        W24298   2.709   7.459  13.838 -0.0589 -0.0015 -0.2310
 6775W        W24299  13.952   6.429  10.393  0.1341  0.1049 -0.0456
 6776W        W24300   2.168   7.380   3.259  0.3760  0.2869 -0.0209
 6777W        W24301   8.888  10.673  12.702  0.1098 -0.1047 -0.0212
 6778W        W24302   2.392  16.271  14.336  0.1771 -0.0450 -0.1163
 6779W        W24303  14.719  11.467  13.341 -0.0536  0.0627 -0.2483
 6780W        W24304  12.210  10.619   0.529 -0.2027  0.0605  0.1273
 6781W        W24305   4.990  11.366   1.848  0.1373  0.1886  0.0561
 6782W        W24306   7.792  17.354  12.127  0.1264  0.3675 -0.1619
 6783W        W24307  15.403   5.432   2.524 -0.0675  0.2654 -0.2508
 6784W        W24308   3.617   2.107   3.166  0.1572 -0.1426 -0.1673
 6785W        W24309  10.210   8.680   3.864 -0.1570  0.0454 -0.1097
 6786W        W24310  11.848   3.701   2.765  0.0871  0.0111 -0.2475
 6787W        W24311  11.673  13.094   2.144 -0.0443  0.1343 -0.2958
 6788W        W24312   0.650  14.641   5.473  0.1514  0.1197  0.1454
 6789W        W24313  17.359  14.541   4.665 -0.3045 -0.0956  0.0006
 6790W        W24314   3.689  12.260  13.458 -0.0671  0.1322  0.1116
 6791W        W24315  13.133  17.927   2.084 -0.1054  0.0485  0.0976
 6792W        W24316   0.352   9.241   3.132  0.3345  0.1524 -0.1179
 6793W        W24317   3.001  13.037  14.002 -0.1028 -0.1702  0.0489
 6794W        W24318   0.404   5.206  12.811  0.0877  0.1087 -0.0228
 6795W        W24319   1.044  16.306   3.094  0.2223  0.0123 -0.3156
 6796W        W24320  14.881   3.376   2.450  0.0863  0.1716 -0.3217
 6797W        W24321  10.277   2.698  13.979  0.1079 -0.0701 -0.2615
 6798W        W24322   7.959   5.531  10.358 -0.0296 -0.0520 -0.1153
 6799W        W24323   9.868   4.394   3.019 -0.1179  0.0858 -0.0641
 6800W        W24324   9.408  10.067  12.221  0.0800  0.3247  0.2322
 6801W        W24325  17.867   7.147   1.692 -0.3640  0.0684 -0.1692
 6802W        W24326   6.618   1.886   4.191 -0.1316 -0.1003  0.1555
 6803W        W24327   4.136   8.695   1.436  0.1214  0.1798  0.1163
 6804W        W24328  11.021  11.337   4.873 -0.1898 -0.0874 -0.3504
 6805W        W24329   0.478  11.399   1.172  0.6191 -0.0333 -0.1587
 6806W        W24330   6.051  14.301   5.865 -0.3050 -0.3925  0.0266
 6807W        W24331  12.414  14.767   3.254  0.3552  0.0254 -0.0289
 6808W        W24332  14.561   3.240   5.255 -0.1128  0.2696  0.0993
 6809W        W24333  17.448   3.581  13.726  0.1810  0.0180  0.1396
 6810W        W24334  13.092   5.120  13.602  0.2489  0.0472  0.0172
 6811W        W24335   1.179   4.169  12.832 -0.0729 -0.0101 -0.1752
 6812W        W24336  13.846   2.570  13.279  0.0383 -0.0811  0.1709
 6813W        W24337  15.433   7.407   3.678 -0.0725 -0.2797  0.1865
 6814W        W24338  10.386   6.525  13.185 -0.1075 -0.2503 -0.0491
 6815W        W24339  13.280   7.358  14.792  0.0255  0.0226  0.1890
 6816W        W24340   2.648  16.601  15.060 -0.0579 -0.2896 -0.1652
 6817W        W24341   6.614   5.217  12.279 -0.2437 -0.0017 -0.4048
 6818W        W24342   4.285  12.796  14.129  0.0311 -0.0484 -0.0571
 6819W        W24343  14.295  12.438   2.240  0.1720  0.2380 -0.1230
 6820W        W24344  16.760   1.509  10.374  0.0058  0.1980 -0.0126
 6821W        W24345   6.927  16.726  12.818 -0.0135 -0.1622 -0.2198
 6822W        W24346  13.386   6.651  15.634  0.2994 -0.1429 -0.0259
 6823W        W24347   0.774   3.843   4.387 -0.1404 -0.1078 -0.1677
 6824W        W24348   1.765  13.289  14.244 -0.0192  0.2837  0.1202
 6825W        W24349  17.896  10.286  15.785  0.1231  0.1482  0.2082
 6826W        W24350   6.042  11.888   3.444 -0.1566  0.1708  0.0197
 6827W        W24351  13.034   0.393  16.023 -0.0570  0.1447 -0.0370
 6828W        W24352   4.576  15.402   1.475  0.1003 -0.0596  0.0194
 6829W        W24353  11.536   0.373   2.933  0.1809 -0.0786 -0.1234
 6830W        W24354   7.250   4.647  15.311 -0.1574  0.2999  0.1177
 6831W        W24355  11.056  15.093   5.188  0.1635 -0.0887  0.0580
 6832W        W24356   3.850   0.240  13.763 -0.0441 -0.1965 -0.2229
 6833W        W24357   0.138  17.652  13.827  0.1735  0.0232  0.0325
 6834W        W24358  14.896   0.724   3.279  0.0633 -0.2104  0.0662
 6835W        W24359   0.517   2.919  11.427 -0.3162  0.0806  0.2814
 6836W        W24360   4.605   7.719  11.476  0.0614 -0.2254  0.1444
 6837W        W24361   2.046   2.954   1.456 -0.1320  0.1625 -0.3559
 6838W        W24362   3.611   3.623   0.481  0.4417  0.0001 -0.0927
 6839W        W24363   2.183  14.851  14.611 -0.4337  0.2032  0.0614
 6840W        W24364   6.532   9.578   2.421 -0.1132 -0.1427 -0.1161
 6841W        W24365   6.421   4.804   3.245  0.3378 -0.0152  0.0212
 6842W        W24366   2.962   6.085   2.491 -0.1707  0.1117  0.0927
 6843W        W24367   5.687   1.329   0.642 -0.1570 -0.2028  0.0895
 6844W        W24368  11.375   3.130   3.974 -0.1418  0.0702 -0.1224
 6845W        W24369   1.647   7.774  10.224  0.2372 -0.1977  0.4131
 6846W        W24370   5.642   0.880  13.738  0.0971  0.3040  0.3090
 6847W        W24371   2.306  15.002  12.739 -0.1534 -0.0950 -0.1003
 6848W        W24372  15.581  12.498  12.309  0.1566 -0.1752  0.1351
 6849W        W24373   1.308   3.184  12.000  0.1387  0.1581  0.2471
 6850W        W24374   4.949  10.273   4.968  0.0333  0.0584 -0.0189
 6851W        W24375   8.978   3.063  14.799  0.0683  0.1439  0.1071
 6852W        W24376  13.485   8.631   0.071  0.2298  0.2446 -0.0854
 6853W        W24377   5.436   7.179  12.221  0.0785  0.0462 -0.0384
 6854W        W24378   2.949  13.316  10.890 -0.0429  0.1409 -0.0849
 6855W        W24379  12.178  13.283  14.474 -0.1110 -0.2103 -0.0918
 6856W        W24380  14.948   0.419  12.360  0.0721  0.2033 -0.1586
 6857W        W24381   4.099  10.679   0.015 -0.1893 -0.2798 -0.2060
 6858W        W24382  14.946  16.140  15.769  0.3036 -0.2558 -0.0062
 6859W        W24383  16.896   5.159   2.552 -0.0378  0.2808  0.0837
 6860W        W24384   5.281  11.047  13.707 -0.2053  0.3421 -0.3100
 6861W        W24385  10.956  10.499   3.924  0.0432 -0.4055  0.1300
 6862W        W24386   0.175  12.005   3.018 -0.4635  0.1734  0.1097
 6863W        W24387   7.203  13.660   4.166 -0.0991  0.0375  0.0244
 6864W        W24388   2.440   6.790  15.169  0.0056  0.0258 -0.0445
 6865W        W24389   4.909  14.739   1.318 -0.2961  0.0819 -0.1427
 6866W        W24390  10.500   1.850   0.909 -0.2086  0.0971  0.1980
 6867W        W24391  13.331   5.558  12.867  0.2537  0.0585 -0.2646
 6868W        W24392   2.580   6.252   1.199  0.0919  0.0809 -0.3526
 6869W        W24393   1.860   9.825  14.068 -0.2320 -0.1733 -0.1527
 6870W        W24394  11.351   6.727   2.706  0.1752 -0.2661 -0.2260
 6871W        W24395   7.132   8.376   4.389  0.1172 -0.2091  0.1661
 6872W        W24396  11.378  15.973  16.041 -0.0979 -0.4795  0.1639
 6873W        W24397  11.708   6.578   1.797 -0.0658  0.2538  0.0488
 6874W        W24398   2.070   2.217  13.458  0.0823  0.0561 -0.1825
 6875W        W24399  17.623   7.104  13.476  0.2329 -0.3776  0.0988
 6876W        W24400   2.413   5.061   4.213  0.2190  0.0574 -0.0935
 6877W        W24401   9.686   7.152  16.005 -0.1498  0.0308  0.5989
 6878W        W24402  16.193   2.305  14.815 -0.2091  0.2636 -0.1194
 6879W        W24403   5.626  10.255   4.027 -0.2303  0.0857  0.1079
 6880W        W24404   1.595   0.720  12.049 -0.1020  0.2964  0.1361
 6881W        W24405   0.267   5.057  14.847 -0.0521 -0.1303  0.1946
 6882W        W24406   7.449  16.149  10.590 -0.0420  0.2795 -0.2639
 6883W        W24407  17.449   2.314   4.604 -0.3302  0.2812  0.1534
 6884W        W24408  10.582  10.145   3.828 -0.0158 -0.1913 -0.2627
 6885W        W24409   4.175   5.399   2.112  0.0498 -0.0823 -0.0191
 6886W        W24410   1.211  14.549  11.455 -0.0149 -0.2063  0.3649
 6887W        W24411  14.259  12.633  13.921 -0.0683  0.1991 -0.0775
 6888W        W24412   6.626   6.435  12.271 -0.1387  0.0139 -0.0484
 6889W        W24413  17.929  14.168  15.732  0.0280 -0.2713 -0.1453
 6890W        W24414   5.423   2.594   1.598  0.0402  0.0073  0.1942
 6891W        W24415   8.786   2.695   3.910 -0.1307  0.1419  0.1363
 6892W        W24416   2.116  15.600  12.029  0.0281  0.0932 -0.1539
 6893W        W24417   3.779   8.270   4.900 -0.0318 -0.3408 -0.1632
 6894W        W24418  13.138  15.527  14.967 -0.2342  0.1439  0.2490
 6895W        W24419  15.258   2.474  13.140 -0.2361  0.3355  0.0788
 6896W        W24420   4.111   4.759   2.950  0.1715  0.0632 -0.2358
 6897W        W24421   7.948  12.214  11.334 -0.2154 -0.0740  0.0725
 6898W        W24422   6.386  16.133  15.088  0.1764  0.6643  0.0273
 6899W        W24423  12.903   0.150  12.893  0.0942 -0.0498 -0.0357
 6900W        W24424  18.031  15.920  12.035  0.2342 -0.0446  0.0773
 6901W        W24425   0.857  15.363   3.396 -0.0088  0.0641 -0.1198
 6902W        W24426   3.235  17.615  12.300 -0.0844  0.0608  0.0721
 6903W        W24427   5.753   4.158  15.750  0.0938  0.1916 -0.0526
 6904W        W24428   9.539   6.330   0.052 -0.2294 -0.1172  0.1856
 6905W        W24429   4.919  13.041  15.197  0.0724 -0.3222 -0.0827
 6906W        W24430   9.897   1.750   0.385  0.1730  0.0799 -0.0864
 6907W        W24431  15.476   1.856   0.124  0.0232 -0.1773  0.2161
 6908W        W24432  13.047   9.144   3.256 -0.0304 -0.0302 -0.0032
 6909W        W24433  14.143   7.842  15.573 -0.0673 -0.0053 -0.2179
 6910W        W24434   2.127   0.521  15.819 -0.0832 -0.1520  0.1365
 6911W        W24435   6.817  17.028  14.121 -0.2262  0.0374 -0.2508
 6912W        W24436  17.690  10.564  15.330  0.0776 -0.2646 -0.0769
 6913W        W24437  12.753  15.174  12.344 -0.0138  0.0501  0.2748
 6914W        W24438   3.951   8.554   3.616 -0.0371  0.4121 -0.1613
 6915W        W24439  11.142   2.367  13.574 -0.0474 -0.0549 -0.3206
 6916W        W24440  12.748   6.456  13.869  0.0437 -0.0609 -0.0094
 6917W        W24441   8.300   8.982   3.589 -0.2873  0.2540 -0.0562
 6918W        W24442   5.458  12.309   0.532 -0.1197  0.1534  0.1950
 6919W        W24443   3.737  12.740  12.187  0.4658  0.2740  0.0341
 6920W        W24444  13.013   2.943   1.783  0.0492  0.2253 -0.2099
 6921W        W24445   4.319   3.156   4.333  0.1815 -0.1561 -0.3512
 6922W        W24446   2.522  15.298  13.135 -0.1868  0.2030  0.1871
 6923W        W24447  12.387   1.809   3.968 -0.1789 -0.1955  0.3308
 6924W        W24448   0.025   7.039   4.860  0.2128 -0.2694  0.2651
 6925W        W24449   8.585   1.376  12.009  0.0014  0.0951 -0.0423
 6926W        W24450  11.111  11.122   0.313 -0.1953 -0.1247  0.2200
 6927W        W24451   8.656  12.060   4.153  0.0239 -0.1440  0.2762
 6928W        W24452   3.115   5.428   1.340  0.0458  0.2358 -0.4037
 6929W        W24453   0.338   1.523  15.898 -0.1260 -0.1490  0.0905
 6930W        W24454   8.309   6.194  13.679 -0.3889  0.3441 -0.1017
 6931W        W24455   1.735  14.812   2.195  0.1383  0.0013  0.1695
 6932W        W24456   6.373   9.240  11.425 -0.2804 -0.1337 -0.0801
 6933W        W24457   3.301  16.852  12.577 -0.0551  0.0039 -0.0850
 6934W        W24458  15.754  10.606   1.857  0.0999  0.3472 -0.6157
 6935W        W24459  11.845   2.929  14.047  0.1609  0.0581 -0.0546
 6936W        W24460  14.834  16.932  10.610 -0.2698 -0.2344 -0.2328
 6937W        W24461   4.652  12.183  15.857  0.0674 -0.3494  0.1394
 6938W        W24462  12.590   5.305   4.620  0.2508 -0.0952 -0.2140
 6939W        W24463  15.961   9.194  12.435 -0.1185  0.5212  0.2084
 6940W        W24464   1.164  17.391  12.834 -0.1489 -0.2711  0.1290
 6941W        W24465  15.460   7.584   5.419  0.0390  0.1711  0.0226
 6942W        W24466   9.052  15.239  11.185  0.2930 -0.0201  0.2174
 6943W        W24467  13.782   4.110  11.653 -0.1230 -0.0317 -0.1508
 6944W        W24468   0.086   3.279  13.977 -0.0821 -0.1874 -0.1195
 6945W        W24469  17.677   7.806   2.290  0.1222  0.0870  0.2151
 6946W        W24470   7.340   3.076  15.918 -0.0052  0.0608 -0.4311
 6947W        W24471   2.999  10.032  15.964 -0.0638  0.0476  0.1394
 6948W        W24472   8.593   6.751   4.093 -0.0936 -0.1093 -0.1767
 6949W        W24473   4.809  13.304   2.629  0.0840 -0.4234  0.0596
 6950W        W24474  10.720  14.422   3.666  0.1342  0.2334  0.2983
 6951W        W24475   9.668   9.510   0.823 -0.1372  0.1620  0.2889
 6952W        W24476   2.138  16.230  14.790 -0.0728 -0.0519 -0.2587
 6953W        W24477   6.545   1.739  16.003 -0.0004  0.1629  0.1333
 6954W        W24478  11.973  10.260   4.397  0.1525  0.0209 -0.2486
 6955W        W24479  11.122  17.904  12.121 -0.0619 -0.0186 -0.3054
 6956W        W24480   9.420  16.455   4.409  0.2224  0.0484 -0.1774
 6957W        W24481   7.472   5.841  12.715  0.1898 -0.1540 -0.2453
 6958W        W24482  16.320   4.429  11.496 -0.0807 -0.1222 -0.0480
 6959W        W24483   2.699   0.716   1.110  0.2880 -0.0413  0.0235
 6960W        W24484   2.987   0.126   2.027  0.2250 -0.2719 -0.2140
 6961W        W24485   3.418   3.393   3.975 -0.0257 -0.1306  0.1267
 6962W        W24486  16.954  11.944  14.034  0.5684 -0.3551 -0.3109
 6963W        W24487  13.182   6.930   4.906  0.2424  0.1453  0.2517
 6964W        W24488   4.930  11.260   0.471 -0.0695  0.0458 -0.0900
 6965W        W24489  10.811   5.837   0.342 -0.3135 -0.2695  0.1366
 6966W        W24490  17.182   7.936  15.646 -0.0897 -0.0646 -0.0495
 6967W        W24491   6.579   8.232  13.500 -0.2004  0.0205 -0.0643
 6968W        W24492  17.357  13.173   2.849  0.0491  0.0673  0.0894
 6969W        W24493   6.294  14.085  12.014 -0.1482 -0.1425 -0.1274
 6970W        W24494  10.858   5.289   4.745  0.2466  0.0731 -0.0925
 6971W        W24495   4.854   2.727  13.846 -0.1334 -0.0427  0.0259
 6972W        W24496   8.249  17.618   1.469  0.1665 -0.3138  0.0706
 6973W        W24497  14.145   3.601  12.294 -0.0196  0.0922 -0.0695
 6974W        W24498  11.712  13.916   1.660  0.1655 -0.2112 -0.1584
 6975W        W24499  17.900   4.088   4.497 -0.2242 -0.0783 -0.2280
 6976W        W24500   2.494  12.264   4.244 -0.1491 -0.1889  0.1822
 6977W        W24501   6.773  12.780  14.282 -0.0085 -0.0253 -0.1118
 6978W        W24502   7.961  17.349   0.067  0.1714 -0.0980 -0.0688
 6979W        W24503  10.979   7.943   5.120 -0.1717 -0.1856  0.1986
 6980W        W24504  16.591   5.703  13.882  0.0153 -0.3164  0.1883
 6981W        W24505   7.205  13.510   1.760 -0.1210  0.4432  0.0675
 6982W        W24506   0.653   4.480   2.841  0.0840 -0.1628 -0.0496
 6983W        W24507  16.989  11.156  13.639  0.1392 -0.1253  0.2168
 6984W        W24508   2.053  11.331   0.378 -0.0872  0.1735  0.1910
 6985W        W24509   3.498  10.266  11.421  0.1043  0.0229  0.0487
 6986W        W24510  11.643  17.099   5.092 -0.2868 -0.0680  0.0836
 6987W        W24511   5.080  11.928  13.558  0.0340  0.2238  0.2134
 6988W        W24512  14.975   5.346  15.327 -0.1558  0.0244 -0.0683
 6989W        W24513   6.782  16.948   0.708 -0.0539  0.1088 -0.0453
 6990W        W24514  10.055  10.729  14.066 -0.2052 -0.1853  0.0467
 6991W        W24515   4.062  17.658   1.533  0.3215  0.1967 -0.1865
 6992W        W24516   1.080  11.126  10.737 -0.1176 -0.2618  0.3398
 6993W        W24517   0.657  13.150  13.440 -0.0961 -0.1815  0.1764
 6994W        W24518  10.562   0.876   2.981  0.0206 -0.0801  0.0575
 6995W        W24519   5.798   8.848   5.227  0.1342  0.0135  0.1158
 6996W        W24520   6.743   3.197   5.222  0.1058  0.2811  0.0664
 6997W        W24521  14.070   8.027   0.388  0.0181 -0.1575  0.1518
 6998W        W24522   4.918   6.816   2.429 -0.2147  0.0088  0.0302
 6999W        W24523  13.035  15.819   5.512  0.0606 -0.1016 -0.0161
 7000W        W24524   0.477  10.496  15.594 -0.1072 -0.1034 -0.3634
 7001W        W24525   5.480   1.595  14.139 -0.0625 -0.1915  0.0118
 7002W        W24526  17.382  14.219   3.261  0.0663  0.1069  0.0618
 7003W        W24527   5.332  11.910   3.153  0.2055 -0.1488 -0.1519
 7004W        W24528  13.292  14.575  11.666 -0.2199 -0.3853 -0.4117
 7005W        W24529  10.248   2.367  11.933  0.1628  0.0801 -0.1071
 7006W        W24530  15.413  17.484  15.341  0.2888  0.1901  0.1668
 7007W        W24531   4.431   9.416   1.967  0.0382  0.0003 -0.0258
 7008W        W24532  16.475  11.293   2.091 -0.2577  0.1793 -0.2662
 7009W        W24533  17.020  16.288  13.323 -0.0978 -0.0322  0.0041
 7010W        W24534   7.154   8.996   4.679 -0.1205 -0.2413 -0.0549
 7011W        W24535  10.006  14.896  11.478 -0.0386 -0.1915  0.2178
 7012W        W24536   4.978  13.640  11.054  0.0024 -0.1021 -0.1829
 7013W        W24537  16.782  14.922   3.079 -0.2141  0.0060  0.0586
 7014W        W24538  14.071  12.737  11.086  0.0718  0.0671 -0.0070
 7015W        W24539   0.099   0.745  15.967 -0.0539  0.0656  0.0476
 7016W        W24540  16.534  15.035   3.916  0.0884 -0.2788 -0.2226
 7017W        W24541  17.767  11.960   0.636 -0.2861  0.0412 -0.2172
 7018W        W24542   1.657   3.475   2.999 -0.1666 -0.0068  0.3097
 7019W        W24543   5.842  15.819   3.380  0.1631  0.0151 -0.0242
 7020W        W24544   6.767   8.726   5.035  0.0064 -0.2712 -0.2059
 7021W        W24545  12.371  17.179  15.345 -0.0577  0.2401 -0.1917
 7022W        W24546  11.470   8.110  14.808  0.0182 -0.1907 -0.0135
 7023W        W24547   4.369   7.884   1.139  0.0067  0.1278 -0.0808
 7024W        W24548  16.470   7.861  12.224 -0.2299 -0.1382 -0.0104
 7025W        W24549  14.097   6.264   2.132  0.0112  0.0426  0.0669
 7026W        W24550  13.667  13.407   1.093 -0.0383  0.2997 -0.2081
 7027W        W24551  10.270  10.688   0.327 -0.1305  0.0256  0.0180
 7028W        W24552   6.484   5.659  15.018  0.3617 -0.0106 -0.1399
 7029W        W24553  12.337   4.885   0.120 -0.1286  0.1743 -0.1367
 7030W        W24554   6.467  15.322  15.211 -0.2309  0.0869 -0.0145
 7031W        W24555   6.569  11.353   1.475  0.0006 -0.2886  0.0813
 7032W        W24556  14.703   1.380   1.409  0.0005  0.0201 -0.1461
 7033W        W24557  18.061  11.159   6.174  0.0664 -0.1578 -0.2534
 7034W        W24558  12.696  17.521   0.492  0.1086  0.0311 -0.2728
 7035W        W24559   8.820  17.826  13.404 -0.3656  0.0715  0.5223
 7036W        W24560  14.374   9.144  16.005 -0.1395 -0.0063  0.4372
 7037W        W24561   3.848  13.857   0.287 -0.3946 -0.1538 -0.1880
 7038W        W24562  16.761   0.334   0.923 -0.0168  0.0373 -0.0167
 7039W        W24563   9.245  14.417   3.946 -0.1345 -0.0116 -0.1684
 7040W        W24564   2.968  17.218  12.462  0.0745 -0.0132  0.2397
 7041W        W24565  12.643   6.857  16.048  0.0411 -0.0877  0.0704
 7042W        W24566  17.168  13.756  11.405 -0.1926 -0.1066 -0.0509
 7043W        W24567  12.849   6.015   0.406 -0.0665 -0.1715 -0.0505
 7044W        W24568  16.338   5.148   3.654  0.2748  0.1483 -0.1856
 7045W        W24569  10.960   7.832  15.617  0.0402 -0.1869 -0.1089
 7046W        W24570  14.809  17.316   0.495  0.0558 -0.2172  0.1047
 7047W        W24571   9.701   5.990  12.496  0.2758  0.1526  0.0474
 7048W        W24572  13.111  13.814  13.304 -0.2656 -0.2366  0.0390
 7049W        W24573  10.879   4.124   1.254 -0.3060  0.0624  0.1987
 7050W        W24574  13.216  15.187   1.924  0.1897  0.0732  0.1545
 7051W        W24575  17.584   2.859  14.125  0.1258 -0.1267  0.4507
 7052W        W24576   8.296   9.754  14.393 -0.2577  0.1430 -0.1679
 7053W        W24577   1.861   9.452  14.461  0.2038  0.6870  0.0773
 7054W        W24578  16.466   9.945   3.873  0.2355  0.1575 -0.1027
 7055W        W24579   5.399   7.271  14.478  0.0588 -0.0823  0.2088
 7056W        W24580   2.498  16.180  13.399  0.1209 -0.0891 -0.0551
 7057W        W24581  11.732   6.120   4.888  0.0731  0.1210  0.1613
 7058W        W24582  10.447   5.438   4.491  0.1883 -0.0905 -0.0824
 7059W        W24583   1.127  10.513  13.035 -0.0017  0.1954 -0.0411
 7060W        W24584   8.644   7.996  15.129 -0.2084 -0.2616  0.3355
 7061W        W24585   3.942   5.016   9.971 -0.0128  0.1250 -0.3546
 7062W        W24586  13.016   1.882   0.597 -0.1245  0.0689  0.1693
 7063W        W24587   1.124   1.661   2.695  0.0915 -0.0899  0.0683
 7064W        W24588   3.731   0.534   0.953  0.3926 -0.1277  0.0854
 7065W        W24589   3.897  13.604   0.736 -0.0654  0.2127 -0.2082
 7066W        W24590  13.300  12.967  12.416 -0.0525  0.2289 -0.0235
 7067W        W24591   1.843   2.168  15.046  0.1315  0.1641 -0.1143
 7068W        W24592  17.660  16.708   0.370 -0.0548 -0.2845  0.0338
 7069W        W24593  16.595   0.918  11.867 -0.0281 -0.0803  0.1356
 7070W        W24594   3.864  12.022   1.400 -0.3242  0.2105  0.3127
 7071W        W24595   6.968  14.100  13.773 -0.2216  0.0942  0.0741
 7072W        W24596   5.295   1.167   0.431 -0.2381 -0.0366  0.2807
 7073W        W24597  11.926   6.288  11.707 -0.0338  0.0974  0.0513
 7074W        W24598   9.127  14.939  12.535 -0.2242  0.2079  0.2171
 7075W        W24599  16.155   8.805  14.958  0.2929  0.1472  0.1715
 7076W        W24600  14.684   0.608   4.367 -0.2196  0.0450 -0.1295
 7077W        W24601  15.182   8.953   0.587 -0.2196 -0.0294 -0.0169
 7078W        W24602  17.642   7.251   2.127 -0.2278  0.1058 -0.2240
 7079W        W24603  13.652   2.825   5.865  0.1135  0.4464  0.2243
 7080W        W24604  15.603   4.347   3.760 -0.0660  0.0098  0.0993
 7081W        W24605   7.160  11.245  14.672  0.0272 -0.0695 -0.1617
 7082W        W24606   5.694   2.253  12.207  0.1206 -0.0552  0.2930
 7083W        W24607   9.058  15.360   1.502 -0.0885 -0.2032 -0.0713
 7084W        W24608   0.597   4.483  14.391 -0.2985  0.1263  0.3300
 7085W        W24609  10.330   7.675   1.649 -0.0427 -0.2831  0.2372
 7086W        W24610   7.905  17.282  14.825 -0.3226  0.1684 -0.2386
 7087W        W24611   6.292  12.614   1.056  0.0539  0.1540  0.2440
 7088W        W24612  18.038  16.933  15.163 -0.0770  0.1085  0.1052
 7089W        W24613  16.675  15.788  12.700 -0.0467  0.1163  0.2563
 7090W        W24614   6.250  15.928  11.677  0.1599 -0.1127 -0.1030
 7091W        W24615   9.773   9.796  15.207 -0.3045 -0.1582 -0.2254
 7092W        W24616   2.742  13.375  13.702  0.2551 -0.0720 -0.2560
 7093W        W24617  17.405   3.090  15.648  0.2307 -0.0358 -0.1974
 7094W        W24618  10.300  16.440  13.567 -0.0933 -0.1428  0.0685
 7095W        W24619  10.666  12.418  13.975  0.1722  0.2709  0.1115
 7096W        W24620   1.131   0.791   2.979 -0.2184  0.0409 -0.1894
 7097W        W24621   9.360   4.769  14.648 -0.1583  0.2650 -0.0856
 7098W        W24622  10.571   9.195   0.873 -0.3106 -0.0111 -0.0915
 7099W        W24623   4.212  16.928  14.423 -0.3457 -0.1678 -0.0661
 7100W        W24624   7.637  13.860   1.929  0.2689 -0.1016 -0.2026
 7101W        W24625   1.103   4.918  15.271  0.1044  0.0597  0.1378
 7102W        W24626   1.043   9.326  12.298  0.1658  0.2359  0.1534
 7103W        W24627   7.116  17.493  14.142  0.0503 -0.0927  0.2496
 7104W        W24628  12.441  11.955  13.512 -0.3916 -0.0216 -0.4750
 7105W        W24629   6.813  12.408  14.715  0.3220 -0.0978  0.2834
 7106W        W24630   8.969   3.041   1.298  0.2154 -0.2905  0.1060
 7107W        W24631   5.530   3.461  10.721  0.1646 -0.0562 -0.1621
 7108W        W24632   1.692  13.731   0.096  0.0028  0.3661 -0.2254
 7109W        W24633  10.544  16.876   3.913 -0.1850 -0.0173 -0.1180
 7110W        W24634   7.728   1.759  11.771 -0.0937  0.0456 -0.0641
 7111W        W24635   3.606  12.957  11.427  0.1746 -0.0820  0.0508
 7112W        W24636   0.973   3.682  15.379  0.3796  0.1075  0.0633
 7113W        W24637   0.984  17.978   1.525 -0.0039  0.0835  0.1295
 7114W        W24638  14.379  13.580   0.603  0.0973 -0.1711 -0.1998
 7115W        W24639   4.862  12.517  15.414 -0.0537 -0.2497  0.1663
 7116W        W24640   5.620   3.860  13.933  0.5173  0.1187 -0.0824
 7117W        W24641  12.141   3.093  14.460  0.0484  0.2032  0.0916
 7118W        W24642  12.685  13.393  14.632  0.1514  0.0240 -0.0222
 7119W        W24643  15.277   2.933   2.715  0.0326  0.0502  0.0395
 7120W        W24644   1.751  12.814  15.235  0.0136  0.0367 -0.0408
 7121W        W24645  15.937  16.439  13.846 -0.1106  0.0565  0.1321
 7122W        W24646   9.648  12.374  14.657  0.0805 -0.0480 -0.2270
 7123W        W24647   7.529   0.330   0.116 -0.1779 -0.0358 -0.2037
 7124W        W24648  12.522   0.249  13.508 -0.0791  0.3068  0.1779
 7125W        W24649  13.166   8.651  12.645 -0.1679 -0.1179 -0.1129
 7126W        W24650  13.618   1.376  15.869  0.3459 -0.0396  0.0321
 7127W        W24651  17.185   7.070  11.384 -0.1691 -0.3560 -0.2921
 7128W        W24652   3.632   3.283  15.742 -0.1103 -0.0483  0.1674
 7129W        W24653  11.463  15.146   2.168 -0.0461  0.1121 -0.1687
 7130W        W24654  11.278   6.263  11.137 -0.1199  0.0410  0.0105
 7131W        W24655  13.262  10.961  12.063 -0.1022  0.2033  0.1844
 7132W        W24656   8.140  12.370   3.338  0.0373  0.1585 -0.0848
 7133W        W24657  15.579   5.417   3.612 -0.0016  0.0764  0.1661
 7134W        W24658  12.769  15.841  14.783  0.0706 -0.0429  0.0513
 7135W        W24659  17.449   0.581  12.347 -0.2143  0.0538  0.0253
 7136W        W24660  17.709   3.171   0.317 -0.0130 -0.0807  0.2398
 7137W        W24661  15.819  17.051   3.063  0.0263 -0.1171 -0.1568
 7138W        W24662   9.164  16.822   0.522 -0.1137 -0.0959 -0.3693
 7139W        W24663   3.820   8.789  14.499  0.1950  0.0110 -0.0602
 7140W        W24664   5.426  11.188  15.848 -0.0923 -0.3537 -0.0352
 7141W        W24665  16.756   4.094  11.433  0.0466 -0.0944  0.3162
 7142W        W24666  13.845   3.502  11.667  0.1442  0.0860 -0.0547
 7143W        W24667  10.058   9.063   2.755 -0.1537  0.1957 -0.2079
 7144W        W24668   2.705  17.983  15.268 -0.0612 -0.0785 -0.0699
 7145W        W24669  12.761  13.474  15.662  0.1242 -0.1885 -0.0150
 7146W        W24670   0.514   3.097   2.516  0.0150 -0.0455  0.2317
 7147W        W24671   6.645  12.914   4.304 -0.0303 -0.0262  0.0700
 7148W        W24672  17.969  10.148   0.220  0.0423  0.1127 -0.0752
 7149W        W24673   2.560  17.031   2.785 -0.0422 -0.1245 -0.1382
 7150W        W24674   1.312   9.655   2.088  0.3511  0.0389 -0.0864
 7151W        W24675  16.833   0.548  14.116  0.1943  0.1307  0.2393
 7152W        W24676  15.749  17.144   4.764 -0.0928 -0.1361 -0.3797
 7153W        W24677   4.088   1.855  11.308  0.4374 -0.1311  0.0514
 7154W        W24678  13.389   6.418  13.877 -0.0578 -0.0674 -0.0156
 7155W        W24679   0.030  16.041   0.724  0.4575  0.0682 -0.0588
 7156W        W24680  16.938   7.721  12.404 -0.0918 -0.0203  0.0181
 7157W        W24681  17.646  13.759   1.651 -0.0609 -0.1786  0.0857
 7158W        W24682  10.493  17.192   3.564 -0.0533 -0.1704  0.2991
 7159W        W24683   1.506   5.424  14.483 -0.3863  0.0376  0.1050
 7160W        W24684   0.762  13.524   1.079 -0.1278  0.0333  0.1027
 7161W        W24685   8.743  13.993   0.913 -0.0229 -0.1064  0.1295
 7162W        W24686   5.453   5.426   4.362  0.0160 -0.1009 -0.0936
 7163W        W24687  15.970   0.973   2.108 -0.1429 -0.4030 -0.1767
 7164W        W24688   9.844  12.642   0.640  0.0155  0.0318 -0.0300
 7165W        W24689  15.016  13.755  14.826  0.2588  0.0197 -0.1904
 7166W        W24690  10.036   9.856  13.357 -0.0200  0.2353 -0.0478
 7167W        W24691  13.570   2.969   0.320 -0.1321  0.2051  0.0047
 7168W        W24692   1.601   2.693  15.155 -0.0368  0.0245  0.3297
 7169W        W24693  14.035  13.579  13.875 -0.1321  0.0591 -0.0973
 7170W        W24694  14.691  11.096  15.812  0.0805  0.1054  0.1684
 7171W        W24695   2.208   1.629  12.556  0.4046 -0.2778  0.0709
 7172W        W24696   5.157  11.957   1.276 -0.1681  0.2308 -0.0048
 7173W        W24697   2.368   8.069  12.431  0.0319 -0.0870  0.0063
 7174W        W24698  12.750   9.472  13.487 -0.1013  0.1208  0.1143
 7175W        W24699   5.348  17.386   0.486 -0.2369 -0.0355  0.0174
 7176W        W24700  11.718   3.500   4.368  0.1247 -0.1572 -0.0631
 7177W        W24701   3.484   0.976  13.743  0.0654  0.1342 -0.2346
 7178W        W24702  17.962   7.217  13.085  0.0819 -0.3236 -0.0854
 7179W        W24703  10.227  16.748   2.142 -0.2105  0.2262  0.0370
 7180W        W24704   9.437  15.050  12.942 -0.0598 -0.2097  0.3759
 7181W        W24705   4.491   8.408  14.891 -0.1012 -0.0741  0.1725
 7182W        W24706   8.658   5.727   1.902  0.1426  0.1740 -0.0212
 7183W        W24707  16.731   3.720  13.407  0.2437 -0.1552 -0.2842
 7184W        W24708  12.054  15.950  11.349 -0.2335 -0.1610 -0.1107
 7185W        W24709  13.324  12.016  11.122 -0.1661  0.1781 -0.3363
 7186W        W24710  13.553   4.675  15.757 -0.1431 -0.0761  0.1631
 7187W        W24711  14.858   7.058   0.224  0.1645 -0.0849 -0.1402
 7188W        W24712  11.087   3.427  11.369  0.3584 -0.1796  0.1690
 7189W        W24713  14.312   0.252   4.249  0.0600 -0.2784  0.0472
 7190W        W24714  13.837   9.312  12.684  0.1022  0.2154  0.2058
 7191W        W24715  12.163   4.429  15.401 -0.0023  0.0245 -0.0242
 7192W        W24716  11.806   6.532  10.902  0.0722 -0.2445 -0.0204
 7193W        W24717  16.394   1.116   4.743 -0.1195 -0.0451  0.0323
 7194W        W24718  13.086  14.184   2.216 -0.1559  0.0632 -0.2061
 7195W        W24719  17.621  13.048   2.438 -0.0273 -0.2036 -0.1273
 7196W        W24720  11.971  14.456   1.765  0.2699 -0.0265 -0.0623
 7197W        W24721   8.990  14.728  11.232  0.1269 -0.2092  0.1195
 7198W        W24722   1.824   6.249  15.265 -0.2796  0.0789  0.0663
 7199W        W24723   0.594  17.799   1.270 -0.2037 -0.1686  0.0554
 7200W        W24724  12.137   5.373  14.146  0.1599  0.1020 -0.2254
 7201W        W24725   1.969   7.898   0.759  0.2296  0.0463 -0.0333
 7202W        W24726   3.307   9.314  15.358 -0.1082  0.1420 -0.1291
 7203W        W24727   9.868   3.135   1.130  0.0384  0.2303  0.0859
 7204W        W24728   4.448  15.423  15.137  0.2373 -0.0750 -0.0627
 7205W        W24729  10.253   6.282  15.455 -0.0725  0.0571 -0.0224
 7206W        W24730  13.853  14.110   3.278  0.1789  0.1625 -0.4264
 7207W        W24731  11.081   3.359   3.113 -0.1291 -0.2058 -0.0537
 7208W        W24732  14.013   5.623   3.405  0.3958 -0.1582  0.0533
 7209W        W24733  13.391  15.658   1.112  0.0645 -0.1520  0.1012
 7210W        W24734   7.260  15.998  15.349  0.3762 -0.2036  0.3819
 7211W        W24735  17.941   4.360  12.609  0.1910  0.0720  0.1060
 7212W        W24736   3.796   9.401  13.680 -0.1903 -0.0457 -0.0161
 7213W        W24737   1.780   1.129  14.618  0.0285 -0.1552 -0.2132
 7214W        W24738   0.602  13.391  10.428 -0.0671  0.0339  0.1679
 7215W        W24739   9.097   4.118  15.723  0.0181  0.1565  0.1642
 7216W        W24740  16.812   7.010  14.749  0.0293 -0.0006 -0.2241
 7217W        W24741  15.194   6.825  14.935 -0.0156  0.1862  0.0805
 7218W        W24742   2.588  17.332  13.617  0.0157 -0.1501 -0.0886
 7219W        W24743   8.037  13.160   2.494 -0.0412  0.0204  0.2593
 7220W        W24744  13.218   9.857   4.753 -0.0326 -0.0192  0.2710
 7221W        W24745   4.507   6.581   1.318 -0.4307  0.1284 -0.0186
 7222W        W24746   4.324  13.385  11.838  0.1026 -0.0318 -0.2754
 7223W        W24747  12.115   0.223   2.798 -0.1791  0.0388  0.1202
 7224W        W24748  11.331  11.104  12.054  0.1590 -0.5184  0.1234
 7225W        W24749   2.605   5.123  14.103  0.0783  0.0591 -0.0397
 7226W        W24750   1.032  14.826   3.407 -0.0104 -0.1455  0.2945
 7227W        W24751   6.038   1.865  11.509  0.2402  0.0086  0.2213
 7228W        W24752   7.015   6.265   2.764 -0.0122  0.2491 -0.0024
 7229W        W24753  12.472  14.002  10.788 -0.0468 -0.3542  0.3233
 7230W        W24754  15.674   9.060  15.580  0.1407  0.1710 -0.2562
 7231W        W24755  16.475   0.029  11.633  0.5351 -0.0134 -0.0328
 7232W        W24756  12.581   1.322  11.537 -0.2264 -0.0499 -0.0105
 7233W        W24757   4.868  11.695   4.058 -0.0661  0.1375 -0.2067
 7234W        W24758   5.455  13.388  12.663  0.0755  0.2521 -0.0390
 7235W        W24759   1.628  16.713  13.927  0.2142  0.0216 -0.1915
 7236W        W24760   5.770   1.748  10.991  0.0802 -0.0837  0.0298
 7237W        W24761  13.453   1.288  13.006 -0.0989 -0.1508  0.0206
 7238W        W24762   5.465   6.074   0.791  0.1293  0.2437  0.0891
 7239W        W24763  12.032  17.983  15.892 -0.3236 -0.0155 -0.1227
 7240W        W24764  13.483   3.267  12.960 -0.1730  0.0563  0.0435
 7241W        W24765   0.573  10.730   0.065  0.1687 -0.1948  0.0535
 7242W        W24766  14.624   1.211  12.208 -0.4385 -0.0999  0.2438
 7243W        W24767   4.505   4.181  12.907  0.0678 -0.0793 -0.0049
 7244W        W24768  16.054   4.573   0.377 -0.2066 -0.1257  0.1397
 7245W        W24769  11.596  11.254   0.141  0.3110 -0.0961 -0.0310
 7246W        W24770  16.135   8.909   3.192 -0.4529 -0.0089 -0.2550
 7247W        W24771  17.364  12.858  13.208  0.0941  0.1795  0.0657
 7248W        W24772   8.232  13.993   1.149  0.1893  0.1336  0.0172
 7249W        W24773   3.915   4.066   4.744 -0.2652  0.1588  0.1025
 7250W        W24774   4.835   9.593  11.564  0.0767 -0.0293 -0.0320
 7251W        W24775  17.852  10.556  11.815 -0.1725  0.0768 -0.0359
 7252W        W24776   3.317  14.783   4.460 -0.0250  0.1467 -0.3182
 7253W        W24777   7.034  10.112   4.017 -0.2883 -0.1155  0.2345
 7254W        W24778   3.500  17.117   5.202  0.1957 -0.0296 -0.2439
 7255W        W24779  16.153  13.980  14.029 -0.0482 -0.1427 -0.1051
 7256W        W24780  14.680   0.837   1.509 -0.0252  0.1911 -0.1806
 7257W        W24781   0.217   2.031   1.199  0.1042  0.3240 -0.1882
 7258W        W24782   4.990  14.219   5.181 -0.2785  0.0596  0.2189
 7259W        W24783   2.248  12.035  14.061 -0.0565  0.0504 -0.3321
 7260W        W24784   6.539   0.136  14.271  0.0661 -0.1566  0.2437
 7261W        W24785   7.185   3.200  14.316  0.2022 -0.1129  0.0713
 7262W        W24786   8.951  11.539  15.887 -0.0530  0.1715  0.1161
 7263W        W24787   0.755  14.194  14.211  0.0679  0.0605 -0.2080
 7264W        W24788  16.060   9.180   3.675  0.0713 -0.0895 -0.1531
 7265W        W24789   0.077  17.551   2.882 -0.0911  0.0717 -0.2656
 7266W        W24790  18.098   7.482  11.471  0.2049 -0.1999 -0.0465
 7267W        W24791   1.658  17.823  14.390  0.2650 -0.3317 -0.1052
 7268W        W24792  16.537   3.945   1.542  0.4096 -0.0186 -0.0358
 7269W        W24793  17.359   3.462  16.047 -0.0298 -0.0824 -0.3695
 7270W        W24794   7.220   3.807   4.135  0.1060 -0.0233  0.1260
 7271W        W24795  10.014   2.038   3.553 -0.1955  0.1521  0.0956
 7272W        W24796  10.750   8.061   2.157  0.0022  0.1675  0.2117
 7273W        W24797   4.604  15.534   0.535  0.3417  0.2122  0.2327
 7274W        W24798  16.755  17.726  13.886 -0.0677  0.2335  0.0219
 7275W        W24799   6.071   0.738   1.448  0.2091  0.2487 -0.1882
 7276W        W24800   3.176   2.060   4.071 -0.2003 -0.1891 -0.1353
 7277W        W24801   6.670   8.571   1.897 -0.1228 -0.1111  0.0626
 7278W        W24802  16.603   3.851  11.880 -0.2992  0.1799 -0.2683
 7279W        W24803   8.025   7.869   4.293 -0.0938 -0.1072 -0.1630
 7280W        W24804   1.875   5.043  15.659  0.1361 -0.1483  0.1756
 7281W        W24805  14.530  11.578   5.774  0.0465  0.3875 -0.0020
 7282W        W24806  16.382   8.205  11.301  0.0713 -0.0096 -0.0823
 7283W        W24807   3.675  16.369  11.189 -0.0030 -0.1138 -0.1479
 7284W        W24808  14.632   8.099   3.655  0.0896  0.0847  0.2371
 7285W        W24809  10.250   2.960   1.420  0.0795 -0.3355  0.3264
 7286W        W24810  10.227  14.874   2.649 -0.0792  0.0570  0.2749
 7287W        W24811  12.464   7.785   2.570  0.1955  0.0366 -0.0724
 7288W        W24812   4.693   6.326   1.685 -0.1594 -0.0436  0.0187
 7289W        W24813   0.395  14.569   2.732  0.0960 -0.2602  0.5397
 7290W        W24814   6.954   1.065  14.343 -0.0830  0.0270  0.2358
 7291W        W24815  17.054  12.427   1.170  0.0001 -0.0105 -0.0080
 7292W        W24816  13.991   5.132  11.676 -0.3217  0.0651  0.1186
 7293W        W24817   2.404  13.123   2.782 -0.1748  0.0212 -0.3724
 7294W        W24818   2.382  17.959  13.569 -0.1562  0.2231  0.1353
 7295W        W24819   1.453  15.327  13.800  0.0406 -0.3222  0.2366
 7296W        W24820  17.725   1.540  16.000  0.0330  0.0402  0.0191
 7297W        W24821  12.592   0.989  13.890  0.0771 -0.1204  0.1619
 7298W        W24822  16.541   8.721  10.383 -0.0326 -0.2311  0.1689
 7299W        W24823   8.678   1.023   2.610 -0.0491 -0.0377 -0.3441
 7300W        W24824  11.537   5.396  13.358  0.1948 -0.0040 -0.2413
 7301W        W24825  15.541   5.408   1.276  0.0179 -0.4769  0.2170
 7302W        W24826  11.588  16.510  11.838 -0.0618  0.0280 -0.3346
 7303W        W24827   1.816   3.228   0.132  0.0481 -0.1525 -0.3488
 7304W        W24828  16.633   4.988   4.477  0.2562  0.0055  0.2085
 7305W        W24829   1.796   1.112   0.372 -0.0549 -0.2584  0.0627
 7306W        W24830   1.260  13.678   0.936  0.1285 -0.0067  0.0770
 7307W        W24831   9.661   9.135   5.063  0.0394 -0.0506 -0.5896
 7308W        W24832   0.859  10.697  10.687  0.1651 -0.0507 -0.1631
 7309W        W24833  16.792  15.767  14.047  0.0422 -0.0371 -0.1865
 7310W        W24834   5.541   7.414  15.812  0.1977  0.0919  0.0943
 7311W        W24835  14.316  10.058   3.977  0.0261 -0.1019 -0.0660
 7312W        W24836  16.271   9.307  15.210  0.1024  0.1797 -0.2677
 7313W        W24837  15.312   9.239  15.320  0.0492  0.1987  0.1921
 7314W        W24838  14.240  14.368  15.151 -0.0625 -0.0110  0.1394
 7315W        W24839   3.041   6.955   1.652 -0.0928 -0.1932 -0.0481
 7316W        W24840   3.953   3.388   0.167 -0.1661 -0.2070  0.0609
 7317W        W24841   4.725   3.715   0.855 -0.0724 -0.2197  0.3425
 7318W        W24842   3.585   8.810  11.175  0.1160 -0.1547 -0.0280
 7319W        W24843   1.439  16.557  15.930  0.1138  0.2729  0.0439
 7320W        W24844   8.878  13.185   4.838 -0.3637 -0.0165 -0.1544
 7321W        W24845   6.073   2.345  15.854  0.0679 -0.1482 -0.0472
 7322W        W24846  18.098  17.962   4.690 -0.1014  0.2599  0.2407
 7323W        W24847   4.043  17.988  14.978 -0.3302  0.0093 -0.0185
 7324W        W24848   7.657  13.571  15.501  0.4994 -0.1092 -0.0307
 7325W        W24849   4.881   0.332  14.639 -0.1077 -0.1879  0.3813
 7326W        W24850  14.422   5.301   4.960  0.0237  0.1095 -0.1496
 7327W        W24851  10.838   5.333   4.225 -0.1657  0.0831 -0.3123
 7328W        W24852   0.130  16.806  14.239 -0.0208  0.0042  0.3883
 7329W        W24853  15.365   6.788   1.009  0.0661  0.0514 -0.1076
 7330W        W24854  10.839  15.764   1.732 -0.2583 -0.0168 -0.3358
 7331W        W24855  16.629   5.575   0.954  0.0167  0.1280 -0.2004
 7332W        W24856   9.522  10.231   2.282  0.0783  0.0474 -0.0619
 7333W        W24857  12.051   1.246  12.501 -0.0548 -0.3158  0.1161
 7334W        W24858   5.210   9.812  11.983  0.0537  0.1883 -0.1283
 7335W        W24859  13.274   1.873   4.073 -0.2046  0.0655  0.0552
 7336W        W24860   6.971  13.267   2.602 -0.2280 -0.0556  0.0665
 7337W        W24861  14.817  15.605   6.071 -0.0359  0.0909  0.0236
 7338W        W24862   3.237  15.053   0.797  0.0174 -0.0366 -0.2756
 7339W        W24863   4.001  17.554   1.061  0.3049  0.0190 -0.3389
 7340W        W24864   1.711  11.864  14.804  0.2547 -0.0801  0.0339
 7341W        W24865  17.785  15.852   2.755 -0.0020 -0.2987 -0.2028
 7342W        W24866  17.413   2.434  14.487 -0.2478  0.0112  0.2215
 7343W        W24867  14.414  13.482   6.023  0.1845  0.0007  0.4494
 7344W        W24868   9.938   6.325  12.890 -0.0781 -0.4083 -0.2537
 7345W        W24869  13.649  11.880  14.280 -0.3335  0.0081 -0.1053
 7346W        W24870   4.802  10.793   3.068  0.0255 -0.1097  0.0045
 7347W        W24871   8.355   8.389  13.132 -0.4525  0.1815 -0.2475
 7348W        W24872  11.792  11.371   3.317  0.1746  0.0660 -0.0653
 7349W        W24873   3.312   7.635  14.277  0.0319 -0.0369 -0.2496
 7350W        W24874  10.629   3.254  11.476  0.1687 -0.0185  0.0443
 7351W        W24875  11.110   7.847   3.811 -0.2016 -0.0073  0.0302
 7352W        W24876   2.560  17.626   1.516 -0.0849  0.2178  0.1579
 7353W        W24877  12.462   5.372  12.838 -0.3743  0.1324 -0.3753
 7354W        W24878   8.119   5.076   1.797 -0.0869  0.0094  0.2747
 7355W        W24879   5.367   7.514   3.499  0.0811 -0.1710 -0.5482
 7356W        W24880  11.514  13.181   0.505 -0.3419  0.2277 -0.1077
 7357W        W24881   9.290  14.017   1.186 -0.1790  0.0112  0.1367
 7358W        W24882  16.263   3.841   2.602  0.2843  0.0686 -0.1987
 7359W        W24883   3.723  14.366   0.336  0.0185  0.0595 -0.1132
 7360W        W24884   0.052  16.808   5.525  0.2407  0.0337 -0.0738
 7361W        W24885  15.101  15.221  15.632  0.1256  0.0250  0.3313
 7362W        W24886   1.586  15.397  15.058  0.0998  0.1426  0.1086
 7363W        W24887  10.134  14.138  12.344  0.0503 -0.0308 -0.0283
 7364W        W24888  12.942   4.078  15.329 -0.1700 -0.0546 -0.2484
 7365W        W24889  13.054   5.939  11.718 -0.2087  0.3241  0.2160
 7366W        W24890  16.962  17.598   3.098 -0.0813 -0.4175  0.0130
 7367W        W24891  13.447   9.153   0.247 -0.2241 -0.1903  0.2626
 7368W        W24892   3.711   6.052  15.309 -0.1938  0.0554 -0.0204
 7369W        W24893  12.126  13.728   4.882 -0.0943  0.0133 -0.2543
 7370W        W24894   0.651   8.187   3.662  0.1248  0.0354  0.2098
 7371W        W24895   5.147  15.021  13.385 -0.0241 -0.3287  0.0473
 7372W        W24896  11.378  11.124  14.466  0.0566  0.0081  0.3070
 7373W        W24897  13.698   2.143   0.011 -0.0905 -0.1142  0.1985
 7374W        W24898   7.055  11.969   1.350 -0.1484 -0.1370  0.2577
 7375W        W24899  13.559   8.756  14.244 -0.0594  0.2799  0.3068
 7376W        W24900  10.697   6.234   1.767  0.0917  0.0843  0.2047
 7377W        W24901  17.822   8.613   3.266 -0.1450  0.1542 -0.1729
 7378W        W24902   7.567  16.235  14.169  0.2539 -0.1184  0.1438
 7379W        W24903   8.943   5.287   5.554 -0.3592  0.0076 -0.1362
 7380W        W24904   4.223   3.536  10.995 -0.4050 -0.1431 -0.2729
 7381W        W24905   7.336   6.072   3.477 -0.1442  0.0841  0.0773
 7382W        W24906   3.036   0.296  15.152  0.0039  0.3345 -0.3616
 7383W        W24907   9.875  15.931   1.850  0.0483 -0.2596  0.0797
 7384W        W24908   6.398   1.013  11.076 -0.0794 -0.7021 -0.0839
 7385W        W24909   8.386  17.263   4.147 -0.0112 -0.2521  0.0459
 7386W        W24910   7.638   3.667  10.707  0.0658  0.0746 -0.0059
 7387W        W24911   6.152   4.279   1.287 -0.2551  0.0944 -0.1868
 7388W        W24912   7.422  18.039   2.733  0.3055 -0.3629  0.1426
 7389W        W24913  11.229   0.631  12.605 -0.3603 -0.2144 -0.3371
 7390W        W24914   3.543  10.380  13.750  0.3751  0.1707  0.0492
 7391W        W24915  17.702  12.168  11.293 -0.0149 -0.0426  0.1150
 7392W        W24916   0.552   9.187  12.187  0.0772  0.1137 -0.1364
 7393W        W24917   0.614  14.450  15.593 -0.0171 -0.1908 -0.0982
 7394W        W24918   6.383   5.432  14.120 -0.2681  0.0193 -0.0839
 7395W        W24919   0.553   1.531  13.367  0.1597  0.0514  0.1735
 7396W        W24920  13.577  16.625   1.470  0.3038  0.0068  0.0673
 7397W        W24921   0.915  15.375  12.579  0.1263 -0.1387  0.1689
 7398W        W24922   1.764  17.768  12.326 -0.0909  0.1327 -0.0517
 7399W        W24923  14.139  15.455   5.328  0.2065 -0.1283 -0.1009
 7400W        W24924   9.517  11.552   1.666 -0.0288 -0.2255 -0.2512
 7401W        W24925   8.038   3.395   4.679 -0.1344  0.0206 -0.0018
 7402W        W24926   9.471   2.946   0.462 -0.2035  0.1543 -0.0654
 7403W        W24927   4.000   6.936   2.547 -0.0703 -0.1116 -0.0375
 7404W        W24928   2.919   8.798   3.138  0.0457 -0.0528 -0.0808
 7405W        W24929  11.480   2.411  15.276 -0.0371  0.1302  0.0447
 7406W        W24930   4.857  12.890   4.559 -0.4104 -0.1093  0.1014
 7407W        W24931  11.029   9.361  15.102 -0.1634  0.2047 -0.0618
 7408W        W24932   2.177  11.609   2.645 -0.4706 -0.0720  0.1219
 7409W        W24933  14.070  16.234   0.762  0.2385 -0.1998 -0.0524
 7410W        W24934   7.747   0.246  14.817  0.0441 -0.0088  0.0276
 7411W        W24935   7.502  10.904  14.776  0.2052  0.3059  0.0258
 7412W        W24936  10.467  17.972   3.516  0.0519  0.1872 -0.1211
 7413W        W24937  11.476   3.687   2.365  0.1456  0.0363  0.0523
 7414W        W24938   1.349  18.023   1.841  0.1668  0.0548  0.1125
 7415W        W24939   7.307   1.383   0.184  0.1057  0.0565  0.2862
 7416W        W24940  13.475  10.933  13.951 -0.0957  0.1913 -0.2444
 7417W        W24941   5.286   8.079  12.242 -0.0428  0.0640 -0.2695
 7418W        W24942  13.876   9.689   3.151  0.1248 -0.0420  0.0932
 7419W        W24943  16.206   0.121   2.997 -0.1445 -0.2197 -0.1064
 7420W        W24944   2.749  13.968  14.954  0.0410  0.0689 -0.1984
 7421W        W24945  10.467  17.355   0.025  0.1331  0.0374  0.0413
 7422W        W24946   4.026  15.349  14.387  0.1864  0.0176  0.1875
 7423W        W24947   6.953   0.453  15.153  0.0136  0.2135 -0.0587
 7424W        W24948  10.928   2.516  13.092  0.0424 -0.2423  0.0665
 7425W        W24949   0.679   5.309  13.675  0.0669 -0.0934  0.0167
 7426W        W24950  14.024  14.001   5.106 -0.0685 -0.1012 -0.0585
 7427W        W24951  12.104   3.542  14.577  0.0494 -0.0926 -0.4486
 7428W        W24952   0.949  15.870  12.574  0.0975  0.0645 -0.2528
 7429W        W24953   4.935  15.602   5.157 -0.5544 -0.0684  0.0560
 7430W        W24954   2.886  11.836  15.320  0.1950 -0.2189 -0.2600
 7431W        W24955  14.745  17.688  11.860  0.3663 -0.0391 -0.0256
 7432W        W24956   6.375   1.904   9.822 -0.0260 -0.2680  0.2833
 7433W        W24957   8.530  10.673   1.291 -0.0690 -0.1577  0.2144
 7434W        W24958   4.320   3.343  14.278  0.0271 -0.2212 -0.0997
 7435W        W24959   7.169   3.179   3.163  0.1293  0.0031 -0.3046
 7436W        W24960  11.359   8.516   3.046 -0.0640  0.1013  0.1865
 7437W        W24961  11.564  11.577  12.470  0.0473 -0.1323  0.0092
 7438W        W24962   9.522   8.038  15.611  0.4246 -0.4462  0.2637
 7439W        W24963   1.613   3.281  10.737  0.1027  0.2411  0.0258
 7440W        W24964  10.631  17.540  15.134 -0.0061  0.1996 -0.2429
 7441W        W24965  16.180   2.246  13.379 -0.2876  0.0274 -0.3440
 7442W        W24966   2.038   2.662   1.031 -0.2361  0.0379  0.0082
 7443W        W24967   5.255   7.423   1.643 -0.0222  0.2091 -0.2117
 7444W        W24968  10.397   4.502   0.013  0.1869 -0.2815  0.1743
 7445W        W24969  16.249   7.007   3.454  0.1564  0.2532 -0.0006
 7446W        W24970  17.949   8.358   2.845  0.0770 -0.0479  0.1783
 7447W        W24971   7.073  17.047  11.144 -0.1494  0.1556 -0.0448
 7448W        W24972   7.681   1.383  13.429 -0.1509  0.0217  0.0355
 7449W        W24973  10.881  13.591  11.745 -0.2722  0.0520  0.0463
 7450W        W24974   1.449  13.408   0.432  0.0064  0.2583 -0.1415
 7451W        W24975   6.162   5.690   3.111 -0.1207  0.1193  0.0449
 7452W        W24976  17.462  16.307   5.681 -0.0107  0.1238  0.0243
 7453W        W24977   8.373   1.685  10.702 -0.1935  0.0380 -0.2145
 7454W        W24978  13.873  16.439  14.358 -0.0124  0.1662 -0.2927
 7455W        W24979  16.478  15.274   2.870  0.4712 -0.1983 -0.0360
 7456W        W24980  14.170  13.328  15.840  0.0236 -0.2034 -0.0495
 7457W        W24981  12.836  15.674   1.083  0.0241  0.0968 -0.0120
 7458W        W24982   2.117   7.176  12.521  0.2178 -0.0241 -0.0291
 7459W        W24983  12.684   7.821  12.364  0.1591  0.0945 -0.0584
 7460W        W24984   5.289   8.584  13.190  0.1196  0.1380  0.1079
 7461W        W24985   4.341  13.232   3.247 -0.1063  0.2542  0.2757
 7462W        W24986   5.925  12.982  11.424  0.3452  0.4124 -0.0380
 7463W        W24987   6.397   3.288   0.021  0.0471 -0.2182  0.3053
 7464W        W24988  17.390   7.761  12.621  0.0477 -0.3332  0.1012
 7465W        W24989  17.220   4.175  14.288  0.3208  0.2739  0.4095
 7466W        W24990   2.568  15.762   2.504 -0.0784 -0.0590  0.2061
 7467W        W24991  15.797   5.834   3.361 -0.0390  0.0316  0.0219
 7468W        W24992   2.800   5.960  15.470 -0.1933 -0.0159  0.1112
 7469W        W24993  10.253   4.034  11.287  0.0442 -0.1332 -0.3389
 7470W        W24994  16.203   2.773   1.659  0.0871  0.0373  0.0871
 7471W        W24995   9.789   2.392   1.833  0.0164  0.1264 -0.0067
 7472W        W24996  14.015  15.756  14.563  0.2504 -0.0707  0.0102
 7473W        W24997   5.606   3.152  15.618 -0.1692  0.0107  0.1024
 7474W        W24998  11.837   2.473   3.326  0.0564 -0.1144  0.2722
 7475W        W24999   6.939   0.617   0.516 -0.1228 -0.1444 -0.1425
 7476W        W25000   7.388  15.058  13.618 -0.1394  0.0820 -0.0435
 7477W        W25001  17.773   0.175  14.274 -0.0652 -0.3466 -0.1193
 7478W        W25002   8.390   1.321  14.634  0.1011  0.1884  0.2781
 7479W        W25003   9.798   2.129  13.551 -0.0058  0.0321 -0.0441
 7480W        W25004   5.188   9.643  14.057  0.0721  0.1557  0.1854
 7481W        W25005  11.640   5.830   4.465  0.1220  0.3517 -0.0529
 7482W        W25006   8.779   1.303  15.388 -0.1264 -0.0508  0.2106
 7483W        W25007  17.568   4.925  15.388 -0.1675  0.4423 -0.1747
 7484W        W25008  17.928   7.720  15.182 -0.1712  0.2127  0.4934
 7485W        W25009   1.626   5.818   3.361 -0.1204  0.0111  0.0501
 7486W        W25010  17.819  11.989   3.622  0.1671  0.0602  0.2359
 7487W        W25011  10.073  10.179   1.157  0.1063  0.0861  0.0026
 7488W        W25012  17.719  11.708  11.036  0.0402 -0.0344 -0.0015
 7489W        W25013  12.424  17.184   0.086  0.2449  0.1361 -0.0038
 7490W        W25014   3.149  16.306   1.907  0.2755  0.1271  0.0507
 7491W        W25015   5.238  17.942  14.088  0.0892 -0.1232  0.3995
 7492W        W25016   0.640  13.295  14.999 -0.0603  0.0160 -0.0690
 7493W        W25017  17.107   3.990  12.000 -0.1397  0.2449 -0.0387
 7494W        W25018  17.429  13.873  13.849  0.1789 -0.0607 -0.0375
 7495W        W25019  16.323   3.965   4.260  0.0556 -0.0928 -0.0076
 7496W        W25020   8.345   9.573   0.975  0.3497 -0.0214  0.0411
 7497W        W25021  14.159  11.917   4.038  0.0090  0.1928  0.3479
 7498W        W25022   5.998   4.364   0.797 -0.1109  0.0339 -0.0663
 7499W        W25023  11.751   6.469  16.034  0.0853 -0.2067 -0.1445
 7500W        W25024  10.735   7.876   0.615  0.1773  0.0151 -0.4565
 7501W        W25025  10.171   5.211  14.417  0.0550  0.1651  0.0723
 7502W        W25026  12.336   4.800   3.093 -0.1571  0.1485  0.3403
 7503W        W25027   1.242  16.925  11.445  0.0150 -0.2208  0.1856
 7504W        W25028  17.695  12.472  14.395  0.2082  0.1004 -0.0132
 7505W        W25029   1.169   1.085  13.870 -0.2025  0.2610 -0.0173
 7506W        W25030   6.515   0.649   1.681 -0.0920 -0.0879  0.1554
 7507W        W25031  13.436  15.857  13.375 -0.1692 -0.5131 -0.2298
 7508W        W25032  17.878   2.447  11.733  0.0601 -0.1163  0.1433
 7509W        W25033   2.218   1.458  12.105  0.0692 -0.1605  0.0262
 7510W        W25034   8.729   6.979  15.715 -0.1276 -0.1453 -0.1114
 7511W        W25035  13.477  10.575  14.832 -0.2692  0.2184 -0.0161
 7512W        W25036   4.400   9.091   1.537  0.0673  0.1867 -0.0688
 7513W        W25037  14.960   4.994  10.603  0.0551 -0.0244 -0.1280
 7514W        W25038  15.907   4.840   3.930  0.3128  0.0499  0.1157
 7515W        W25039  13.499   9.952   3.738 -0.0345  0.0250  0.1704
 7516W        W25040  11.037  13.014   2.582 -0.0784  0.1677 -0.1106
 7517W        W25041   6.366   3.109  14.966  0.1133  0.2239  0.0468
 7518W        W25042   0.690   4.668   0.790 -0.1108 -0.1966 -0.2539
 7519W        W25043   8.905   3.219   2.613  0.1789  0.1185  0.2306
 7520W        W25044   3.984  10.324   1.007  0.0364 -0.0746  0.0081
 7521W        W25045  18.003   5.086   4.478  0.0438  0.1919  0.0352
 7522W        W25046  10.240  14.071   2.205 -0.2193 -0.0067 -0.1452
 7523W        W25047  17.239   2.541   1.398 -0.1504  0.0564  0.1547
 7524W        W25048   1.539  15.651  14.233  0.1355 -0.0981  0.2310
 7525W        W25049   8.412   3.900  11.960  0.0407 -0.0910 -0.1869
 7526W        W25050   4.940   2.180  12.576  0.1061 -0.2620  0.2238
 7527W        W25051  14.736   2.387  14.510 -0.0433  0.2502 -0.1054
 7528W        W25052   0.010  14.317  11.226 -0.0354 -0.0906 -0.0098
 7529W        W25053  13.413   0.240  14.704 -0.1597  0.1739  0.2391
 7530W        W25054   4.332  14.659  13.519 -0.0228  0.2352 -0.1606
 7531W        W25055  11.545   3.970   1.890 -0.0766  0.0465 -0.0915
 7532W        W25056   1.650  16.470   3.472  0.5752  0.0804 -0.3600
 7533W        W25057   1.317   8.560   4.068  0.0163 -0.1265  0.2234
 7534W        W25058   3.669   1.175   0.325 -0.3174 -0.0335 -0.1546
 7535W        W25059  12.812   1.999   1.545  0.0419 -0.0173 -0.1253
 7536W        W25060   2.879  11.225  15.983  0.1283 -0.1141 -0.1636
 7537W        W25061   5.881   2.205   0.226 -0.1461  0.0280 -0.0705
 7538W        W25062   2.971  11.650   1.655 -0.1025  0.1840 -0.1143
 7539W        W25063   5.528   6.140  15.712 -0.0121  0.2166 -0.1277
 7540W        W25064   9.019   3.710   3.730  0.0477 -0.1797  0.1342
 7541W        W25065   6.364   6.145   1.686  0.2684  0.0917 -0.2829
 7542W        W25066  12.699  14.195   4.241 -0.1306 -0.0776  0.3172
 7543W        W25067  16.655   6.131   2.410  0.5001  0.1924  0.1128
 7544W        W25068   7.851   8.716  12.789  0.2699 -0.2399  0.0920
 7545W        W25069   8.540   2.526  10.886  0.2001 -0.3136  0.0508
 7546W        W25070   0.096  11.538   4.960 -0.1402 -0.1801  0.2339
 7547W        W25071  15.515   7.637  11.312  0.2406  0.1992  0.2377
 7548W        W25072   4.532  10.525  11.398 -0.0156  0.0243  0.0581
 7549W        W25073  11.788   3.365   3.849 -0.1009  0.1609 -0.1667
 7550W        W25074   8.834  10.282   3.261  0.0108  0.1962  0.1763
 7551W        W25075  10.814  15.798   4.352 -0.1128 -0.2981  0.0112
 7552W        W25076  17.058   0.711  13.519 -0.2599  0.4728 -0.0652
 7553W        W25077   7.035  12.843  14.759  0.0140  0.0128  0.4460
 7554W        W25078   7.726   0.018  10.484 -0.0061  0.4265  0.2131
 7555W        W25079  12.898  11.739   4.076  0.0002  0.2093  0.1489
 7556W        W25080  17.272  10.239   3.316  0.0448  0.2492  0.3616
 7557W        W25081  12.079   0.152   4.168  0.1224  0.1638  0.4382
 7558W        W25082   8.723   4.821   4.280 -0.0508 -0.0507 -0.1842
 7559W        W25083   2.392  11.284  12.974 -0.0561 -0.5184  0.1475
 7560W        W25084   1.975  10.808  11.320  0.0281 -0.0228 -0.0623
 7561W        W25085   2.370   8.252   3.529  0.1724  0.0635 -0.0377
 7562W        W25086   9.579  17.128   2.517 -0.0117  0.2586 -0.0737
 7563W        W25087  12.160   7.124   3.341 -0.0636 -0.0361  0.1910
 7564W        W25088   4.722   9.281  15.953 -0.0246 -0.0934  0.3242
 7565W        W25089   0.294   5.929   1.171 -0.1312 -0.1586 -0.1241
 7566W        W25090   8.613   7.970  11.973 -0.0749 -0.1692  0.0080
 7567W        W25091   7.793  13.348   0.188 -0.3602 -0.0094 -0.0048
 7568W        W25092  16.762  17.637  15.280  0.0703  0.1595 -0.2944
 7569W        W25093  16.956   8.527   0.198  0.1863  0.1823 -0.1476
 7570W        W25094  17.712  13.068   0.661 -0.2008  0.2540  0.0457
 7571W        W25095  17.838   9.343   4.225  0.1564  0.1332 -0.1758
 7572W        W25096   9.472  11.616   4.218  0.0730 -0.0109 -0.0106
 7573W        W25097  16.284   7.932   2.675  0.2080  0.1575  0.3282
 7574W        W25098   5.467  15.974  13.214 -0.1174  0.2497 -0.3541
 7575W        W25099   9.216   2.747  10.734  0.0413  0.0600  0.1411
 7576W        W25100  13.917   4.728  11.323 -0.1084  0.0421 -0.0310
 7577W        W25101   7.595   9.187   4.892 -0.0549  0.0146  0.0424
 7578W        W25102   3.317   0.364   2.284  0.1154  0.0171  0.2427
 7579W        W25103   7.068   5.354   1.204  0.2942 -0.0560 -0.3965
 7580W        W25104   8.877   5.949   1.512  0.2404  0.0538  0.1436
 7581W        W25105   4.182   0.686  15.024  0.0833  0.1098 -0.0161
 7582W        W25106   3.186   8.357  15.897 -0.1756 -0.0690  0.1077
 7583W        W25107   9.469   5.504   1.460  0.2749 -0.2938 -0.1562
 7584W        W25108  14.802   5.355   3.194 -0.1823 -0.0789  0.1407
 7585W        W25109   2.705   8.351  11.046  0.2428  0.1479  0.1239
 7586W        W25110  14.654   1.512  13.636  0.2594  0.0774  0.0437
 7587W        W25111   1.677  12.271  12.894 -0.1274  0.1914  0.2466
 7588W        W25112   5.526  16.292   3.400  0.2882  0.0375  0.3896
 7589W        W25113  16.353   2.540  16.015  0.2016  0.0134  0.0974
 7590W        W25114  14.734   8.927  13.190  0.0838 -0.1847 -0.2470
 7591W        W25115   6.559   4.078  14.017 -0.0045 -0.0344  0.2318
 7592W        W25116   1.900   5.596  12.189 -0.0301  0.4390  0.1239
 7593W        W25117   1.029  10.436   2.833 -0.0288 -0.1543  0.0485
 7594W        W25118  15.437  12.991  12.333  0.1355  0.0746  0.1277
 7595W        W25119  16.989   1.664  13.135 -0.1072  0.1525 -0.2421
 7596W        W25120   0.640   1.896   2.826  0.2149 -0.1658  0.2304
 7597W        W25121   3.942   9.419   4.990  0.1839 -0.0718 -0.1442
 7598W        W25122   1.398  17.390  12.379 -0.3387 -0.0876  0.0478
 7599W        W25123   8.598   4.044   3.774  0.0702  0.2084  0.0269
 7600W        W25124   6.074   0.048  11.782  0.0390  0.0595  0.0934
 7601W        W25125  15.578   7.240  11.606 -0.1088  0.4139 -0.0810
 7602W        W25126  13.630   6.292   4.311  0.1127  0.0071  0.1032
 7603W        W25127   3.974  16.310   4.257  0.0222 -0.2736 -0.1534
 7604W        W25128  12.023   5.113   2.464  0.0808 -0.0738  0.2309
 7605W        W25129  14.307   0.760   4.104  0.1940  0.0387  0.3451
 7606W        W25130  10.261  15.311   4.211 -0.1159  0.1445  0.0697
 7607W        W25131   1.927   2.108  12.507  0.0497  0.0765  0.0705
 7608W        W25132  13.178   9.789   0.063 -0.1969  0.5557  0.0116
 7609W        W25133   1.425  13.525  13.981  0.1824 -0.0654  0.2665
 7610W        W25134   8.744   9.809  14.701  0.0073  0.3647 -0.2412
 7611W        W25135   9.115   9.930   1.349  0.0748 -0.5271  0.3254
 7612W        W25136  14.618  17.673   4.689 -0.0044  0.2692 -0.0507
 7613W        W25137   5.640  12.989  15.536  0.0352 -0.0494 -0.1701
 7614W        W25138   5.897  10.559   3.711 -0.1995 -0.0959  0.1283
 7615W        W25139  13.999  16.831   4.433  0.2319 -0.0957  0.2365
 7616W        W25140   8.063   2.893  14.115 -0.3606  0.3022 -0.0204
 7617W        W25141  14.340   5.307  12.939  0.2671 -0.1463  0.0001
 7618W        W25142  12.796   5.694  12.562 -0.0959  0.0919  0.2321
 7619W        W25143  12.793   7.033  12.215 -0.0221 -0.4572 -0.2539
 7620W        W25144  14.625  12.464   3.475  0.0778 -0.0988  0.0727
 7621W        W25145  12.246   3.462   2.045  0.0634  0.1873 -0.4441
 7622W        W25146   5.102   6.138  16.042  0.1404 -0.1115  0.3664
 7623W        W25147   6.277   2.710  13.325  0.3767  0.2950  0.1612
 7624W        W25148  11.925   8.623   3.107 -0.3831  0.1951 -0.1237
 7625W        W25149   5.925   8.855   4.741 -0.2395  0.0856  0.5164
 7626W        W25150  10.101  11.144   0.036  0.1539  0.1220  0.0591
 7627W        W25151  15.414   2.970   4.962  0.0732 -0.1462  0.0945
 7628W        W25152  12.274  10.977  14.581 -0.1188  0.4206  0.0349
 7629W        W25153   4.294  12.184   1.129  0.3464 -0.2626 -0.1197
 7630W        W25154  16.089  18.119  15.192  0.0640 -0.0964 -0.2078
 7631W        W25155   4.562   4.723  14.494  0.3232 -0.0551  0.0554
 7632W        W25156   7.930   0.611   0.431  0.0044 -0.1208 -0.0531
 7633W        W25157  12.073   4.552  15.880  0.0707  0.1192  0.1829
 7634W        W25158  10.501   2.200  10.996  0.0676  0.2223 -0.1294
 7635W        W25159  13.368  13.566   0.206  0.2200 -0.2894 -0.0256
 7636W        W25160   8.991   2.046   2.760  0.0212 -0.3151 -0.0071
 7637W        W25161   5.538  14.830  10.645 -0.2606 -0.2159  0.0962
 7638W        W25162  16.996   6.126  12.887  0.0212 -0.1863  0.1122
 7639W        W25163   6.988   8.397   5.358 -0.0238 -0.0921 -0.2920
 7640W        W25164   4.487  13.487   5.643  0.0188  0.1212  0.0535
 7641W        W25165  11.460  14.802   1.832 -0.2950  0.0511 -0.0015
 7642W        W25166  14.735  17.870  14.378  0.1581 -0.0983  0.4453
 7643W        W25167  10.230   1.392  15.608 -0.0669 -0.1295  0.0465
 7644W        W25168  13.681   5.713   2.621 -0.0914 -0.2009  0.0060
 7645W        W25169   3.846   7.580  12.271  0.1114 -0.0331 -0.0795
 7646W        W25170  17.329   9.334  15.939 -0.2151  0.3089  0.2250
 7647W        W25171  15.247   3.530  12.855  0.0128 -0.0690  0.1782
 7648W        W25172  10.057  15.775  12.277 -0.1748 -0.0586  0.4496
 7649W        W25173  13.801   3.418   1.451 -0.1626 -0.2015 -0.2798
 7650W        W25174   3.852  13.523  13.977  0.0374 -0.2072  0.2121
 7651W        W25175   2.495  16.708   1.171 -0.3810 -0.0142 -0.0892
 7652W        W25176  16.479   0.764   4.320  0.0322 -0.0251  0.0105
 7653W        W25177  14.637   5.925   1.141  0.4438  0.0412  0.0589
 7654W        W25178  15.186   5.335  12.243 -0.2005  0.1851  0.0730
 7655W        W25179  13.394   1.694   0.079 -0.0268 -0.3202  0.1756
 7656W        W25180   7.630   2.047  13.523  0.1624  0.2008  0.1493
 7657W        W25181   4.097  10.621   1.785  0.3188 -0.3144 -0.2757
 7658W        W25182   3.712  10.360   3.261  0.1237 -0.3342  0.1071
 7659W        W25183  12.311  12.592   4.494 -0.1586  0.0480  0.1868
 7660W        W25184   0.077  12.509   4.359  0.2961  0.1101  0.3359
 7661W        W25185   3.531   5.615  10.763 -0.0590  0.0469 -0.0278
 7662W        W25186  13.791  11.660  12.174 -0.0377 -0.0408 -0.1286
 7663W        W25187   4.494  14.380  14.874 -0.1648  0.2393 -0.2623
 7664W        W25188  14.264  16.925   2.135  0.2279 -0.0770 -0.0087
 7665W        W25189   3.437   6.457   1.231  0.1161  0.1267 -0.0866
 7666W        W25190  17.230  12.947  12.273 -0.0078  0.1056 -0.1011
 7667W        W25191  10.094  17.547  14.940  0.1687  0.1575 -0.1356
 7668W        W25192   9.095   5.868   1.094  0.0368 -0.2263 -0.1461
 7669W        W25193  12.604   7.483   3.347 -0.2689  0.0130 -0.1987
 7670W        W25194   5.963  12.180  14.553  0.0041 -0.0257  0.5746
 7671W        W25195  16.985   4.590   0.583  0.2455  0.2690  0.0010
 7672W        W25196  17.270  10.996  14.267 -0.0655 -0.1751 -0.1177
 7673W        W25197   7.195   4.752   3.832  0.1339 -0.1447 -0.2304
 7674W        W25198   2.926   5.200  12.838  0.3910 -0.2121  0.4158
 7675W        W25199   1.749   7.352  10.809  0.2019  0.1113 -0.0600
 7676W        W25200  11.664   2.271   3.778  0.0620 -0.1825 -0.1319
 7677W        W25201  10.238  15.594   0.340 -0.2068 -0.1714  0.0072
 7678W        W25202  15.582   7.239   0.963  0.2580 -0.1100 -0.1459
 7679W        W25203  16.288  12.457  16.000  0.1635 -0.1445 -0.0117
 7680W        W25204  12.638  16.719   0.129 -0.0509 -0.2186  0.3410
 7681W        W25205   3.873   0.761  14.659 -0.0055  0.0584  0.1099
 7682W        W25206  12.576   6.706   1.910 -0.0977 -0.2574  0.0300
 7683W        W25207  12.392   6.573   2.352  0.1592  0.2614 -0.2242
 7684W        W25208   2.930  13.199  15.532 -0.2037  0.3504  0.0726
 7685W        W25209   7.140   6.309   4.717  0.1562  0.1434  0.0205
 7686W        W25210  15.146   4.767   2.403 -0.3026  0.0571  0.0882
 7687W        W25211   5.507  13.232  11.290 -0.0220  0.2086 -0.1402
 7688W        W25212  15.155   7.900   2.048 -0.0394 -0.1638  0.1356
 7689W        W25213  17.011  10.221  12.937  0.0548 -0.0458 -0.1793
 7690W        W25214   1.470   1.288  12.760 -0.1613 -0.0087  0.2740
 7691W        W25215  14.926  16.786   2.804  0.0487 -0.1595  0.1080
 7692W        W25216   1.100  17.520   5.315 -0.0997  0.0196  0.0982
 7693W        W25217  17.701  17.598   3.144  0.2906 -0.3073 -0.0308
 7694W        W25218   0.860  16.563  13.252 -0.0334  0.0016 -0.1135
 7695W        W25219  16.997  14.626  14.833  0.2512  0.1754  0.0836
 7696W        W25220   8.251   9.857  10.980 -0.3004  0.3507 -0.0170
 7697W        W25221  17.162   4.002  15.185 -0.0797 -0.1640  0.1750
 7698W        W25222   6.753   3.914   0.530 -0.1894 -0.2580 -0.1940
 7699W        W25223   2.522   8.664   0.137  0.3461 -0.1732  0.0230
 7700W        W25224   9.702  13.322   1.180 -0.1245  0.0723  0.1608
 7701W        W25225   8.355   0.355  10.885 -0.0512 -0.0237 -0.1859
 7702W        W25226   7.031   7.039   2.392 -0.3428  0.0020 -0.1870
 7703W        W25227   2.153   8.699   2.689 -0.1499 -0.0666  0.4241
 7704W        W25228   7.187  10.245   2.218 -0.1866  0.3006 -0.3087
 7705W        W25229  10.116   8.090   1.935  0.0426 -0.1410  0.2118
 7706W        W25230  16.524  14.589   2.691 -0.0605  0.1205 -0.0699
 7707W        W25231  16.938   2.828   3.701  0.0475 -0.1482  0.1595
 7708W        W25232  14.661  14.902   1.395  0.1051  0.0023 -0.1497
 7709W        W25233   8.112   6.229   5.835  0.0798 -0.0573  0.2662
 7710W        W25234   1.104   5.514  15.472  0.2890  0.2928  0.0010
 7711W        W25235   9.019   7.784  13.264 -0.0829  0.0798  0.0620
 7712W        W25236   3.777  13.050   3.708 -0.2568 -0.0600 -0.2870
 7713W        W25237   7.002  12.211   4.771 -0.1762  0.1982 -0.0503
 7714W        W25238  15.990  14.370   3.037  0.2107  0.1218 -0.1006
 7715W        W25239   1.658   9.297  12.559  0.1454  0.3233  0.1789
 7716W        W25240   8.788   3.773  15.408 -0.0759 -0.4297 -0.2372
 7717W        W25241  17.816  13.299   1.854 -0.0686  0.0232  0.0013
 7718W        W25242   4.411   3.318   0.982  0.1345  0.3127  0.2817
 7719W        W25243  17.485   7.853   3.580  0.0464 -0.1883  0.2030
 7720W        W25244   2.560  11.972   1.686 -0.2952  0.0896 -0.0903
 7721W        W25245  11.545   3.023   4.451  0.2978 -0.0274 -0.1418
 7722W        W25246  15.258  13.655   0.609 -0.2636 -0.3507  0.3091
 7723W        W25247  12.098   8.905  14.855 -0.1430  0.2353 -0.2585
 7724W        W25248  15.833   6.018  13.427 -0.0989  0.1572 -0.2187
 7725W        W25249   2.030  14.750   1.234 -0.0930  0.2054 -0.1451
 7726W        W25250   7.799   0.059  12.408  0.0860  0.0381  0.0884
 7727W        W25251  16.595   0.458  12.109 -0.1796 -0.0134 -0.1310
 7728W        W25252   9.255   0.580   1.815  0.3743  0.1218 -0.2553
 7729W        W25253   5.501   0.416   0.486 -0.1030 -0.1835  0.3945
 7730W        W25254   8.620   9.630  12.060  0.1899  0.1332  0.1836
 7731W        W25255  12.446  12.157   2.261 -0.1666 -0.1317  0.0971
 7732W        W25256  11.845   6.772   2.527 -0.4991 -0.2212 -0.0556
 7733W        W25257   7.254  11.711   2.984  0.3829 -0.0807  0.2341
 7734W        W25258   2.532   5.959   3.069 -0.2594  0.0711  0.3535
 7735W        W25259   0.175   2.425   5.767 -0.0087  0.0634  0.2739
 7736W        W25260  11.799   5.581   5.958 -0.1182 -0.0736  0.0245
 7737W        W25261  12.188  11.602  11.780 -0.1111 -0.2163  0.1639
 7738W        W25262   5.254   1.482  12.137 -0.1158 -0.0803 -0.1443
 7739W        W25263   5.299   4.006   1.848  0.1735  0.0651 -0.0007
 7740W        W25264   2.104   6.717  11.196  0.0089  0.0165 -0.0033
 7741W        W25265  17.819   5.773  14.451 -0.4008 -0.1674  0.1194
 7742W        W25266  14.377   2.352   3.415 -0.0510 -0.0502 -0.2522
 7743W        W25267   7.666   6.352   1.375  0.0087 -0.0119  0.2872
 7744W        W25268   2.601  13.475   5.748  0.1475 -0.3067  0.1067
 7745W        W25269   9.373  16.479  11.750  0.0422  0.2130  0.1016
 7746W        W25270  12.713   1.921   3.041  0.0641 -0.4689  0.1062
 7747W        W25271  12.456  16.596  14.376  0.2654 -0.0938  0.1295
 7748W        W25272   4.469   8.599   3.768 -0.0867  0.0935 -0.1337
 7749W        W25273   2.537  11.058  11.886 -0.1523 -0.1632 -0.2609
 7750W        W25274   4.012   6.891   0.402 -0.0619 -0.0204 -0.1498
 7751W        W25275   4.756   8.032  14.664 -0.1185  0.2148 -0.2964
 7752W        W25276  10.953   1.629  14.001 -0.4589  0.1465  0.2035
 7753W        W25277  15.069   8.380  14.805 -0.2602 -0.3599 -0.2763
 7754W        W25278   7.011   2.125   0.796 -0.2620 -0.0467 -0.0175
 7755W        W25279  16.832  13.163  10.530 -0.0194  0.0437 -0.0282
 7756W        W25280  10.493   4.478  14.131  0.4389  0.1502  0.1793
 7757W        W25281  15.537  16.946   4.345 -0.0774  0.1071  0.1471
 7758W        W25282  17.475  17.336   1.514 -0.2043  0.1230  0.1073
 7759W        W25283   4.716   9.831  13.196 -0.1488  0.2138  0.0815
 7760W        W25284  15.277   9.681   1.247  0.1764 -0.0818 -0.3196
 7761W        W25285  12.005  16.705   1.480  0.2183 -0.0037  0.0682
 7762W        W25286  17.323   9.330   4.953 -0.4460  0.0318  0.1434
 7763W        W25287   5.506  15.432  12.188  0.2026 -0.4153  0.0304
 7764W        W25288   4.819   4.242   2.905 -0.1805  0.2103  0.0223
 7765W        W25289  10.153  14.037  14.624 -0.1577 -0.0184 -0.1757
 7766W        W25290  17.251   5.643  11.265 -0.0724  0.0020  0.0414
 7767W        W25291   0.703   2.469   0.011 -0.2740  0.0999  0.1309
 7768W        W25292   5.586   1.754   1.622  0.4709  0.2740 -0.2233
 7769W        W25293  17.245   9.856  14.232 -0.0818  0.0597  0.2286
 7770W        W25294  16.594   2.409   0.406 -0.0283  0.0528 -0.1135
 7771W        W25295   0.415  16.912  11.963 -0.1693 -0.0524  0.0309
 7772W        W25296   0.380  16.070   2.375  0.2541 -0.0815 -0.1300
 7773W        W25297   3.606   9.066   1.318 -0.0990 -0.0556  0.2704
 7774W        W25298  13.204   1.936   2.750 -0.2719  0.0901 -0.2040
 7775W        W25299   8.153   8.759  14.703  0.1711 -0.0722 -0.1134
 7776W        W25300  11.093  15.282   5.708  0.2593  0.0475  0.0460
 7777W        W25301  17.300  15.577  14.301  0.1362  0.1776  0.4768
 7778W        W25302   9.689   8.411  11.867  0.0032 -0.2022 -0.1044
 7779W        W25303  15.707   6.329   3.471  0.0185 -0.1530 -0.0756
 7780W        W25304  17.377   2.213   5.833  0.3062  0.0190  0.1634
 7781W        W25305  13.491   3.559   0.792 -0.0879  0.0635 -0.1096
 7782W        W25306  14.356  12.707  15.718 -0.0036 -0.0004  0.0092
 7783W        W25307   9.366  10.513   1.345  0.1598  0.0129  0.0653
 7784W        W25308  11.845  12.340  14.664  0.0781  0.1415  0.3270
 7785W        W25309   9.879   3.731   4.908 -0.0939  0.1740 -0.0322
 7786W        W25310  11.109  15.442  13.923 -0.0962  0.0413 -0.2272
 7787W        W25311   4.053   4.062  14.879 -0.2937  0.0376  0.0635
 7788W        W25312  12.437   0.604   4.245 -0.0452  0.4021  0.0508
 7789W        W25313  11.879   9.813  15.203 -0.0248  0.1908 -0.2505
 7790W        W25314  16.825   2.577   0.900 -0.2488 -0.1602  0.1273
 7791W        W25315   5.760  16.624  11.485 -0.1083  0.1729 -0.1954
 7792W        W25316   6.070   7.457   5.861 -0.1869 -0.0034  0.0651
 7793W        W25317   3.358  17.224  15.173 -0.0507 -0.3313 -0.1753
 7794W        W25318   9.218   9.149  11.552  0.0946 -0.0504  0.0473
 7795W        W25319  13.011  13.882  15.833 -0.1225  0.2309 -0.1170
 7796W        W25320   5.258  13.891   4.381 -0.0531  0.3283 -0.3125
 7797W        W25321  17.035   7.035   1.439  0.1957  0.1401  0.1571
 7798W        W25322  14.430  14.518  14.653 -0.1448 -0.0625 -0.1553
 7799W        W25323   3.016  12.206   1.807 -0.0648 -0.0989  0.2483
 7800W        W25324  16.468   1.293   4.248  0.1741 -0.1145  0.1939
 7801W        W25325   5.215   8.236  14.568  0.0134 -0.0869  0.3421
 7802W        W25326   5.161  10.040  10.202  0.2501  0.2243 -0.0466
 7803W        W25327   6.915   9.004   1.686  0.1579 -0.0348  0.2878
 7804W        W25328  11.087  13.844   2.719 -0.2263  0.0877  0.1152
 7805W        W25329   5.301  16.585  15.061  0.0562 -0.0140  0.2487
 7806W        W25330   0.935  14.325   0.367  0.1629 -0.0488 -0.2664
 7807W        W25331   8.407   5.146   4.118 -0.1240 -0.0749 -0.0771
 7808W        W25332  12.387  16.840   4.988  0.1225 -0.1682 -0.0678
 7809W        W25333  13.751   6.609   0.832 -0.2113  0.1550  0.1503
 7810W        W25334  15.516   7.873  12.301 -0.1442  0.0935  0.1349
 7811W        W25335  14.129  14.955   3.033  0.2432 -0.1119  0.0445
 7812W        W25336   4.678  11.095  13.780 -0.0632 -0.4088 -0.3068
 7813W        W25337  11.239   2.172   1.803 -0.0910  0.0883  0.0059
 7814W        W25338   6.567  14.014  14.817 -0.4181 -0.1571 -0.1301
 7815W        W25339   1.450  10.308   5.446 -0.0844 -0.0411  0.1043
 7816W        W25340   3.248  16.158   3.756 -0.2057  0.0442 -0.0201
 7817W        W25341  10.949   7.257   0.976  0.3419  0.1445  0.2489
 7818W        W25342   7.518   1.908   3.962 -0.1051  0.0023 -0.2324
 7819W        W25343  12.182   5.768   5.681 -0.0225 -0.3829 -0.1563
 7820W        W25344   4.796  17.208  15.190 -0.1119 -0.1127  0.0467
 7821W        W25345   7.175   9.409   2.640  0.0415  0.3288  0.0139
 7822W        W25346  15.888   2.241   0.231 -0.1217 -0.0921  0.3604
 7823W        W25347  17.033   3.938  14.697  0.2189  0.0868 -0.1818
 7824W        W25348   4.575   9.842  10.133 -0.2269  0.1197 -0.0614
 7825W        W25349  10.722  15.982   0.323  0.2799  0.1939  0.1772
 7826W        W25350   9.940   0.989   1.531  0.4836  0.4103 -0.0135
 7827W        W25351   0.120   8.406  11.982  0.0856  0.0514 -0.1980
 7828W        W25352  11.068   4.664  13.810  0.0928 -0.1434 -0.1282
 7829W        W25353   1.845   7.923  12.547 -0.0919 -0.1831 -0.2286
 7830W        W25354   8.973  12.545   2.177  0.3389  0.1675  0.0169
 7831W        W25355   3.151  13.344   1.938  0.1900 -0.5405 -0.2980
 7832W        W25356  13.432   1.696  11.591 -0.2443  0.1371  0.2573
 7833W        W25357   8.260  17.233   1.049 -0.0397  0.0480 -0.0399
 7834W        W25358   1.217   8.039  10.469 -0.0496  0.0986  0.1695
 7835W        W25359   9.530  14.290   1.944 -0.2120  0.0614  0.0815
 7836W        W25360  14.295  16.257  14.515  0.1142  0.1806  0.1049
 7837W        W25361   9.690   1.091  15.127  0.3146 -0.0065  0.0740
 7838W        W25362   0.112   1.038   4.419 -0.0203 -0.3650  0.0713
 7839W        W25363  12.674   0.539   4.644 -0.0520 -0.3680 -0.1056
 7840W        W25364   4.664  14.257   0.471  0.3572  0.1297 -0.3221
 7841W        W25365   7.571   2.874  13.195  0.0635  0.0731 -0.1032
 7842W        W25366   0.298  15.100   1.312 -0.2384 -0.0100  0.0615
 7843W        W25367   4.075   4.536  14.673  0.1159 -0.2543 -0.4512
 7844W        W25368  11.655  15.519  13.356  0.4033 -0.0415 -0.2243
 7845W        W25369   3.314   0.776  14.500 -0.1800  0.1702 -0.1914
 7846W        W25370   8.200   0.263  11.361 -0.1087 -0.2067  0.0743
 7847W        W25371   3.559   3.486   0.974 -0.0506  0.2728  0.2614
 7848W        W25372   0.636   7.054  11.197  0.1224  0.1439 -0.1001
 7849W        W25373   7.833   5.711  14.613  0.1835 -0.0735  0.1163
 7850W        W25374  11.843  15.511  11.708 -0.0413  0.1300 -0.0069
 7851W        W25375   8.329   0.390   4.010 -0.1408 -0.3829  0.1163
 7852W        W25376  18.007   7.721  14.040 -0.0324  0.1908 -0.0869
 7853W        W25377  10.023   6.560  15.077  0.0355  0.0216  0.1558
 7854W        W25378   8.855   6.432  15.392  0.0992  0.1241  0.1302
 7855W        W25379  11.792   1.151   3.929  0.1408 -0.1878 -0.0240
 7856W        W25380   5.407  13.064  13.366 -0.2757 -0.2370  0.3502
 7857W        W25381   6.909  11.356   3.196 -0.2138 -0.2256  0.1307
 7858W        W25382   3.846   1.647  12.179  0.0022  0.3571 -0.2259
 7859W        W25383   0.171   1.614  14.190 -0.1874 -0.0550 -0.1400
 7860W        W25384   0.753   1.563  15.613 -0.3228 -0.0093 -0.0408
 7861W        W25385   1.171   3.008   4.646 -0.0050  0.3446  0.0474
 7862W        W25386   3.378   6.877  13.143  0.3028  0.0702  0.0983
 7863W        W25387  13.766   4.577  11.761 -0.1461  0.0399  0.0780
 7864W        W25388   3.926  12.608   5.428  0.1724 -0.1797 -0.0743
 7865W        W25389  10.285  17.868   1.389 -0.1372  0.0598 -0.0042
 7866W        W25390  16.129  10.246  15.575  0.0046 -0.2380  0.1075
 7867W        W25391  17.828   0.016  14.744 -0.1257  0.5449 -0.0077
 7868W        W25392   4.146  10.195   3.083 -0.1952  0.0619  0.1158
 7869W        W25393   3.263  14.227   0.858 -0.0905 -0.1687  0.1524
 7870W        W25394   8.111  16.631  15.011  0.0796 -0.0251 -0.0890
 7871W        W25395  17.971   8.306   4.179 -0.3660 -0.0901 -0.2499
 7872W        W25396  11.462  16.978  12.026  0.2487 -0.1749  0.3392
 7873W        W25397   0.337  18.076   5.229  0.0126 -0.1628  0.1220
 7874W        W25398   0.872  16.123  15.386  0.0495  0.1386  0.0093
 7875W        W25399   9.507  13.619   0.834 -0.1590  0.2386  0.1658
 7876W        W25400   7.808  15.168   1.150 -0.0721  0.1550  0.1477
 7877W        W25401  14.696  13.682   4.835  0.0692 -0.1496 -0.2400
 7878W        W25402  17.234  12.041   5.272 -0.2239  0.1625  0.1562
 7879W        W25403  13.307  17.490  13.252  0.0717 -0.0393  0.0021
 7880W        W25404   3.017   8.373   0.361  0.0006 -0.2095 -0.0134
 7881W        W25405   7.241   6.335  14.143  0.2218 -0.0761  0.1463
 7882W        W25406  10.665  14.001   3.869  0.0845 -0.1702  0.3414
 7883W        W25407   7.166   6.052   0.122  0.2500 -0.0471  0.0520
 7884W        W25408   0.705   4.642   3.914  0.0174  0.0926 -0.1924
 7885W        W25409   8.008  15.162  13.601 -0.1102  0.0353 -0.2340
 7886W        W25410   7.808  15.801   3.648 -0.0687  0.2003  0.1499
 7887W        W25411   8.414  10.515   5.139  0.2974 -0.1349 -0.1202
 7888W        W25412   4.830   1.995   2.924  0.2018  0.0371  0.4271
 7889W        W25413  14.357  12.816   1.154 -0.0819 -0.0276  0.0069
 7890W        W25414  14.548   4.681  15.709 -0.1626 -0.2753  0.0704
 7891W        W25415   3.936   2.097   0.242 -0.2699 -0.1606  0.1639
 7892W        W25416  12.172  12.936  16.044 -0.1385 -0.4122  0.1262
 7893W        W25417  15.205  13.254  13.158  0.0815 -0.3422  0.1730
 7894W        W25418   2.444   4.421  13.128 -0.1365 -0.2735  0.5105
 7895W        W25419  17.946  17.914  10.690  0.1044 -0.0628  0.1930
 7896W        W25420  16.493   7.386  15.510  0.2996 -0.0385  0.2019
 7897W        W25421   9.054  10.489   1.894 -0.2754 -0.3916 -0.1364
 7898W        W25422   8.214   5.036   2.309 -0.1997  0.0667  0.1837
 7899W        W25423   2.231   0.113   3.746 -0.1759 -0.1047  0.2260
 7900W        W25424  10.537   9.252  12.775  0.1976  0.2816  0.5109
 7901W        W25425   7.253   0.448  13.270 -0.2087  0.1558 -0.1391
 7902W        W25426   8.200   8.738  11.926  0.0856  0.0072 -0.0209
 7903W        W25427   7.124   7.415   2.944  0.0274 -0.0724  0.1485
 7904W        W25428   7.935   6.980  14.072 -0.0419 -0.3000 -0.0896
 7905W        W25429   4.954   8.438  12.083  0.2988 -0.1773 -0.1388
 7906W        W25430  16.868   9.014  11.532 -0.1975 -0.1407 -0.0745
 7907W        W25431  12.888   2.726   5.013  0.3436 -0.1167  0.0001
 7908W        W25432  10.667  13.132   4.507 -0.0001 -0.0059  0.0085
 7909W        W25433  14.705  12.296   0.827  0.0595  0.1374 -0.1169
 7910W        W25434  17.719   0.663   0.821 -0.0882 -0.0835  0.0590
 7911W        W25435  10.189   1.180   1.084 -0.0771 -0.0142 -0.0847
 7912W        W25436  17.105   8.324  13.953  0.0001  0.0969  0.0671
 7913W        W25437  13.465   4.819  12.328  0.1102  0.4717 -0.2609
 7914W        W25438   7.560   2.118   3.417  0.1534  0.1317  0.0584
 7915W        W25439   0.295   7.494   4.669  0.2653  0.0762  0.0768
 7916W        W25440   9.413  11.077   2.767 -0.1232 -0.2445  0.1944
 7917W        W25441   0.152  12.737  15.425  0.0472 -0.0173 -0.1214
 7918W        W25442   7.742   6.178   0.931  0.1508  0.0369  0.0215
 7919W        W25443   5.652   8.424   1.390 -0.0597  0.5451  0.0841
 7920W        W25444   1.243  10.932   4.317  0.2416  0.3722 -0.0194
 7921W        W25445   3.519   7.680   3.373  0.1841  0.0257 -0.0585
 7922W        W25446  15.349   6.796   3.504  0.0059 -0.3431 -0.0046
 7923W        W25447   6.181  16.990  15.805 -0.1650 -0.0857  0.0532
 7924W        W25448  14.456   8.803   4.035  0.0232 -0.0139 -0.2593
 7925W        W25449   2.125   0.357  14.857 -0.1560 -0.2027 -0.3196
 7926W        W25450  10.287  13.721  14.063  0.0446  0.1683 -0.2465
 7927W        W25451  15.346  17.260   1.884  0.0334  0.1565  0.0828
 7928W        W25452  13.500   5.662  15.613  0.0398 -0.1112 -0.1047
 7929W        W25453  15.530  11.107  14.851  0.2631 -0.1301 -0.1073
 7930W        W25454  10.823  12.780  12.214 -0.0498  0.3223 -0.4096
 7931W        W25455   0.704  12.422  12.463 -0.3208  0.0665 -0.4747
 7932W        W25456  12.342   2.275  15.268  0.1981  0.1366  0.0140
 7933W        W25457   8.003   9.055  10.983 -0.0461  0.1225  0.0073
 7934W        W25458   7.429   3.255  10.494 -0.1616  0.1487 -0.1357
 7935W        W25459   3.114   3.855   3.268  0.1151  0.1661 -0.1036
 7936W        W25460   2.295   9.499  11.991 -0.0649 -0.0616 -0.2267
 7937W        W25461  16.387   9.440   3.119  0.2228  0.0658 -0.4244
 7938W        W25462  11.446  16.978   2.566 -0.1512  0.1752 -0.0768
 7939W        W25463  16.175   5.211  10.931 -0.1696  0.1744  0.3352
 7940W        W25464  10.589  10.690  10.659  0.0239 -0.1202 -0.1304
 7941W        W25465   9.813  12.997  14.029  0.0729  0.0308 -0.0351
 7942W        W25466   6.010   9.208   4.069  0.0269 -0.0899 -0.3396
 7943W        W25467   5.052   8.632   3.521  0.0105 -0.2089 -0.0737
 7944W        W25468   2.334   1.040   2.724  0.0384 -0.0408 -0.2087
 7945W        W25469   3.187   7.420   3.029  0.0490  0.0592  0.0363
 7946W        W25470  14.783  17.001   1.890 -0.1532 -0.1063 -0.0657
 7947W        W25471   5.651  12.645  15.873  0.1368 -0.0923  0.0395
 7948W        W25472  15.963   7.676   4.560  0.0790  0.4220 -0.0465
 7949W        W25473  14.958   7.166   3.946 -0.2273 -0.1035 -0.1061
 7950W        W25474   3.472   0.603   3.270 -0.0029  0.0263 -0.1152
 7951W        W25475   9.366  18.070   5.822  0.1258  0.1193 -0.0700
 7952W        W25476  11.904  11.823   2.800  0.4049 -0.1128  0.0505
 7953W        W25477   8.048  14.915  12.178  0.0376  0.1687 -0.3759
 7954W        W25478  11.400  15.397  11.949  0.0609  0.0650  0.3751
 7955W        W25479  14.101  13.284  14.942 -0.0885 -0.0841 -0.2041
 7956W        W25480  14.700   5.403  10.824  0.0112  0.0415  0.2505
 7957W        W25481   5.377   7.511   4.479 -0.3162  0.0935 -0.2106
 7958W        W25482   1.882   0.437   0.797  0.0628  0.2964  0.1185
 7959W        W25483  15.451   1.574  15.078  0.1057  0.0410 -0.0320
 7960W        W25484   6.156   6.638  11.292  0.0719  0.0423 -0.5437
 7961W        W25485  14.059  10.654   4.043 -0.0678  0.0027  0.2185
 7962W        W25486   5.553   1.103   3.665 -0.0533 -0.1563 -0.2977
 7963W        W25487  15.454  16.488   1.359  0.0690 -0.1222  0.1570
 7964W        W25488   4.347  17.519   0.694 -0.0728  0.2036  0.0333
 7965W        W25489  15.492  11.579   4.634 -0.0034 -0.0364  0.0601
 7966W        W25490   0.274  12.840   1.358 -0.0015  0.2196 -0.0463
 7967W        W25491  12.783   9.937   4.367  0.1676 -0.0085 -0.0223
 7968W        W25492  16.435  16.120   4.352  0.1794  0.2329 -0.1421
 7969W        W25493  12.275  12.120  13.940 -0.0203 -0.1814 -0.0624
 7970W        W25494   6.982   8.284   1.582  0.4223 -0.1973 -0.0290
 7971W        W25495   5.003  12.043   0.792 -0.1520 -0.3926 -0.2008
 7972W        W25496  17.586   2.654   0.350  0.1153 -0.0728  0.0088
 7973W        W25497   3.006   3.145  14.505  0.1068  0.3655 -0.3167
 7974W        W25498  15.826   8.408   5.290 -0.1409  0.1867 -0.0861
 7975W        W25499   6.436  11.919  14.519  0.1382  0.0939  0.0786
 7976W        W25500  11.049   4.148   4.421 -0.2608  0.2064 -0.1296
 7977W        W25501  16.869   2.947   1.865 -0.0859  0.3093 -0.0073
 7978W        W25502   6.396  14.392  15.720 -0.3604  0.1644 -0.0881
 7979W        W25503   1.608   0.882  13.440 -0.3383 -0.4484 -0.2629
 7980W        W25504  16.854  11.863  15.434  0.0585  0.1609  0.1727
 7981W        W25505  15.217  14.213   0.596  0.3391  0.0552 -0.0369
 7982W        W25506  16.569   4.238   2.637  0.1454  0.0105 -0.1147
 7983W        W25507   9.444  17.807   0.061 -0.1320  0.0839  0.1186
 7984W        W25508  15.375   1.882  13.942 -0.0502 -0.0270 -0.1473
 7985W        W25509  11.252   3.933   0.467 -0.0046  0.4107  0.1511
 7986W        W25510  13.585  13.548   4.156 -0.0017  0.2704 -0.3699
 7987W        W25511  16.313  13.423  15.160 -0.2947  0.1298 -0.0951
 7988W        W25512  14.453  17.403   0.144  0.2880  0.0740 -0.0587
 7989W        W25513  12.110   2.425  11.748  0.4123  0.2486 -0.1039
 7990W        W25514   4.042   5.139   2.584  0.3614 -0.1236 -0.0808
 7991W        W25515   5.243   7.125  15.175 -0.0126  0.0115 -0.3100
 7992W        W25516   0.881  11.868   2.412  0.0087  0.3111 -0.1767
 7993W        W25517   3.747  17.195  15.514 -0.1490 -0.1280  0.1275
 7994W        W25518   7.049   5.974  14.986 -0.3408  0.0878 -0.1178
 7995W        W25519   1.563   8.374  13.149 -0.0677 -0.2054  0.0100
 7996W        W25520   5.012   7.078   3.480  0.0227  0.2319  0.0395
 7997W        W25521   9.892  13.925   4.452  0.0570 -0.1119  0.2019
 7998W        W25522  14.943   0.261   3.421 -0.4446  0.0970 -0.0759
 7999W        W25523   5.723  12.346  12.002 -0.1962 -0.2564 -0.2579
 8000W        W25524  15.509   1.781   5.061  0.1021 -0.4781  0.0972
 8001W        W25525   4.513   6.676   5.113  0.0809 -0.3376 -0.1782
 8002W        W25526   2.666  14.406  14.649 -0.2053 -0.0580  0.0797
 8003W        W25527   4.671   9.903   2.999 -0.2826  0.0417  0.1687
 8004W        W25528  17.026   9.712  13.095 -0.1533 -0.1589  0.0906
 8005W        W25529  13.564   8.964   4.879 -0.1964 -0.1441 -0.3734
 8006W        W25530   5.570   0.871   1.858 -0.0596 -0.0706 -0.0100
 8007W        W25531  17.023   8.867  14.062  0.0405 -0.0870  0.1051
 8008W        W25532   8.643   5.470  15.556 -0.0917  0.0222  0.0311
 8009W        W25533  13.701   7.998  12.110  0.1845 -0.0000  0.0631
 8010W        W25534   1.582   4.241   0.168 -0.0751  0.1321 -0.2409
 8011W        W25535   2.072  13.703   0.415 -0.3511  0.1740 -0.1316
 8012W        W25536  15.552  16.575  15.778  0.0769  0.3212 -0.1128
 8013W        W25537   2.089  11.949  12.485 -0.2109 -0.0886 -0.0008
 8014W        W25538   2.641  13.963  15.817  0.0296  0.0117  0.1965
 8015W        W25539   0.167   1.666  12.398 -0.1974  0.1150  0.1304
 8016W        W25540  10.177   8.588  14.227 -0.0175 -0.2261  0.0177
 8017W        W25541   8.350  14.741   5.734  0.0569  0.0527 -0.2064
 8018W        W25542  12.499   9.369   4.297 -0.0185  0.0933 -0.1118
 8019W        W25543   4.610   1.513  14.698  0.1643  0.1869 -0.0307
 8020W        W25544   8.934  10.885   3.374  0.2120 -0.2467  0.0757
 8021W        W25545   2.827   4.530  14.506 -0.0217 -0.1083  0.1693
 8022W        W25546   9.400  10.629   0.650 -0.0836 -0.1067  0.0654
 8023W        W25547   3.624  15.679   2.574 -0.2431  0.1155  0.0030
 8024W        W25548   8.669  14.885   3.678 -0.2756 -0.0146 -0.3142
 8025W        W25549   3.725   3.271   2.683  0.1957  0.1877  0.0246
 8026W        W25550   9.243  11.720   3.340 -0.0766  0.1267  0.1936
 8027W        W25551   3.327  14.370   1.316  0.1314 -0.0871 -0.1319
 8028W        W25552   2.048  11.629   4.235 -0.1068 -0.2375 -0.0575
 8029W        W25553   4.102  16.507   3.390  0.3827  0.0339 -0.0051
 8030W        W25554   3.317  10.809   2.166 -0.0372 -0.0779  0.0111
 8031W        W25555   4.411   0.479   2.411  0.0103  0.0580 -0.0540
 8032W        W25556  12.551   2.204  14.401  0.2031 -0.3735 -0.0741
 8033W        W25557   1.613   2.315  15.825 -0.0409  0.3009 -0.1052
 8034W        W25558  17.279  10.087   3.984  0.1303 -0.0305  0.3022
 8035W        W25559   3.723   6.880  11.607 -0.3101 -0.2237  0.1510
 8036W        W25560  17.192   9.882   0.287 -0.2905  0.1314  0.2863
 8037W        W25561  10.009  11.177  11.882 -0.0319  0.1188 -0.0863
 8038W        W25562   2.582   7.031   1.379  0.2473  0.1717  0.3298
 8039W        W25563  15.893  13.333   2.013 -0.1483 -0.1280 -0.1803
 8040W        W25564   6.239   2.068  13.018  0.2305 -0.2584  0.3083
 8041W        W25565   2.736  15.797   4.531 -0.0316  0.1148  0.2784
 8042W        W25566   7.720  17.213  13.804  0.1060 -0.0234 -0.0085
 8043W        W25567  11.521   6.025  12.558  0.1125 -0.2098 -0.2430
 8044W        W25568  13.026   0.850  15.036  0.2056 -0.0593  0.0763
 8045W        W25569   8.885   2.304  12.334  0.0624  0.2278  0.1991
 8046W        W25570  17.229   6.473  15.959  0.1783 -0.0186  0.1819
 8047W        W25571   4.383   4.103  13.748  0.0625 -0.0745  0.0192
 8048W        W25572   0.414  11.530  15.882  0.3803 -0.0547  0.1467
 8049W        W25573   6.621  16.539  10.680  0.0788  0.2121 -0.2645
 8050W        W25574   5.807   9.014  12.943 -0.0374 -0.0650 -0.0607
 8051W        W25575   3.070  10.376   0.311 -0.0176 -0.1370 -0.0290
 8052W        W25576   6.492   0.511   0.475 -0.1780 -0.0142 -0.0330
 8053W        W25577  12.562  10.246   3.726  0.1675  0.1424 -0.0686
 8054W        W25578   9.392   8.053  11.658  0.0575  0.3186 -0.3364
 8055W        W25579  12.676  17.130  11.756  0.1301  0.2583 -0.2160
 8056W        W25580  12.570  12.444   1.879 -0.0672 -0.4968 -0.3868
 8057W        W25581   9.567  17.050   3.785 -0.0111  0.3528 -0.2698
 8058W        W25582  10.573  11.516  12.603  0.1454  0.2155  0.1948
 8059W        W25583   0.538   3.783  14.059  0.0921  0.1008 -0.1446
 8060W        W25584   6.819   3.009  11.536  0.1903  0.0718  0.1552
 8061W        W25585   0.813   4.927  14.737  0.0569  0.2955 -0.4783
 8062W        W25586   9.410  13.758   4.443 -0.0994 -0.0340  0.1614
 8063W        W25587   1.824   8.637   5.160 -0.1602  0.1217 -0.1307
 8064W        W25588  15.319   6.433  15.262 -0.3007 -0.0812  0.0016
 8065W        W25589   4.079  13.173   0.936 -0.2032 -0.2634 -0.2641
 8066W        W25590  14.273   8.244  15.906 -0.1380  0.0022 -0.2164
 8067W        W25591   1.621   7.784  15.448  0.2271  0.0118  0.1196
 8068W        W25592   9.376  13.100   2.685  0.1262 -0.5040 -0.0572
 8069W        W25593   0.498   8.662  12.355  0.0357 -0.2458 -0.2794
 8070W        W25594  10.276   3.596  14.482 -0.2627  0.1849 -0.0573
 8071W        W25595   7.750   5.673  11.735 -0.0791  0.1735 -0.1900
 8072W        W25596   5.086   6.504   3.121  0.2412  0.1218  0.4199
 8073W        W25597  12.523  17.348  12.643  0.1379  0.2579 -0.1173
 8074W        W25598  16.794  17.723   5.943 -0.0290  0.1192 -0.0948
 8075W        W25599   2.844  15.576  11.600 -0.0176 -0.1462  0.1785
 8076W        W25600   1.820   3.766  13.660  0.0054 -0.1130 -0.0012
 8077W        W25601  14.670   5.066   1.172 -0.3013 -0.3215 -0.3510
 8078W        W25602   9.358   6.850   1.708 -0.1114  0.3857 -0.0369
 8079W        W25603   8.404   8.511  15.984  0.0256  0.0795  0.2309
 8080W        W25604  15.712   7.123  15.732  0.0860 -0.0776 -0.1707
 8081W        W25605   8.490  12.610  11.517 -0.2914 -0.2622 -0.4167
 8082W        W25606   6.413  15.424  15.717  0.1413 -0.1459  0.0279
 8083W        W25607  11.890  14.358   2.427  0.0783 -0.1554 -0.0474
 8084W        W25608  16.982   5.620  12.542 -0.1899  0.1382 -0.2509
 8085W        W25609  15.175   8.091  13.083 -0.0660 -0.1515  0.0017
 8086W        W25610   3.931  16.334   0.532  0.0514  0.0242  0.3341
 8087W        W25611   8.989  14.011   4.232  0.1504 -0.0978 -0.1973
 8088W        W25612  10.456  14.577   4.442  0.1058 -0.1160  0.1857
 8089W        W25613  15.559   5.025   0.071  0.1482 -0.0301 -0.2130
 8090W        W25614   6.735  13.261  14.585 -0.1507 -0.2998  0.0398
 8091W        W25615  15.996   4.085   0.245 -0.2223 -0.2848 -0.0046
 8092W        W25616  11.133   3.605  13.113  0.0733  0.0748  0.1182
 8093W        W25617  17.583   1.391  12.502  0.1774  0.1229 -0.2153
 8094W        W25618   9.597   5.080   4.761 -0.0934 -0.0730  0.2079
 8095W        W25619  16.523  11.688  12.021  0.2020 -0.2065  0.3037
 8096W        W25620  12.743  15.764  11.806  0.0096 -0.0969  0.0711
 8097W        W25621   9.172   4.612   4.210  0.0775  0.1818 -0.1053
 8098W        W25622   7.015  14.561   3.043 -0.0938 -0.1333 -0.1517
 8099W        W25623   2.353   9.315   4.515 -0.3400 -0.0217  0.3158
 8100W        W25624   9.408  13.137   0.727  0.2492 -0.2739 -0.0127
 8101W        W25625  13.803   1.723   3.977 -0.1876  0.0635 -0.2068
 8102W        W25626   7.197   4.173  12.510 -0.1115 -0.0437 -0.0401
 8103W        W25627  14.808   3.815   0.989  0.2668  0.1165 -0.2743
 8104W        W25628   0.438  15.024   5.688  0.1666 -0.0663  0.1368
 8105W        W25629  10.862   8.336  11.288  0.1374  0.1800 -0.2000
 8106W        W25630   9.555   9.641   5.034 -0.1638 -0.0591 -0.2665
 8107W        W25631   5.239   3.790   0.723  0.2615 -0.2323  0.1972
 8108W        W25632   1.822   1.460  10.509  0.0188 -0.0886  0.0387
 8109W        W25633   4.893   2.444  13.344  0.0493 -0.0569  0.0310
 8110W        W25634  16.700   1.897  15.398  0.2641  0.0934 -0.0422
 8111W        W25635  13.782   5.073   3.314 -0.2849 -0.0779 -0.1321
 8112W        W25636  15.591  17.973  11.529 -0.0080  0.1199  0.2866
 8113W        W25637  16.618   8.946  15.350  0.1247 -0.1360  0.0670
 8114W        W25638  16.954   0.377  12.456 -0.1571 -0.0917  0.1457
 8115W        W25639   2.316   3.942   0.558 -0.0120 -0.1447 -0.0800
 8116W        W25640   1.104  16.813   2.223  0.0690 -0.1497  0.2330
 8117W        W25641  16.469  12.946  15.146  0.1404  0.0652  0.2600
 8118W        W25642   4.538  10.343  15.792 -0.1350 -0.0242  0.1778
 8119W        W25643  17.548  15.469   3.227  0.3328 -0.1155  0.0954
 8120W        W25644   5.958  14.641  15.567 -0.1179  0.3340 -0.4222
 8121W        W25645  17.099  10.016  11.907  0.2459  0.1142 -0.1493
 8122W        W25646  15.794  16.365  11.595  0.1099  0.2259  0.0014
 8123W        W25647   3.719  16.701   5.381 -0.2118  0.0148 -0.0574
 8124W        W25648   6.249   4.448  11.791 -0.0162  0.0967  0.0387
 8125W        W25649  14.808  12.490  13.985  0.0881  0.0093 -0.0877
 8126W        W25650   3.220   3.544   4.710  0.0451  0.0089 -0.2097
 8127W        W25651  16.340  15.848  13.070  0.1028  0.0665 -0.1304
 8128W        W25652  14.255   8.287  14.694  0.3463  0.0070  0.1382
 8129W        W25653   1.041  11.134   3.548  0.1647 -0.1367 -0.2136
 8130W        W25654  17.996  15.566  11.724 -0.0929  0.0330  0.1746
 8131W        W25655   0.245  14.827  13.660 -0.1990 -0.2276 -0.2227
 8132W        W25656   2.768   8.283   3.221 -0.1606  0.2233  0.2499
 8133W        W25657   4.400   4.217  11.474  0.0930 -0.1677 -0.1576
 8134W        W25658   8.922   8.387   5.492 -0.3094  0.2522 -0.4421
 8135W        W25659   2.295   3.194  14.498 -0.2548 -0.1357  0.1116
 8136W        W25660   1.895  14.498  14.936  0.2247  0.2337 -0.2129
 8137W        W25661   3.455   7.783   4.744  0.0711  0.3025  0.1621
 8138W        W25662  15.342   6.175   4.100  0.0136  0.2038 -0.2496
 8139W        W25663   1.199  14.331  15.582 -0.0023  0.1456 -0.2487
 8140W        W25664  16.861  10.421  11.626 -0.0080  0.1448  0.1129
 8141W        W25665   0.137  14.294  11.720 -0.2551 -0.2037 -0.0111
 8142W        W25666   1.393  13.641   4.713 -0.0181 -0.2467 -0.0911
 8143W        W25667  11.714   3.993  13.475 -0.1591  0.0604  0.1136
 8144W        W25668  16.539  17.091   2.347  0.2537  0.0898 -0.2164
 8145W        W25669   7.619  10.826   2.971 -0.1245 -0.0187 -0.3222
 8146W        W25670   4.831   3.408   3.665 -0.0047  0.0883 -0.0069
 8147W        W25671  12.848   4.658  12.061 -0.2414 -0.1087  0.1051
 8148W        W25672   6.001  15.203  15.471 -0.0032  0.3641  0.2788
 8149W        W25673  10.539   0.739  15.099 -0.1937 -0.0407  0.0495
 8150W        W25674   4.599  13.854  15.635 -0.2094 -0.4408 -0.0631
 8151W        W25675   2.011  11.495   5.266  0.0830 -0.1306 -0.0537
 8152W        W25676   6.203   4.403  10.611 -0.4726 -0.1628  0.0613
 8153W        W25677  10.197  14.350  11.862 -0.1721 -0.1828 -0.0386
 8154W        W25678  14.797   7.297   2.339 -0.2442 -0.0690  0.0083
 8155W        W25679   2.669  17.524   3.689  0.0617  0.3698  0.1622
 8156W        W25680   3.899   6.558  15.172 -0.1103  0.0501  0.2080
 8157W        W25681  16.332   0.862  12.326 -0.0072  0.2331  0.1128
 8158W        W25682   0.551  12.709   4.287 -0.1820 -0.2216  0.1699
 8159W        W25683   3.687   2.934  13.284  0.1338 -0.0797  0.2128
 8160W        W25684   9.343   2.251  13.644 -0.0851 -0.2605  0.1005
 8161W        W25685   1.334   0.034  13.706  0.1153  0.0375  0.0618
 8162W        W25686   2.841   1.234  15.621  0.1275 -0.0478 -0.2242
 8163W        W25687  11.781  12.101  12.646  0.0722 -0.2019 -0.1251
 8164W        W25688  13.692   2.779   0.809 -0.2657  0.0420 -0.2219
 8165W        W25689  10.677   7.877   2.670  0.0283  0.3411  0.1983
 8166W        W25690  17.812   7.284   5.191  0.0105 -0.1076  0.0741
 8167W        W25691   9.351  17.846   2.135 -0.0949 -0.2519  0.2415
 8168W        W25692  13.872   5.038  15.498 -0.0141 -0.1019  0.0954
 8169W        W25693  12.214   6.052   0.062  0.2198  0.1209  0.0004
 8170W        W25694   6.972  14.808  13.125 -0.1663 -0.1821  0.2718
 8171W        W25695   7.306   5.920  11.625  0.0628  0.2064 -0.1193
 8172W        W25696  17.699   9.217  12.029 -0.1127 -0.0608 -0.0036
 8173W        W25697   8.213   0.367  14.500  0.0497  0.0963  0.4902
 8174W        W25698   8.988   3.209  11.876 -0.1166 -0.1109 -0.1216
 8175W        W25699  16.269   3.716   2.114  0.0732  0.0638  0.0694
 8176W        W25700   5.862  13.338   3.508 -0.1882 -0.1161 -0.0411
 8177W        W25701  14.432  15.663   1.966  0.1548 -0.0891  0.2107
 8178W        W25702   4.963   9.295  14.902  0.1044 -0.3240 -0.0612
 8179W        W25703  11.473  13.625   3.467 -0.2772 -0.3669 -0.0087
 8180W        W25704   8.558   3.891  12.733  0.0249  0.2562 -0.2020
 8181W        W25705  10.351  18.074  11.572 -0.1047  0.2242 -0.2449
 8182W        W25706  11.169   6.782   4.527 -0.1069 -0.1777  0.3074
 8183W        W25707  17.661   0.680   1.980 -0.0367 -0.0152  0.0212
 8184W        W25708   7.637   0.687  13.642 -0.1393 -0.1096  0.2831
 8185W        W25709  15.105  11.625   3.189 -0.1499 -0.3297 -0.0514
 8186W        W25710  14.100   6.533  14.634 -0.0356  0.1795  0.3021
 8187W        W25711   9.014   3.886  14.246 -0.0319 -0.0659 -0.0704
 8188W        W25712   4.013   3.829  14.151 -0.0480 -0.1621  0.1445
 8189W        W25713   5.635   3.537   0.400 -0.1536  0.2628  0.1788
 8190W        W25714   2.701   5.100  12.249 -0.1610 -0.0553 -0.1998
 8191W        W25715   9.937  15.621  11.094  0.0117 -0.1532 -0.0562
 8192W        W25716  17.763  13.468  15.153 -0.1156  0.4481 -0.0647
 8193W        W25717   3.745   0.715   2.334 -0.1032 -0.1062  0.0365
 8194W        W25718  10.856  10.712   0.170 -0.0162  0.1159  0.4563
 8195W        W25719  12.244   7.311  13.092 -0.0573 -0.0703  0.1760
 8196W        W25720   7.748   4.987   0.782  0.1287 -0.0073 -0.0116
 8197W        W25721   3.729   4.289   1.215 -0.2823 -0.0890 -0.0478
 8198W        W25722  17.611   6.031   2.571  0.5048  0.2792  0.0319
 8199W        W25723  15.710   2.302  13.179  0.0716 -0.0931  0.2321
 8200W        W25724   0.318   6.677  12.510  0.0927 -0.1701  0.1402
 8201W        W25725   1.147  15.972   2.789 -0.0679  0.0705  0.3667
 8202W        W25726  12.753  10.047   4.908 -0.0270 -0.5965  0.2480
 8203W        W25727   5.253   1.415   0.005 -0.0901  0.0581  0.2021
 8204W        W25728  10.831   7.318   0.451 -0.2826 -0.1082 -0.1097
 8205W        W25729  17.499  10.678   0.851 -0.0734  0.4131  0.4251
 8206W        W25730   7.249  14.566  15.146  0.1251  0.1617 -0.1879
 8207W        W25731   7.477   3.607  15.811 -0.0007 -0.0517 -0.2804
 8208W        W25732  11.579  16.101  14.002  0.1433 -0.0906  0.3648
 8209W        W25733  14.838   0.835   2.030  0.0424 -0.1168 -0.0574
 8210W        W25734   9.757  15.639   1.261 -0.0855 -0.0211 -0.0211
 8211W        W25735  13.115   6.894  13.987  0.0118  0.1856 -0.0478
 8212W        W25736   6.070   0.555  11.893 -0.1125  0.2525 -0.0948
 8213W        W25737  13.708  16.586   5.360 -0.1818 -0.0711 -0.2391
 8214W        W25738   3.662  11.441  15.664 -0.3194 -0.1066 -0.0303
 8215W        W25739  14.342  16.020  12.266 -0.0355 -0.1847  0.1980
 8216W        W25740  17.545  13.212   3.344 -0.3863  0.1205 -0.1847
 8217W        W25741  13.447  14.182   3.013  0.1290  0.2974 -0.0745
 8218W        W25742  15.342   2.337  13.635 -0.0179 -0.0499  0.0725
 8219W        W25743   5.882   8.428   2.387 -0.0034 -0.1591 -0.2044
 8220W        W25744  12.216  11.841   3.982 -0.0954  0.0187  0.0652
 8221W        W25745  12.818  10.605   3.180 -0.1591 -0.0712  0.1284
 8222W        W25746  11.420  11.288   4.101  0.0595  0.1525 -0.0528
 8223W        W25747   7.403   3.685  14.368 -0.3531  0.2277  0.1851
 8224W        W25748  10.295   4.262   0.637  0.0247 -0.1322 -0.1102
 8225W        W25749   6.523   7.013  13.802 -0.2542 -0.0013  0.1784
 8226W        W25750   6.445   4.659   0.062  0.2134  0.4159 -0.4611
 8227W        W25751   1.919   5.752   1.063  0.2221 -0.0652  0.3043
 8228W        W25752  11.812   4.833  12.183 -0.0261 -0.0101 -0.1544
 8229W        W25753   6.663   9.751  11.164 -0.1980  0.2649 -0.0183
 8230W        W25754   1.493   4.573   4.088 -0.1399  0.0489 -0.0480
 8231W        W25755   1.403  13.376  12.422 -0.0455  0.0774  0.1614
 8232W        W25756   7.722   0.226  13.321  0.2710 -0.2327 -0.2581
 8233W        W25757  12.027   1.626  14.368  0.3488  0.0941  0.0230
 8234W        W25758   5.791   4.343   0.220  0.3794 -0.1755  0.0967
 8235W        W25759  16.113   3.869   1.209 -0.1874 -0.2770  0.1850
 8236W        W25760  17.594  13.896  15.375  0.2307  0.0942 -0.1212
 8237W        W25761  14.447   4.770  14.365 -0.1266 -0.1141  0.1491
 8238W        W25762   4.999   4.236   0.850  0.1249 -0.2897 -0.1485
 8239W        W25763  16.056   7.417   3.763  0.0712  0.1486 -0.1271
 8240W        W25764   5.350   2.282   3.658  0.1724  0.2072 -0.2255
 8241W        W25765  15.903   0.836   5.722  0.2189  0.1998  0.2142
 8242W        W25766   3.119  15.540  14.161  0.0279  0.1434  0.0718
 8243W        W25767  10.350   9.488   2.617 -0.1853  0.0265 -0.2233
 8244W        W25768   3.556  15.296  13.803 -0.1312 -0.1000 -0.0543
 8245W        W25769  10.413  12.748  11.900 -0.1459 -0.0113 -0.1558
 8246W        W25770  11.207   3.476  14.687 -0.3206  0.0188 -0.0283
 8247W        W25771   0.278   4.780  11.670 -0.0181  0.4328 -0.1150
 8248W        W25772   2.249  13.105   0.259 -0.1141  0.0996 -0.2141
 8249W        W25773   9.029  14.481   4.435 -0.3342  0.2012  0.0102
 8250W        W25774  15.491  16.120   3.295  0.0504  0.1240  0.3383
 8251W        W25775  17.835  15.219  14.777  0.0993 -0.1712 -0.1650
 8252W        W25776   0.428  17.935   1.737 -0.2927 -0.0756  0.2020
 8253W        W25777   1.783  10.749   1.547 -0.1890  0.1757 -0.0821
 8254W        W25778  13.001  16.516   1.487 -0.1450  0.2286  0.3105
 8255W        W25779  12.091   6.824  14.517 -0.0973  0.2497  0.1878
 8256W        W25780  13.100  15.047   3.219 -0.1197  0.1266 -0.4044
 8257W        W25781   2.507  16.170   0.501  0.0226  0.3017  0.1564
 8258W        W25782  11.640  17.224   0.416 -0.2722  0.1305 -0.0561
 8259W        W25783  17.589  16.235  13.252  0.3960 -0.2049  0.0906
 8260W        W25784  13.505  13.266  13.595  0.2755  0.2478  0.0790
 8261W        W25785  10.720   6.703   1.901 -0.2317 -0.1385 -0.0808
 8262W        W25786  11.600  15.212  11.396  0.2612  0.2928 -0.1422
 8263W        W25787  10.701   1.643   0.405 -0.0332 -0.3948 -0.0911
 8264W        W25788   7.804   8.630   3.970 -0.0499  0.3562  0.2032
 8265W        W25789  13.537   9.552  11.802  0.0911  0.1261  0.1810
 8266W        W25790  11.364  14.192   5.427 -0.2484  0.0263 -0.2558
 8267W        W25791   7.056   9.201   4.172  0.0163 -0.0818 -0.0006
 8268W        W25792   9.257   1.172  11.482 -0.1368  0.0251  0.1596
 8269W        W25793  16.192   3.176   1.298 -0.0349 -0.1555 -0.2317
 8270W        W25794   8.320   0.069   4.410  0.1319 -0.1649  0.0430
 8271W        W25795   1.081   1.734   1.088  0.0876  0.0103 -0.1145
 8272W        W25796   2.679   6.172  13.788 -0.3663  0.0184  0.2879
 8273W        W25797   6.607  10.358   0.598 -0.1256 -0.2926  0.1844
 8274W        W25798  15.711   9.119   4.098  0.1238 -0.1704  0.0936
 8275W        W25799   0.837   2.112   4.106  0.1868 -0.2701 -0.1065
 8276W        W25800   7.533  16.900  12.226 -0.4489 -0.1113 -0.1634
 8277W        W25801   5.028   3.266  12.936 -0.0376 -0.0853  0.2633
 8278W        W25802  16.909   5.306  15.098  0.1717  0.0298 -0.0492
 8279W        W25803   9.035   4.022   1.468 -0.0172 -0.3210 -0.3072
 8280W        W25804  14.001  11.111   4.513 -0.2641 -0.1038  0.1276
 8281W        W25805   8.440   3.445  15.573  0.1161  0.0182 -0.0224
 8282W        W25806  17.414   7.613   4.624  0.0748 -0.1874  0.0814
 8283W        W25807   2.840  10.591  12.641 -0.1564  0.1081 -0.0568
 8284W        W25808   7.705  10.714  11.308 -0.0591  0.2312 -0.1376
 8285W        W25809   3.889   8.167  11.238  0.1647 -0.1425  0.1486
 8286W        W25810   7.759  14.549   4.638  0.0807  0.0497 -0.1021
 8287W        W25811  14.243   5.632  12.500 -0.0012  0.2840  0.2570
 8288W        W25812   0.905   7.046   4.914  0.0337 -0.0599 -0.1198
 8289W        W25813  15.949   0.100   1.193 -0.0921 -0.0536  0.0547
 8290W        W25814  13.315   0.726   3.357  0.1378 -0.2587  0.1581
 8291W        W25815  14.970   3.767   0.482 -0.2551  0.0702  0.0465
 8292W        W25816  11.880   7.398   1.256  0.3067 -0.0908  0.4709
 8293W        W25817  16.095  17.142   4.394 -0.0527 -0.1403 -0.1935
 8294W        W25818   5.900   7.344   2.234 -0.1409 -0.0471  0.1914
 8295W        W25819  10.431  17.548   3.188  0.0899  0.0472  0.2832
 8296W        W25820   5.304  16.549  12.959  0.0571  0.2207  0.1454
 8297W        W25821  10.905  14.983   0.104 -0.2723  0.0810 -0.1983
 8298W        W25822   6.920   9.481  10.397  0.4572  0.3184 -0.0841
 8299W        W25823  15.765   5.098  13.858 -0.1811 -0.1197 -0.2822
 8300W        W25824   0.486   8.515  13.977  0.0975  0.2396 -0.0112
 8301W        W25825   9.953   7.706  15.973  0.4335 -0.0963  0.0402
 8302W        W25826   3.882   1.180   3.675 -0.1528  0.0122 -0.0261
 8303W        W25827   8.025  12.343  12.201 -0.2409  0.1721 -0.4022
 8304W        W25828  11.719  15.533  13.930 -0.0591  0.2233  0.1534
 8305W        W25829   6.169   6.652   3.006  0.2436  0.1584  0.0389
 8306W        W25830   5.944   5.418  14.407 -0.1068 -0.3664 -0.1044
 8307W        W25831   9.389   6.305   3.677  0.2299  0.1461 -0.0324
 8308W        W25832   2.890  10.273  14.973  0.1019 -0.1225 -0.0931
 8309W        W25833   2.172  10.846  12.965  0.2846 -0.1939 -0.0332
 8310W        W25834  15.950  15.880   0.391 -0.0732  0.4178 -0.2625
 8311W        W25835  11.121   1.138  15.761  0.2125  0.0192 -0.0363
 8312W        W25836  14.643   8.715   0.657 -0.0934  0.3806 -0.2728
 8313W        W25837   9.253   1.950  13.297 -0.3140 -0.0660 -0.0279
 8314W        W25838  11.292  14.631  13.573 -0.1691 -0.1505 -0.0005
 8315W        W25839   6.366  10.126   5.166  0.0594  0.0215 -0.1128
 8316W        W25840   1.927   8.875   3.417 -0.0373  0.3120  0.0138
 8317W        W25841   6.061   8.333   3.173  0.0627  0.0529 -0.0103
 8318W        W25842  16.285   9.535   0.703 -0.0522 -0.0377  0.1811
 8319W        W25843   3.050   6.920   3.278 -0.0018  0.2195  0.2825
 8320W        W25844   0.930   0.816  15.936 -0.0258 -0.3591 -0.1764
 8321W        W25845   5.178   9.287   2.912  0.1568  0.0089 -0.0323
 8322W        W25846  14.151   7.249   2.799  0.2872  0.1481 -0.0729
 8323W        W25847  11.956   4.705   1.059  0.0603  0.5660  0.0568
 8324W        W25848  17.000   6.280  12.120  0.0900  0.1836 -0.0058
 8325W        W25849   1.734   7.019   0.612  0.0759 -0.1101  0.1926
 8326W        W25850   6.218  14.886   0.752 -0.1009  0.1705  0.3005
 8327W        W25851  11.046   5.070  11.547  0.1215 -0.2145  0.0449
 8328W        W25852   5.803   6.247  12.191 -0.1267  0.1652  0.1178
 8329W        W25853  13.551  14.464  14.922  0.2727 -0.0841  0.0104
 8330W        W25854   3.824  11.097  11.298 -0.0689 -0.0347  0.1022
 8331W        W25855   0.249   8.861  12.769  0.0533 -0.2393  0.0329
 8332W        W25856  15.984   8.975   4.522 -0.2654  0.0396 -0.1456
 8333W        W25857   4.797   2.952   0.548  0.1533  0.2040  0.4807
 8334W        W25858  16.609   9.034   5.221  0.3339 -0.0483  0.0687
 8335W        W25859  13.866  10.736   4.848  0.0719 -0.2909  0.0842
 8336W        W25860   5.548   3.529   2.864 -0.2187  0.3135  0.3110
 8337W        W25861   9.190   4.086  15.228 -0.2775 -0.2786  0.0201
 8338W        W25862   4.160  16.609  12.940  0.1822  0.0479  0.0192
 8339W        W25863  14.322  14.610   2.650 -0.1163  0.2638 -0.1527
 8340W        W25864   1.722  17.676   2.114 -0.0164 -0.0458  0.1737
 8341W        W25865   8.587   6.288   2.464  0.1645  0.1592  0.5238
 8342W        W25866   0.961   4.224   1.033 -0.1975 -0.1346  0.2752
 8343W        W25867   4.627   4.578  11.687  0.0253  0.0479 -0.3683
 8344W        W25868  15.631   0.733   2.505 -0.0980  0.1597 -0.2835
 8345W        W25869   1.124  10.011  13.228  0.0325  0.2719  0.0192
 8346W        W25870  17.146  16.101   0.128  0.1936  0.0845 -0.3657
 8347W        W25871  14.975   7.045   0.883 -0.1414 -0.2554 -0.4059
 8348W        W25872   8.886  16.400   2.572 -0.0386  0.1152  0.1252
 8349W        W25873   8.994  14.215  11.410 -0.0866 -0.1272  0.0340
 8350W        W25874   9.943  14.084  14.055 -0.1193 -0.0982  0.2309
 8351W        W25875  15.568   1.325  14.206 -0.1286 -0.3610 -0.2179
 8352W        W25876  15.949   4.828  10.602 -0.0045 -0.0985 -0.0913
 8353W        W25877   8.645   6.619   0.558 -0.1787  0.1905  0.0722
 8354W        W25878   8.692   2.934  11.642 -0.0603 -0.0268  0.0006
 8355W        W25879  11.395  10.915  13.660 -0.2279 -0.0236  0.0703
 8356W        W25880   2.223   0.639  11.201 -0.1790  0.1302  0.1065
 8357W        W25881   2.046   2.000  12.977 -0.2836 -0.0659 -0.0338
 8358W        W25882  11.683  15.627   2.442  0.1725  0.2306 -0.3756
 8359W        W25883  10.930  11.173   1.514  0.0192  0.0184  0.0360
 8360W        W25884  14.969  15.889   3.019  0.2139  0.2477  0.0626
 8361W        W25885  12.295   3.385  11.423 -0.1410 -0.2424 -0.2100
 8362W        W25886  14.394  10.736  13.909 -0.0408  0.0405  0.0193
 8363W        W25887  12.078  13.248   4.968 -0.3468 -0.1625  0.0463
 8364W        W25888  16.926   8.500  14.439  0.1337  0.0412  0.1579
 8365W        W25889  11.046   1.872   0.975 -0.2415  0.0032  0.0439
 8366W        W25890   3.215   1.329   0.497 -0.4442  0.1241  0.0328
 8367W        W25891   7.187   2.352   4.851  0.2319  0.1030  0.2836
 8368W        W25892  15.708   2.264  15.745  0.1874 -0.1297  0.1921
 8369W        W25893  14.275   9.435  14.459 -0.1448 -0.2066 -0.1308
 8370W        W25894  12.963  18.091   1.668 -0.1491  0.0633  0.0686
 8371W        W25895   8.692   9.403   4.413 -0.0067  0.0014 -0.0690
 8372W        W25896  11.632   3.278  14.793 -0.3255  0.2623 -0.2571
 8373W        W25897   7.006  14.031   3.884 -0.0499 -0.1440  0.3311
 8374W        W25898  17.661   4.199  10.393 -0.0006  0.3677  0.0140
 8375W        W25899  17.988  17.040   4.647  0.0130 -0.1716  0.1877
 8376W        W25900  17.128   4.493  12.161  0.2029  0.1294  0.0829
 8377W        W25901   2.024   7.062  15.678 -0.0846 -0.1916  0.1956
 8378W        W25902  10.095  15.149  11.008 -0.0993 -0.1678  0.0473
 8379W        W25903  14.972  15.698   3.943 -0.0695  0.1346  0.0393
 8380W        W25904   8.183  10.484  12.566  0.1391  0.0665 -0.0161
 8381W        W25905   1.735   0.616   0.047 -0.0114 -0.1473  0.0227
 8382W        W25906  15.679  17.741   0.417  0.2987  0.0032 -0.2395
 8383W        W25907  13.330   2.845  12.088 -0.0570  0.0973 -0.0805
 8384W        W25908  14.127   1.789  14.056  0.0736 -0.0309  0.2924
 8385W        W25909  17.954  12.541  12.411 -0.1654  0.3156 -0.0407
 8386W        W25910   7.648   4.821   0.296 -0.0660 -0.2775  0.1051
 8387W        W25911  10.223  12.097  12.784  0.1348  0.0547 -0.1251
 8388W        W25912   3.561  15.511   2.120  0.1858  0.0597 -0.0888
 8389W        W25913   3.495   6.390  12.946  0.0205  0.0271  0.0197
 8390W        W25914   8.401  15.777   1.409 -0.1659 -0.1265 -0.5769
 8391W        W25915   2.918   8.756  12.753 -0.0922  0.0284  0.2726
 8392W        W25916  12.741   3.648  15.494  0.1344 -0.2324  0.1281
 8393W        W25917   4.236  10.236  15.339 -0.0005 -0.0145  0.1738
 8394W        W25918  12.090  15.753   1.532 -0.2905 -0.1327 -0.2285
 8395W        W25919   6.919  14.466  12.438 -0.0984  0.0309  0.0756
 8396W        W25920  12.463   4.169  11.125 -0.1483  0.1379  0.2182
 8397W        W25921  14.695   8.887  13.745 -0.2115 -0.1777 -0.2070
 8398W        W25922  16.818   5.164  15.600  0.0219  0.0423 -0.1010
 8399W        W25923  12.658  18.083   3.590 -0.2658 -0.0335  0.3083
 8400W        W25924  12.373  17.669   3.707  0.0893  0.0913  0.0166
 8401W        W25925   3.983  11.250  14.266  0.3420  0.1979  0.0220
 8402W        W25926  12.096   8.495  11.334 -0.3934 -0.1884 -0.0381
 8403W        W25927   1.599  11.931   1.631  0.4238  0.0832  0.0021
 8404W        W25928  16.592   5.339  11.834 -0.0702 -0.1483 -0.1569
 8405W        W25929   7.130  15.882   0.983 -0.2463 -0.0521  0.0459
 8406W        W25930   6.818   0.037   0.632  0.1602  0.2332  0.3677
 8407W        W25931   1.188   1.805   4.272  0.0940 -0.1664  0.4640
 8408W        W25932  12.836  15.965   4.508 -0.1944  0.0351 -0.0317
 8409W        W25933   7.224  12.899  15.660 -0.2325  0.0687  0.0824
 8410W        W25934   4.557   6.613  13.993  0.0484 -0.2266 -0.2753
 8411W        W25935  13.295   8.655   4.648  0.1904 -0.3658 -0.4184
 8412W        W25936   1.150   6.949  15.442  0.0219 -0.0666  0.1622
 8413W        W25937  16.900   9.025   2.505  0.4112 -0.0672  0.0073
 8414W        W25938  16.760   1.888  11.733  0.2181  0.0878 -0.2448
 8415W        W25939  11.364  16.435  14.495 -0.3512  0.3140  0.3777
 8416W        W25940   0.933   1.701   3.241 -0.2493 -0.1428 -0.5086
 8417W        W25941  13.857   3.840  13.096  0.3009 -0.0903  0.0120
 8418W        W25942  13.946  12.117   4.952  0.0022 -0.0655  0.2985
 8419W        W25943   4.919  16.384  14.686  0.0675  0.0100  0.1876
 8420W        W25944   5.995  11.169  12.515 -0.1179 -0.0303  0.0557
 8421W        W25945   6.242  16.259  12.920 -0.0772 -0.0587 -0.3151
 8422W        W25946   1.335  15.930   1.841  0.0905 -0.0190  0.3275
 8423W        W25947  12.505   5.120  14.978  0.0425  0.0478 -0.1461
 8424W        W25948  12.043  11.527   1.203  0.0522  0.0638  0.2921
 8425W        W25949  17.874   0.097  13.188 -0.0359  0.1686 -0.2035
 8426W        W25950   4.875   0.984  11.593  0.1211  0.0403  0.4086
 8427W        W25951   3.004  11.451   3.298  0.0896  0.2611 -0.0168
 8428W        W25952  16.889  11.418  12.256 -0.0956  0.0243 -0.0745
 8429W        W25953   2.516   8.993   2.762 -0.0730 -0.0402  0.1609
 8430W        W25954   9.403  10.030  15.448  0.0417 -0.1274  0.1426
 8431W        W25955  10.728  13.041   1.155  0.2469  0.4344 -0.1307
 8432W        W25956   7.879   4.334   2.131  0.0268 -0.0219  0.1060
 8433W        W25957  13.592   1.738   1.541 -0.0216  0.1779 -0.3116
 8434W        W25958  17.701   5.460   0.898 -0.0270 -0.1222  0.0991
 8435W        W25959   5.865   9.799  15.827  0.1613  0.1147 -0.1427
 8436W        W25960  14.588   6.022   4.398  0.1637  0.0306 -0.1506
 8437W        W25961   2.370  16.016  12.138  0.1989  0.2394  0.1771
 8438W        W25962   2.474  12.412   1.391  0.0827  0.0751 -0.1301
 8439W        W25963   9.728   2.690   2.471 -0.0153  0.1171 -0.1613
 8440W        W25964   1.000  17.218   0.233  0.1519 -0.1882 -0.2076
 8441W        W25965   0.596   4.319  15.945 -0.0471 -0.0785 -0.0529
 8442W        W25966  10.483   0.846   2.495 -0.0813  0.1089 -0.1515
 8443W        W25967   3.938   1.026  11.728 -0.0907  0.0743  0.1403
 8444W        W25968   2.846  15.866  13.806  0.1733  0.1782  0.0215
 8445W        W25969  10.303   4.182  13.593 -0.2410 -0.0453 -0.0160
 8446W        W25970  17.912   7.991  12.314  0.1208  0.1976 -0.0276
 8447W        W25971  13.615   2.801   2.573 -0.1282  0.0319 -0.0501
 8448W        W25972  12.624   2.830   0.160 -0.3925 -0.2130  0.1518
 8449W        W25973  14.956  12.157  15.476 -0.0622  0.0403 -0.0458
 8450W        W25974  15.363  16.998   3.246  0.0884 -0.1509  0.0527
 8451W        W25975   0.680   7.952   0.312 -0.0249 -0.2242 -0.3137
 8452W        W25976  17.456  16.401   3.530  0.0524 -0.2279  0.1272
 8453W        W25977  11.602   8.271   2.094 -0.0526 -0.2959 -0.3215
 8454W        W25978   9.096  17.648  15.030 -0.0011 -0.2185  0.1181
 8455W        W25979   8.959  11.712   4.333 -0.0427  0.2073 -0.0610
 8456W        W25980   1.989  14.406   3.998 -0.0419 -0.1166  0.3597
 8457W        W25981  11.435  15.256   2.703  0.0322 -0.4314 -0.5637
 8458W        W25982   8.480  11.095   3.235 -0.1720 -0.2576 -0.0292
 8459W        W25983  17.082  15.994  12.942  0.1672  0.3882  0.1853
 8460W        W25984  15.874   3.230  12.234 -0.1880 -0.0572 -0.0900
 8461W        W25985  14.717  15.348  14.355  0.0915  0.2662 -0.0276
 8462W        W25986   1.631  12.589  10.712 -0.0569 -0.0398 -0.2660
 8463W        W25987   1.228  17.973  14.239 -0.0881  0.2556  0.1363
 8464W        W25988   6.309  12.501  15.631  0.0236 -0.0073 -0.1127
 8465W        W25989   4.622  11.636  15.166 -0.0844 -0.0008  0.1131
 8466W        W25990   8.851  14.958   4.566  0.1680  0.2456  0.1413
 8467W        W25991   3.547  13.576   4.354 -0.1295 -0.1167 -0.1492
 8468W        W25992   2.513  17.022  12.298 -0.0230 -0.1107  0.1186
 8469W        W25993  16.490  14.903   1.136  0.0272 -0.1060  0.2042
 8470W        W25994  10.449  12.184  15.129 -0.1396  0.0626 -0.1870
 8471W        W25995  15.321  17.587  12.102 -0.1065  0.0082 -0.1247
 8472W        W25996   3.701  11.365  12.177 -0.1942 -0.2910 -0.0833
 8473W        W25997   9.916  15.265  14.610 -0.0221 -0.2763  0.0222
 8474W        W25998   6.439  15.628   1.351  0.2241 -0.0119  0.1017
 8475W        W25999   4.175   7.825   2.706  0.0494  0.2830 -0.3323
 8476W        W26000   1.961   6.467  13.216  0.1177 -0.3464 -0.1978
 8477W        W26001  13.406  14.102   3.615 -0.1310  0.0347  0.1354
 8478W        W26002   6.715  14.434   2.605 -0.3566  0.1741 -0.1635
 8479W        W26003   2.509   1.385  15.993 -0.3084 -0.0670  0.2567
 8480W        W26004   9.728  15.528  14.998 -0.0554 -0.2301 -0.1503
 8481W        W26005  13.039  16.246  11.854  0.0896  0.2738 -0.1299
 8482W        W26006  14.354   0.765  15.851  0.4182 -0.0906 -0.2499
 8483W        W26007   3.951  17.345  12.081  0.3089 -0.1443  0.1229
 8484W        W26008  12.667   1.827  12.957 -0.1257  0.2692 -0.1707
 8485W        W26009   8.954   8.495   4.243  0.2393  0.0134  0.0026
 8486W        W26010   5.048   9.572   0.209  0.0061  0.1864 -0.0702
 8487W        W26011   8.890   3.184  15.694  0.2419  0.0142 -0.1988
 8488W        W26012   7.278   4.961   1.078 -0.0862  0.1766 -0.2073
 8489W        W26013   5.777  10.701   2.965 -0.1016  0.0469 -0.1915
 8490W        W26014  16.177  11.539  15.850 -0.0203 -0.1959 -0.0843
 8491W        W26015   8.895  17.110  14.600  0.3235  0.1476 -0.1969
 8492W        W26016   1.881   4.756  14.383 -0.0027 -0.3771 -0.0729
 8493W        W26017  14.292   5.592  14.548 -0.0439 -0.0927  0.0448
 8494W        W26018   7.945   5.653  13.394 -0.0093  0.2620  0.0423
 8495W        W26019   4.705   7.577   1.236 -0.1642 -0.1173 -0.2146
 8496W        W26020   2.199   5.741   2.747  0.0179  0.1814  0.3718
 8497W        W26021   0.784   2.343  12.589 -0.1048  0.1275  0.2459
 8498W        W26022   3.572  14.765  15.120 -0.0727 -0.2277  0.0610
 8499W        W26023   0.810   8.748  15.527 -0.1412 -0.1317  0.0020
 8500W        W26024   0.491  15.845  15.566  0.1765  0.3049 -0.0437
 8501W        W26025   2.189  15.184  13.727  0.2184  0.0403 -0.0319
 8502W        W26026   1.651  12.839   5.785  0.1794 -0.1121  0.0390
 8503W        W26027   4.000   3.862  11.263  0.1802  0.0097 -0.1747
 8504W        W26028  17.793   2.010  11.271 -0.1867 -0.0940  0.3568
 8505W        W26029  10.692   4.342  10.584  0.1732 -0.0756  0.0669
 8506W        W26030  17.638   5.367  11.843  0.1544 -0.4330  0.1740
 8507W        W26031  13.971   8.080  15.116  0.0510  0.0119  0.2740
 8508W        W26032  16.450  17.835   1.884  0.2118 -0.0482  0.2025
 8509W        W26033   3.112  16.914   0.693  0.1934  0.2002  0.1620
 8510W        W26034  16.315   6.428  15.727 -0.2377  0.0546  0.3932
 8511W        W26035   2.718   9.440   1.557 -0.0840  0.1701  0.0561
 8512W        W26036  17.430  17.728   1.851  0.0755 -0.0766  0.0498
 8513W        W26037   2.045  10.407  12.175 -0.2059 -0.1139 -0.0779
 8514W        W26038   4.518   9.796  15.506  0.2658 -0.1530 -0.1995
 8515W        W26039   5.157  15.644   2.240  0.3071  0.0838  0.1402
 8516W        W26040   8.384  13.356  10.973  0.0969  0.0281 -0.3334
 8517W        W26041  11.151   9.216   4.562 -0.0825 -0.0664  0.0219
 8518W        W26042   6.877  16.613  14.567 -0.1506 -0.1333 -0.1711
 8519W        W26043  17.825  12.790  13.382  0.0732 -0.1218 -0.3408
 8520W        W26044  15.595   9.908  12.069  0.0211  0.2959 -0.3349
 8521W        W26045  18.095   5.964   2.564  0.0684  0.0164 -0.1186
 8522W        W26046   9.409   7.721  15.243 -0.1191  0.2139 -0.2451
 8523W        W26047   6.832  14.605  15.520 -0.3012 -0.0187 -0.2458
 8524W        W26048  14.089  17.338  13.823  0.3078  0.0910  0.0323
 8525W        W26049  17.700  13.805   4.091  0.1469  0.0705  0.0911
 8526W        W26050   8.180  16.082   3.442 -0.1275  0.2194  0.2478
 8527W        W26051  17.468  15.333  15.153 -0.4252 -0.1559  0.1243
 8528W        W26052  12.382   2.062   6.191  0.2675 -0.1649 -0.1550
 8529W        W26053   4.273  17.176  13.270 -0.1583 -0.0648 -0.1020
 8530W        W26054   3.029   4.299  11.422 -0.0435  0.1879 -0.0003
 8531W        W26055   6.939  13.602   0.132  0.1829  0.0347  0.0342
 8532W        W26056   2.676   8.154   0.088 -0.1784 -0.2408  0.0556
 8533W        W26057  12.375   4.282   3.078  0.0170  0.1597  0.0902
 8534W        W26058   1.435  15.914   0.375 -0.1250  0.1414  0.2176
 8535W        W26059  13.461  11.554  11.221  0.2242 -0.1660 -0.4096
 8536W        W26060   4.884   5.421  15.410 -0.0786 -0.0076 -0.2634
 8537W        W26061  13.549   6.796  13.561 -0.3904 -0.1620 -0.0305
 8538W        W26062   6.597   7.113   2.826 -0.0236 -0.0817  0.3565
 8539W        W26063  14.093  10.516  13.230  0.0694 -0.1746  0.1753
 8540W        W26064  17.241   0.507   0.696  0.2135  0.1583  0.1963
 8541W        W26065   6.053   8.083   1.420 -0.1071 -0.0386  0.0037
 8542W        W26066  14.813   1.100  13.899  0.1074  0.1828  0.0447
 8543W        W26067  14.385  16.623   0.869  0.0431 -0.2301 -0.3046
 8544W        W26068   8.759   8.121   3.623  0.0061  0.1772  0.0196
 8545W        W26069   7.804   3.343   2.555 -0.0297 -0.0142 -0.0496
 8546W        W26070   5.746  17.341   2.439 -0.1462  0.0242 -0.1912
 8547W        W26071  12.409  16.024   1.857  0.1434  0.0381 -0.0790
 8548W        W26072  17.472  13.381  14.716  0.1204 -0.2458 -0.0667
 8549W        W26073  16.474   8.782   0.242  0.1599  0.1660  0.0775
 8550W        W26074   6.680   9.028  15.955 -0.0204  0.1211 -0.2464
 8551W        W26075   6.772   7.405   3.792 -0.1376  0.1827  0.4358
 8552W        W26076   0.275  15.569  12.016  0.2117  0.1114 -0.3620
 8553W        W26077  12.323   8.167  12.436  0.1912  0.0341  0.4845
 8554W        W26078   5.805  10.773   4.906  0.0732 -0.1466  0.1384
 8555W        W26079   3.521   5.098   1.364  0.2461 -0.0900 -0.1327
 8556W        W26080  15.164   7.783  14.734  0.1127  0.0708  0.4134
 8557W        W26081  16.622   7.058   1.027 -0.0753  0.1666 -0.0937
 8558W        W26082  16.826  14.426  13.582 -0.1400 -0.3097  0.0036
 8559W        W26083   0.871   5.285   3.087 -0.1712 -0.3118 -0.0929
 8560W        W26084   2.081   8.468   0.624  0.1079 -0.1679 -0.1242
 8561W        W26085  13.050   8.107  15.072 -0.1931  0.4431 -0.4671
 8562W        W26086  16.673   0.495  11.532  0.1941 -0.1430  0.0300
 8563W        W26087  10.397  15.054   2.242  0.1798  0.1096  0.1209
 8564W        W26088  12.165   1.459   1.962 -0.0387 -0.0470 -0.2077
 8565W        W26089   0.848   2.747  14.263 -0.0934  0.1767  0.0703
 8566W        W26090   4.705   4.481   0.213  0.2170  0.3687 -0.1108
 8567W        W26091   3.030   4.423  15.509 -0.2037  0.1336 -0.0199
 8568W        W26092   2.376   6.884   1.835  0.3398 -0.0235  0.2125
 8569W        W26093  12.759  14.791  15.985  0.2052  0.0202 -0.0007
 8570W        W26094  16.427  15.118   3.377  0.0228  0.0619  0.3995
 8571W        W26095   1.584  16.135   3.080  0.0713  0.0394 -0.0888
 8572W        W26096  15.515   6.048  13.998  0.0882 -0.2191  0.0433
 8573W        W26097   3.600  14.095  11.912 -0.2997 -0.0843  0.0291
 8574W        W26098   1.202  11.949   5.157 -0.0406 -0.2636  0.2296
 8575W        W26099   2.232   4.656  12.767  0.3907  0.1463  0.0969
 8576W        W26100   7.866   0.905  12.744 -0.0408  0.1136 -0.1548
 8577W        W26101  11.936   6.178  15.698  0.0523  0.2967 -0.2835
 8578W        W26102   2.272  13.956   3.891 -0.1823  0.2328 -0.0364
 8579W        W26103  10.314  12.259  12.059  0.3104  0.0634  0.0393
 8580W        W26104   6.850  10.344  11.887 -0.0657 -0.0344  0.1920
 8581W        W26105   9.151   0.004   3.971 -0.0164  0.1381  0.2954
 8582W        W26106  14.954  14.461  15.808 -0.0435  0.0805  0.0859
 8583W        W26107   7.375   2.448   3.855 -0.1213 -0.0180 -0.0504
 8584W        W26108  16.798  14.365   0.739  0.0935 -0.4437  0.0933
 8585W        W26109   2.460   9.676  12.843 -0.3596  0.1522 -0.0762
 8586W        W26110  12.815   8.571   4.465 -0.0611 -0.4111  0.0325
 8587W        W26111   5.924  14.921   1.194  0.1738  0.1299 -0.0499
 8588W        W26112   8.365   8.330   1.145  0.0451  0.1066  0.0431
 8589W        W26113   0.954   3.634   0.580  0.1620  0.0862 -0.1062
 8590W        W26114   6.744  12.085  12.015 -0.0097  0.0794 -0.1763
 8591W        W26115   3.175   3.400  15.214 -0.0813 -0.2122  0.2668
 8592W        W26116   4.020  12.476  14.879 -0.0311 -0.2257  0.0094
 8593W        W26117   1.039   1.687  13.578 -0.3427  0.0143  0.3670
 8594W        W26118  14.200  15.877   5.072 -0.0721 -0.0857 -0.1572
 8595W        W26119   7.338  11.260   3.780  0.0842 -0.1141 -0.1595
 8596W        W26120   3.746   4.367   0.517  0.0332  0.1486 -0.2685
 8597W        W26121   9.628  17.329   4.418 -0.0907 -0.1934  0.1940
 8598W        W26122  11.131   1.915  14.954  0.1910  0.0641  0.0532
 8599W        W26123   4.858   4.516  14.964 -0.2380 -0.0618 -0.1684
 8600W        W26124  10.878  15.003  12.642  0.2979  0.0678  0.0940
 8601W        W26125  10.130  13.118   2.995  0.2746 -0.1382 -0.1196
 8602W        W26126   6.238   8.268   4.078 -0.1567  0.0522  0.0145
 8603W        W26127  10.271  17.675   0.432  0.1029 -0.3094  0.0026
 8604W        W26128   5.347   5.064  15.992 -0.0076 -0.2180  0.1717
 8605W        W26129   0.436  12.436   4.700  0.0965 -0.3778 -0.0098
 8606W        W26130   8.558   2.512  12.940 -0.0267 -0.3467 -0.0798
 8607W        W26131  16.018   6.605   2.118 -0.1652 -0.0762 -0.0466
 8608W        W26132  12.457   5.352   1.842  0.1590  0.4151  0.0376
 8609W        W26133   3.889   0.487  11.561  0.0714 -0.0189 -0.0479
 8610W        W26134   4.523   2.280  15.970  0.2214 -0.0806 -0.2605
 8611W        W26135  12.862   0.776   2.164 -0.3450  0.0184  0.0387
 8612W        W26136  15.552   8.868  12.404 -0.0522 -0.3448 -0.4746
 8613W        W26137   1.553   3.755  14.825 -0.3702 -0.0407 -0.1235
 8614W        W26138  12.518   2.196  12.097 -0.3313 -0.0062  0.0857
 8615W        W26139   3.378  10.760   4.716 -0.1877 -0.0173  0.1378
 8616W        W26140  13.639   7.180  11.620  0.1836 -0.0895 -0.0241
 8617W        W26141   8.903   5.830  12.091 -0.2817  0.1704 -0.1826
 8618W        W26142   6.897   7.287   1.475 -0.0449  0.3410  0.2206
 8619W        W26143   9.754   8.527   3.891  0.2767 -0.1436  0.0636
 8620W        W26144  14.362   1.670   4.728  0.1265 -0.2392 -0.1211
 8621W        W26145  12.984  16.215  15.733  0.0499 -0.0356  0.0154
 8622W        W26146   5.254   5.737  11.841  0.1895 -0.0906  0.0554
 8623W        W26147   0.681   0.293   4.156  0.3010  0.0834  0.0634
 8624W        W26148   7.787  16.687  15.731 -0.0541  0.2464  0.0248
 8625W        W26149  16.143   1.114  15.370 -0.1126 -0.0033 -0.2076
 8626W        W26150  16.013  16.418   5.625  0.1016 -0.2033 -0.1237
 8627W        W26151  15.429  11.199   4.967  0.2518  0.0720 -0.1112
 8628W        W26152   2.941  12.883   3.412 -0.2848 -0.2816 -0.0070
 8629W        W26153   4.975   6.435  11.979 -0.0893 -0.0239 -0.0824
 8630W        W26154   9.669   0.212   3.384 -0.1925  0.3362  0.0757
 8631W        W26155   9.528  15.940  13.440 -0.2247  0.0878  0.1561
 8632W        W26156   0.193  11.697   3.774 -0.1867 -0.1685  0.1202
 8633W        W26157  14.550  15.421  11.689 -0.2883 -0.0862  0.1399
 8634W        W26158   4.366   3.139   3.432  0.0116  0.1761 -0.1624
 8635W        W26159   4.995   4.555   4.131  0.1195 -0.4047 -0.3706
 8636W        W26160   1.379   0.638   4.971  0.1295 -0.0711 -0.0294
 8637W        W26161   3.743   3.625   1.676  0.3560  0.0526  0.1531
 8638W        W26162  17.937   8.857  13.645  0.5444  0.1152  0.4503
 8639W        W26163  10.239   0.131   2.516 -0.3091  0.1242 -0.0172
 8640W        W26164   9.360  15.362  14.678 -0.0831  0.3211 -0.0877
 8641W        W26165   3.462   2.822  14.505 -0.4633 -0.1865  0.0019
 8642W        W26166   5.251   0.788  11.172 -0.2573  0.3248 -0.2860
 8643W        W26167   4.756  16.556   5.773 -0.0013  0.0067  0.5335
 8644W        W26168   7.604   9.110  15.911 -0.0779 -0.0723 -0.1005
 8645W        W26169   0.716  15.029   1.644 -0.0861  0.1421 -0.1465
 8646W        W26170  13.932   4.365   2.816  0.1736 -0.0634  0.1790
 8647W        W26171  18.073  17.106   0.299 -0.0344 -0.1216 -0.0147
 8648W        W26172   7.822  14.715   0.542  0.0132 -0.0856 -0.1180
 8649W        W26173  16.745   7.373   1.753 -0.0981 -0.2148  0.2321
 8650W        W26174  18.131   5.536   1.415  0.1351  0.2281 -0.0806
 8651W        W26175  12.488   3.823  13.889  0.2024 -0.3345  0.1017
 8652W        W26176  12.781  15.273  12.884  0.0319  0.0396 -0.0670
 8653W        W26177   1.930  10.484  13.190  0.0252 -0.1662 -0.0819
 8654W        W26178  14.723   8.071   0.106  0.3223 -0.0469  0.1942
 8655W        W26179   6.500   0.375   3.947 -0.1406  0.1382 -0.2521
 8656W        W26180   5.993  16.514  15.106 -0.1122 -0.0491 -0.1148
 8657W        W26181  10.661   5.443  13.987  0.0358 -0.0926 -0.2745
 8658W        W26182   7.804   1.013   2.738 -0.2286  0.0929 -0.1271
 8659W        W26183   5.038   5.851   1.160 -0.0350 -0.1116  0.0003
 8660W        W26184   9.717   9.388  11.327  0.1626  0.1815  0.0718
 8661W        W26185   5.911   9.407  11.731  0.1435 -0.0208  0.1553
 8662W        W26186   9.452   1.776  12.838 -0.1246 -0.0363  0.3608
 8663W        W26187  11.725  15.938   5.749 -0.2086  0.2836  0.0461
 8664W        W26188   9.755  17.487   0.383  0.0155  0.1419 -0.2028
 8665W        W26189   3.488  17.877  10.996  0.0069  0.1038  0.1971
 8666W        W26190   0.991  16.456   2.599  0.0405  0.1813  0.0517
 8667W        W26191   2.781  13.907   1.720  0.1713 -0.0232  0.0661
 8668W        W26192   8.566   4.363  12.987  0.0418 -0.1190  0.3265
 8669W        W26193  13.562   7.182  13.874 -0.1331  0.1520  0.1053
 8670W        W26194   2.803  16.334  10.996 -0.1084  0.0634 -0.0653
 8671W        W26195  15.728  17.494  13.482  0.2813  0.1893 -0.1814
 8672W        W26196  16.597   2.074   4.738  0.1371 -0.0766  0.0918
 8673W        W26197   2.770  15.254   2.732 -0.0191  0.0527 -0.1568
 8674W        W26198  16.074  17.429   3.269  0.0675 -0.1326  0.0729
 8675W        W26199  12.203  16.774  10.709 -0.1374  0.0626  0.2661
 8676W        W26200  15.623  17.504  16.002  0.1722 -0.0171 -0.1408
 8677W        W26201   7.715  17.831   0.245  0.3482  0.1380 -0.2696
 8678W        W26202   8.751   0.350   3.704 -0.0864  0.0629 -0.0217
 8679W        W26203   1.715   7.203  14.266  0.1761 -0.0652  0.4248
 8680W        W26204   5.619  10.693  15.973 -0.2385 -0.0491 -0.1472
 8681W        W26205   8.591  11.015  13.924  0.0024  0.0084 -0.3332
 8682W        W26206   9.727   9.934   4.582  0.1484 -0.0305  0.0787
 8683W        W26207  11.395   1.175   0.150  0.1001  0.1926  0.2046
 8684W        W26208  14.419   9.337  11.976  0.1588 -0.0444  0.0236
 8685W        W26209  17.848  12.151  12.066  0.0630  0.0098  0.0172
 8686W        W26210  14.107  12.676  15.113 -0.1850  0.1778 -0.2623
 8687W        W26211  10.287   9.403  13.574 -0.2240 -0.0435  0.0289
 8688W        W26212  16.203   4.190  10.234  0.0229  0.1461 -0.1718
 8689W        W26213   6.695  15.480   5.111 -0.2098 -0.5000 -0.0851
 8690W        W26214   3.022  13.171  14.535  0.0246 -0.3118  0.0233
 8691W        W26215  15.024   6.090  13.937  0.1846  0.0519  0.3168
 8692W        W26216   6.327   8.586   4.594 -0.1121 -0.1849 -0.3004
 8693W        W26217   6.220   5.923   3.896 -0.0043 -0.0732 -0.0270
 8694W        W26218   1.902  10.988  14.144  0.3675  0.2952 -0.3470
 8695W        W26219   5.773   7.793   4.659 -0.3349  0.0818 -0.1491
 8696W        W26220  10.144  11.891  10.935 -0.2025  0.0090  0.1077
 8697W        W26221   0.469  11.858  11.203 -0.1789 -0.1676 -0.0297
 8698W        W26222  14.461   3.541  13.420 -0.0015  0.2963  0.3448
 8699W        W26223   3.911  16.678   2.979 -0.0897  0.1123 -0.0667
 8700W        W26224   2.726  10.112  12.861  0.2048  0.0250 -0.4617
 8701W        W26225   4.708   1.260  15.165 -0.0467 -0.1511  0.0046
 8702W        W26226   2.447   6.301   2.129  0.2313 -0.0100  0.0023
 8703W        W26227   4.847   6.699  12.542  0.2658  0.1565 -0.2418
 8704W        W26228   3.664   8.040  14.032 -0.1074  0.1982  0.1485
 8705W        W26229  11.433   4.190   2.302  0.4010  0.1058 -0.2189
 8706W        W26230   8.634   0.139  13.580 -0.0856 -0.1690 -0.2059
 8707W        W26231  14.043  17.669   2.914 -0.1164  0.1504 -0.0337
 8708W        W26232  11.435   7.124  14.051  0.1252 -0.3335  0.0745
 8709W        W26233   2.211   8.517   1.501  0.2341  0.0726 -0.1059
 8710W        W26234  14.050   3.135  12.415 -0.1979  0.0673  0.3110
 8711W        W26235   6.581   1.001   3.209 -0.1498  0.3590 -0.0043
 8712W        W26236  16.401   4.203   2.215 -0.0007  0.0958 -0.3080
 8713W        W26237   4.657  15.647   2.444  0.3243  0.0352  0.0076
 8714W        W26238   8.387   0.347  15.074 -0.0797 -0.1082 -0.0436
 8715W        W26239  12.180   5.809  14.318 -0.0636  0.3072 -0.0748
 8716W        W26240  10.835  16.790   3.476 -0.1770  0.1485 -0.1670
 8717W        W26241   5.131   6.891  11.867  0.0520 -0.2597  0.0086
 8718W        W26242  11.333  16.304  14.973 -0.2210  0.4726  0.0036
 8719W        W26243   6.326  11.865   4.273  0.1553 -0.1348 -0.1546
 8720W        W26244   6.585  12.162  11.102 -0.0775  0.2794 -0.1591
 8721W        W26245   0.875   4.056  11.931 -0.2153  0.1093  0.0927
 8722W        W26246   6.650  14.241   1.879 -0.1811  0.1812 -0.0080
 8723W        W26247  12.195   9.956  12.233 -0.3130 -0.1571  0.1291
 8724W        W26248   5.781   0.740   3.459 -0.2049  0.0412  0.0660
 8725W        W26249  15.881  18.029   4.713 -0.1599  0.2705 -0.2181
 8726W        W26250  10.049   9.416   0.058 -0.1857  0.0079 -0.0774
 8727W        W26251   9.602   8.199   3.467 -0.1410 -0.0642  0.1507
 8728W        W26252  12.144   9.568  11.585  0.1714  0.0216  0.1955
 8729W        W26253  13.250   3.446   1.543  0.1087  0.2851 -0.1966
 8730W        W26254   3.525   3.559   3.053 -0.2397 -0.2872  0.0210
 8731W        W26255  13.617   3.936   1.744 -0.0019 -0.2008 -0.1742
 8732W        W26256   5.760   1.010   0.245 -0.0440 -0.1898  0.0540
 8733W        W26257   7.890   7.715   5.112 -0.0987 -0.0811  0.1551
 8734W        W26258   8.715  13.360   2.029  0.0677 -0.1274  0.3695
 8735W        W26259   6.029  17.635  14.743 -0.1424  0.2390 -0.3123
 8736W        W26260   4.276  10.043  11.565 -0.0487 -0.1345  0.1709
 8737W        W26261   5.568  12.155  13.401  0.1454  0.0446 -0.0823
 8738W        W26262   8.671   2.506   9.920  0.1491  0.0718 -0.2755
 8739W        W26263   5.696   2.632   1.024 -0.0674 -0.1152 -0.1430
 8740W        W26264  15.604   9.962   2.670 -0.1284 -0.1121 -0.0895
 8741W        W26265   4.035   7.812   4.914 -0.0993 -0.1030  0.2051
 8742W        W26266  11.962  15.343   5.159 -0.2764  0.1123  0.1034
 8743W        W26267  11.185  11.852   4.090  0.0733  0.1617 -0.0961
 8744W        W26268  11.411   3.523  11.773  0.0391 -0.1864 -0.1748
 8745W        W26269  16.937  15.531  13.625  0.3767  0.1266  0.1331
 8746W        W26270  10.608   1.902  11.459  0.2893 -0.2180 -0.0668
 8747W        W26271  10.565  16.334   2.302  0.0369 -0.1583  0.0654
 8748W        W26272   8.297   7.160   1.912 -0.4156 -0.0737  0.2279
 8749W        W26273   1.431  12.948  12.142 -0.2436 -0.0836 -0.1491
 8750W        W26274   9.405   6.896  11.213 -0.1524 -0.0566 -0.0784
 8751W        W26275   8.360  13.894   0.638  0.0539  0.2300  0.0059
 8752W        W26276   8.912   1.886  13.755  0.0475 -0.1483  0.0887
 8753W        W26277   6.955   1.020   4.045 -0.0494  0.0762  0.1799
 8754W        W26278   9.741   5.973   1.877 -0.1600  0.1696 -0.1150
 8755W        W26279   4.462   9.478   3.755 -0.0198  0.1037  0.1054
 8756W        W26280  17.830  15.497   3.651  0.0050 -0.0431  0.0925
 8757W        W26281   0.193  14.858   3.096  0.3128  0.1601  0.1501
 8758W        W26282  15.104   8.833  14.978 -0.0818  0.1200 -0.1072
 8759W        W26283  15.420  17.095  15.661  0.4131 -0.0946 -0.0812
 8760W        W26284   2.647   1.408  11.455 -0.0080  0.1131 -0.5445
 8761W        W26285   4.588   5.992   1.296 -0.0995  0.2226 -0.1165
 8762W        W26286   7.781  16.023   0.225 -0.1512 -0.0627 -0.0497
 8763W        W26287   2.926  14.281   0.244 -0.2712  0.0011  0.3262
 8764W        W26288   8.786   2.667  14.938  0.1357 -0.1296  0.1722
 8765W        W26289  12.344   8.813   0.856 -0.0888  0.2476 -0.2606
 8766W        W26290  13.337   1.794  12.175  0.1102 -0.1356 -0.1486
 8767W        W26291   4.605  11.208  10.102 -0.1222  0.1981  0.0629
 8768W        W26292   0.390   9.106  15.310  0.3121 -0.2171  0.3817
 8769W        W26293   2.384  10.096  14.932 -0.0384  0.1037  0.0890
 8770W        W26294   7.916   7.439   3.944 -0.2342  0.1399  0.0114
 8771W        W26295   8.743  11.999  14.071  0.0421  0.1242 -0.2198
 8772W        W26296  14.261   2.428  13.554  0.0671 -0.0031  0.0384
 8773W        W26297  15.235   1.162  14.898  0.2284  0.1270 -0.1154
 8774W        W26298  14.923   6.436  13.573 -0.0142 -0.1867  0.4918
 8775W        W26299  16.871  11.067  14.538  0.2832  0.2163  0.0029
 8776W        W26300   0.469  14.791  12.681  0.1574  0.3167  0.1054
 8777W        W26301   5.819   3.272   5.667  0.0529 -0.1244 -0.1302
 8778W        W26302   3.643   5.036   2.881  0.0760 -0.0242 -0.1950
 8779W        W26303  10.223   2.644  11.495  0.0639 -0.1544  0.0950
 8780W        W26304   9.917   4.726   2.033 -0.1549 -0.2185 -0.0224
 8781W        W26305   2.391  16.856  12.749 -0.3078 -0.0704  0.0452
 8782W        W26306  15.204   1.391   4.300  0.0225  0.1008  0.3331
 8783W        W26307   2.176   2.903   0.004  0.2105 -0.5765 -0.1327
 8784W        W26308   4.044   7.347  14.646  0.1484  0.1853  0.0749
 8785W        W26309   2.372  16.212   4.331 -0.2491  0.3315 -0.1865
 8786W        W26310   2.942   6.260  12.996  0.1928 -0.0090 -0.0301
 8787W        W26311  10.782   3.225   4.795  0.1777 -0.2883  0.0567
 8788W        W26312   1.940  12.072   3.542  0.1641 -0.3803 -0.2646
 8789W        W26313  16.243   2.857   5.692  0.2171  0.1606 -0.0207
 8790W        W26314   7.987   1.300  11.850 -0.1523 -0.0681  0.1060
 8791W        W26315  10.782  17.302   4.105  0.1583 -0.0355  0.0466
 8792W        W26316  11.844  11.203  14.338 -0.0157 -0.1264  0.0904
 8793W        W26317  16.129  16.656  13.412 -0.0204 -0.0521  0.0481
 8794W        W26318  15.752  15.881  12.921 -0.1940  0.2863  0.1016
 8795W        W26319  14.648  12.177  12.334  0.0353  0.0714  0.0488
 8796W        W26320  16.238  15.324  12.893 -0.1594 -0.1550 -0.1846
 8797W        W26321  14.536   5.769   0.475 -0.3196 -0.0994 -0.2381
 8798W        W26322  10.491   9.966  13.652 -0.2880 -0.0351  0.1791
 8799W        W26323  17.098  18.120   2.960 -0.2242  0.1431 -0.1055
 8800W        W26324   9.503   7.735  14.738  0.0776 -0.1437 -0.1195
 8801W        W26325  16.391  14.658  12.832  0.1055 -0.0655  0.1903
 8802W        W26326   9.973  10.651  15.454 -0.0368  0.0419 -0.1734
 8803W        W26327   8.171   3.162   3.412 -0.0181 -0.0961  0.2102
 8804W        W26328   6.793   3.986   3.833 -0.0040  0.0342 -0.1032
 8805W        W26329  11.569   6.795  15.691 -0.1514  0.0537  0.1014
 8806W        W26330  10.106  12.355   4.251  0.0115 -0.2553 -0.4077
 8807W        W26331  12.320   8.280   5.805 -0.0108  0.0687 -0.0563
 8808W        W26332  17.206  12.862   5.951  0.0947  0.1303 -0.1428
 8809W        W26333   8.351   4.083   0.979  0.1074 -0.2354  0.4756
 8810W        W26334   8.012  17.491  12.958  0.0885  0.2500  0.0053
 8811W        W26335  12.253  14.562  13.738 -0.1670  0.1877 -0.2909
 8812W        W26336   1.263   1.040  11.736 -0.0239  0.0155  0.3203
 8813W        W26337   6.495   4.340   4.559  0.3049 -0.4330  0.1292
 8814W        W26338  14.109   1.452   4.309  0.0930 -0.5570  0.2192
 8815W        W26339   2.122   7.074   4.204 -0.4169 -0.1468 -0.0148
 8816W        W26340  13.049  10.348  16.037  0.2196 -0.0236 -0.0713
 8817W        W26341   6.258  17.912  15.086  0.3001  0.0745  0.0919
 8818W        W26342   4.332   8.113  14.429 -0.2786 -0.1776 -0.0519
 8819W        W26343   4.319   7.542  13.030  0.2362  0.1657  0.2248
 8820W        W26344   9.730   6.540  11.278 -0.0148  0.0438 -0.0590
 8821W        W26345   9.228   9.831  14.382 -0.1282  0.1205 -0.2034
 8822W        W26346  10.054  15.692   3.380  0.1018  0.1201 -0.0708
 8823W        W26347  11.706   8.617   2.647 -0.1846 -0.4273  0.1596
 8824W        W26348   6.176   3.534  14.768  0.4738  0.0384 -0.1321
 8825W        W26349   2.075  14.241  13.968  0.2122 -0.1217  0.0268
 8826W        W26350   1.745  13.051   4.057 -0.0489  0.1455 -0.0802
 8827W        W26351   5.221   8.871   5.270 -0.0147 -0.0610  0.1244
 8828W        W26352   6.720   6.792   4.192 -0.0136 -0.1260  0.3403
 8829W        W26353   8.071   3.760  13.258  0.0095  0.1400  0.0864
 8830W        W26354  15.894  15.066   5.523  0.0629 -0.2487  0.0280
 8831W        W26355   6.618   3.942   1.333  0.1574  0.2216 -0.0119
 8832W        W26356   8.972   4.529   1.522 -0.0894 -0.2076  0.0338
 8833W        W26357  17.416  13.886   0.714 -0.0637  0.0291 -0.0715
 8834W        W26358  15.100  16.517  12.080 -0.3070 -0.2912 -0.1526
 8835W        W26359  14.791   3.440  13.808 -0.1813 -0.0637  0.0685
 8836W        W26360   6.042   0.215   4.277 -0.0919 -0.1780 -0.4305
 8837W        W26361   8.894  16.570   0.100  0.1033 -0.0207  0.4264
 8838W        W26362  14.165   6.469   0.077  0.1345  0.3492  0.2877
 8839W        W26363  14.506  14.854   0.906  0.0668 -0.0317  0.0705
 8840W        W26364  13.070   4.545   4.375  0.1108  0.3325 -0.2439
 8841W        W26365   4.435   9.466   2.505 -0.2481 -0.3245  0.1739
 8842W        W26366   8.839  15.450  12.489 -0.0142  0.1500 -0.4589
 8843W        W26367   4.369   8.460  13.084  0.0355 -0.1583  0.3792
 8844W        W26368   7.544  17.812  12.101  0.1765  0.0879 -0.0784
 8845W        W26369  10.533   9.644   0.203 -0.1153 -0.0792  0.1826
 8846W        W26370  17.718  10.077  15.181 -0.0495 -0.2502  0.2772
 8847W        W26371   4.295   8.911  13.163  0.0462 -0.0533  0.0392
 8848W        W26372   8.897  16.176   2.102  0.1185  0.2263 -0.3035
 8849W        W26373  14.454   6.911  15.959 -0.0786 -0.0698 -0.1424
 8850W        W26374  15.475  13.012   2.809 -0.1312  0.2824  0.0620
 8851W        W26375   4.045   2.748  12.895  0.4093  0.1570 -0.2221
 8852W        W26376  15.659  16.164   4.788  0.1379 -0.0919  0.0644
 8853W        W26377  10.868   3.979   3.944 -0.1162 -0.2569 -0.0565
 8854W        W26378  11.569   5.687   0.829  0.1995 -0.1144  0.2719
 8855W        W26379   2.132  11.027   3.506 -0.1464 -0.0769 -0.0122
 8856W        W26380   0.520   3.066  15.065  0.4898  0.0650 -0.0308
 8857W        W26381  11.894  13.708  15.778 -0.1275  0.0912 -0.1014
 8858W        W26382   8.659  16.857  15.849 -0.1056  0.0226  0.0500
 8859W        W26383   5.552  13.571  10.220 -0.2983  0.0916 -0.0095
 8860W        W26384   8.947  11.327   3.092 -0.3000 -0.0893 -0.0017
 8861W        W26385  11.889   6.373  15.165  0.0988 -0.0206  0.0100
 8862W        W26386  16.555  12.859  13.891 -0.1682  0.1693  0.1470
 8863W        W26387   7.741   5.523   2.935  0.0968  0.1930  0.0822
 8864W        W26388  12.109  10.689  14.916 -0.5399  0.2448  0.0002
 8865W        W26389  10.169   2.332  13.221 -0.0073 -0.0243  0.0532
 8866W        W26390   1.221   0.287   2.299  0.0099 -0.0116 -0.0416
 8867W        W26391   4.857  16.801  14.907 -0.0469 -0.0460  0.3051
 8868W        W26392   3.579  11.936   2.767  0.0354  0.3894 -0.2585
 8869W        W26393   3.330   7.202  14.026 -0.1904 -0.0280 -0.1756
 8870W        W26394   2.058  12.190  13.334  0.1317 -0.2890  0.1538
 8871W        W26395   1.159  15.646   4.252 -0.1165  0.3292 -0.0029
 8872W        W26396   8.342  13.389   1.537  0.0674 -0.2014  0.2520
 8873W        W26397  16.329  13.554  14.245 -0.3201 -0.3507  0.1627
 8874W        W26398   3.091  14.188  13.887 -0.0984 -0.1398  0.0525
 8875W        W26399   7.133  11.491   4.233 -0.2296  0.2138 -0.0420
 8876W        W26400   1.040  16.695   1.338 -0.1274  0.0696 -0.3801
 8877W        W26401  17.878  13.836  12.009 -0.0600 -0.1395 -0.1165
 8878W        W26402   7.060   5.566  12.421 -0.0848 -0.2695  0.4427
 8879W        W26403  11.971   7.876  14.855  0.0968 -0.3007  0.2067
 8880W        W26404  14.348   1.383  13.185 -0.0739  0.1454  0.0865
 8881W        W26405  10.891  15.429   0.867 -0.0131 -0.2010 -0.1767
 8882W        W26406  15.538  12.172   4.727  0.0453  0.0516 -0.1388
 8883W        W26407  10.167  17.141   0.324  0.5848 -0.1927 -0.0396
 8884W        W26408   9.533   9.468   3.969  0.2869  0.0148  0.2890
 8885W        W26409   0.573  14.720   0.550 -0.2385  0.1646 -0.4078
 8886W        W26410   4.536  16.200   1.081 -0.1518 -0.1074  0.2347
 8887W        W26411  13.701   6.469   1.868  0.1525  0.0905  0.0127
 8888W        W26412   4.262   7.374   4.191  0.0749  0.2063 -0.0916
 8889W        W26413   7.626  11.995  15.595 -0.0381  0.0717  0.0387
 8890W        W26414   5.598   7.749   1.123 -0.1495  0.0209 -0.0944
 8891W        W26415  14.783   9.596   1.314  0.1782  0.1014  0.0109
 8892W        W26416   1.285   9.267   1.768  0.3306 -0.0835  0.3632
 8893W        W26417   3.254   5.375  15.971 -0.0536 -0.0182 -0.2500
 8894W        W26418  15.802  12.457   0.163  0.4073  0.0344 -0.1622
 8895W        W26419   1.653   4.702   2.713 -0.0977  0.3861  0.0062
 8896W        W26420  14.917  13.499  12.866  0.0419  0.0339  0.1201
 8897W        W26421  17.875  14.682  15.491 -0.0039  0.0936  0.0825
 8898W        W26422  10.772   7.613   3.121 -0.1069  0.2231  0.2183
 8899W        W26423  12.673  14.473  11.264  0.2094 -0.2310 -0.0716
 8900W        W26424   2.251  15.520   0.546  0.1241  0.3271 -0.0855
 8901W        W26425  12.224  14.509  13.111  0.0112  0.0868  0.0118
 8902W        W26426   8.976  14.831   4.050  0.1361 -0.1880 -0.5217
 8903W        W26427  13.392   7.762  16.043  0.0309 -0.0596 -0.2306
 8904W        W26428  12.412  17.932  14.790  0.1241  0.0014  0.2262
 8905W        W26429   5.635  16.869  12.134  0.0262  0.0824  0.2106
 8906W        W26430   8.696  13.273  14.877  0.1377  0.0247  0.1839
 8907W        W26431  10.342  15.963   2.532 -0.1700  0.0765 -0.2072
 8908W        W26432   3.922   6.375   3.467 -0.1134  0.0504 -0.0648
 8909W        W26433   8.433   7.038  11.476  0.1658  0.2235 -0.2328
 8910W        W26434  11.384  15.194  14.734  0.0063  0.1286 -0.0760
 8911W        W26435   9.878  10.140   2.819 -0.0019  0.0781  0.1415
 8912W        W26436  16.444  12.551  12.712 -0.0386 -0.2455  0.2753
 8913W        W26437   9.217  15.518  13.257  0.0397  0.2390  0.2146
 8914W        W26438   2.902   1.235   1.189  0.1444  0.0848 -0.1578
 8915W        W26439   4.389   0.297  13.864 -0.1489 -0.2235 -0.0997
 8916W        W26440   8.207   5.528  15.381 -0.1242  0.0304 -0.1381
 8917W        W26441   9.724   6.077   3.240  0.0143  0.1025  0.0430
 8918W        W26442   4.671   0.530   1.989 -0.0712  0.0029  0.1345
 8919W        W26443  18.124   0.430  13.501  0.4237 -0.0091 -0.0625
 8920W        W26444  15.917  16.174  15.912  0.0261 -0.1012  0.2695
 8921W        W26445  13.770  12.594   3.971 -0.1451 -0.1264  0.1573
 8922W        W26446   3.508  10.292  13.247 -0.1796  0.2975  0.1177
 8923W        W26447  18.032   3.103   1.538 -0.0632 -0.3375  0.2272
 8924W        W26448  15.994   9.713  12.433 -0.0508  0.1274 -0.1407
 8925W        W26449   9.576  12.750  12.583 -0.2394  0.1483  0.0821
 8926W        W26450  14.595  12.489  15.287  0.0453  0.0360  0.0312
 8927W        W26451  10.020   0.487   4.779 -0.2869 -0.0222  0.0068
 8928W        W26452  10.675  15.237   4.984  0.2027 -0.0025  0.0795
 8929W        W26453   5.691  16.848  14.858  0.2958 -0.0069 -0.4970
 8930W        W26454   0.070   7.089  14.683  0.0146 -0.5089 -0.0874
 8931W        W26455  10.743   8.092  13.935 -0.1441  0.0124  0.0496
 8932W        W26456   0.859  11.143  12.362  0.0360  0.2148  0.1234
 8933W        W26457   3.076   0.099  11.480 -0.2418  0.0509  0.1061
 8934W        W26458   3.008  13.820   0.219 -0.0289  0.1501 -0.1132
 8935W        W26459   6.808  14.340  13.249  0.1212 -0.1593  0.0418
 8936W        W26460   8.623   0.060  11.218 -0.0960  0.1320 -0.0137
 8937W        W26461  14.455  15.803  14.345 -0.1311 -0.1483 -0.0812
 8938W        W26462   6.122  10.383  10.070  0.2832  0.1079 -0.1854
 8939W        W26463  14.972  11.555   1.456 -0.0646 -0.1477  0.1204
 8940W        W26464   0.446   0.758   1.896 -0.4374 -0.0764 -0.0909
 8941W        W26465   3.967   9.486   3.562  0.1441 -0.2113 -0.0291
 8942W        W26466  13.732  11.879   0.017 -0.2569  0.2412 -0.0245
 8943W        W26467   2.409   9.945   3.045  0.2483 -0.1324  0.0756
 8944W        W26468   6.499   6.204   3.006 -0.0954 -0.0145  0.1687
 8945W        W26469  11.700  11.004   1.997 -0.1976 -0.2481 -0.3417
 8946W        W26470  14.066   8.854   4.794  0.0900 -0.2403  0.5234
 8947W        W26471   7.593   2.831   0.209 -0.2316  0.0020  0.0847
 8948W        W26472   3.135  15.149   0.278 -0.0102 -0.1971 -0.1255
 8949W        W26473   1.647   4.263  10.657 -0.0162 -0.1181  0.0947
 8950W        W26474   2.322  16.574  12.265  0.0562 -0.2958  0.0006
 8951W        W26475   2.993   2.870   0.651  0.0044 -0.2546 -0.2006
 8952W        W26476   9.717   7.081  12.076 -0.1107 -0.1049 -0.0662
 8953W        W26477   6.221   5.089   3.976  0.1405  0.0372  0.0857
 8954W        W26478  12.761   7.764   4.584 -0.0070  0.1540 -0.2237
 8955W        W26479   5.384  13.992  11.915 -0.3111 -0.2381 -0.0794
 8956W        W26480  10.541  10.901  14.002 -0.2043 -0.2121 -0.0514
 8957W        W26481   9.839   9.986   1.945 -0.0926 -0.2866  0.0487
 8958W        W26482  10.819  13.002  10.870 -0.1284 -0.1062 -0.1422
 8959W        W26483  10.330  14.300   5.208  0.0403  0.0037 -0.1065
 8960W        W26484   7.308   6.815   1.449  0.0914  0.0895 -0.2764
 8961W        W26485   2.916   7.482   0.795  0.0445  0.2115 -0.1544
 8962W        W26486   8.062  15.212  11.563  0.4230 -0.2397 -0.1391
 8963W        W26487   9.724   2.743  10.670  0.2344 -0.1017  0.1897
 8964W        W26488   1.564   6.363  14.821 -0.0930 -0.0616 -0.1602
 8965W        W26489   3.174  15.231  12.519 -0.5443  0.0257  0.0214
 8966W        W26490   3.141   7.197  14.761  0.1021 -0.1568 -0.0401
 8967W        W26491  15.178  13.759   4.864  0.0311 -0.1993  0.0582
 8968W        W26492  13.080   7.619   0.444 -0.1870  0.3448 -0.0196
 8969W        W26493   1.385   0.818  14.728 -0.2544  0.0294 -0.1136
 8970W        W26494   7.592   7.394  12.876 -0.0272 -0.3022  0.2767
 8971W        W26495  15.432  15.549   2.172  0.3369 -0.4426  0.0349
 8972W        W26496   6.523   9.963  11.921 -0.0285  0.0320  0.1363
 8973W        W26497  16.066   4.936  16.025  0.0810 -0.0428  0.1665
 8974W        W26498   8.406   8.985   4.583  0.1418  0.3851  0.0032
 8975W        W26499   6.916  17.155   4.163  0.1984  0.0824 -0.3452
 8976W        W26500   9.667  11.877   3.730 -0.0278  0.2286 -0.1296
 8977W        W26501  15.697  11.912  13.271 -0.1308  0.4736  0.0002
 8978W        W26502  16.646  11.147   4.956 -0.0829 -0.2238  0.3113
 8979W        W26503  11.872   2.655   0.579  0.0941  0.3026  0.3248
 8980W        W26504  14.163  12.808   3.612 -0.0474  0.0360 -0.1731
 8981W        W26505   5.585   7.404  11.294 -0.1334  0.1368 -0.0136
 8982W        W26506   2.116  11.082  12.154 -0.2709  0.0565 -0.2354
 8983W        W26507   1.455   6.924  14.930  0.1171 -0.2289  0.4817
 8984W        W26508   5.031  12.543  15.949 -0.0499  0.4070  0.0595
 8985W        W26509  16.256   2.048   0.633 -0.1767  0.1028  0.1693
 8986W        W26510  11.995   2.911   4.689  0.1874 -0.2848 -0.1927
 8987W        W26511   7.621  13.642  11.813  0.1966  0.1953 -0.2451
 8988W        W26512  14.819  11.900   1.727 -0.1090 -0.3120  0.0935
 8989W        W26513   9.847  11.597  11.528 -0.1687 -0.0983  0.3964
 8990W        W26514  11.359   3.291  11.013 -0.3607  0.4059 -0.0367
 8991W        W26515   7.298  17.460   1.177  0.1168 -0.0243 -0.0654
 8992W        W26516   5.131  13.762  15.208 -0.2268 -0.3497  0.0317
 8993W        W26517  11.616   0.781   2.191  0.1697 -0.1551  0.3070
 8994W        W26518   8.194  16.952  12.242 -0.0320 -0.2233 -0.0655
 8995W        W26519   6.338  14.709  14.774  0.1169 -0.3256 -0.1306
 8996W        W26520  17.657   8.211   1.055  0.0732 -0.1908  0.0736
 8997W        W26521   4.056   1.545  14.620 -0.0879  0.1401  0.0482
 8998W        W26522   9.522  16.826  13.457 -0.2354 -0.0002  0.0780
 8999W        W26523   1.919  13.255  12.405 -0.0568 -0.4211  0.3051
 9000W        W26524  15.983   7.729  14.282  0.0888  0.3888  0.0184
 9001W        W26525   8.060  15.207  12.587 -0.0525  0.1881 -0.3173
 9002W        W26526   4.306   7.337   4.780  0.2058  0.1457 -0.5058
 9003W        W26527  12.705   3.284   2.748 -0.0308 -0.1636 -0.0490
 9004W        W26528  14.363   4.752  12.031 -0.1349  0.1780 -0.0101
 9005W        W26529   7.377  16.235  11.688  0.1283  0.0505 -0.0587
 9006W        W26530  16.949  12.759  15.186 -0.3090 -0.0425 -0.0999
 9007W        W26531   2.268   7.255  15.120 -0.0425 -0.2601 -0.1781
 9008W        W26532   5.563  10.812  12.615 -0.3624 -0.2300 -0.2447
 9009W        W26533   3.339  14.892   1.331 -0.1122 -0.1799  0.1089
 9010W        W26534  14.031  16.333  13.827  0.1209 -0.3792 -0.0397
 9011W        W26535  11.195  11.126   1.994  0.2560  0.0602 -0.2596
 9012W        W26536   5.836  15.412   3.605 -0.1137  0.0249  0.0614
 9013W        W26537  16.316   8.188   1.547  0.1649 -0.0214  0.2360
 9014W        W26538  10.670   3.296  10.147  0.0764  0.2473  0.2369
 9015W        W26539   4.235  18.072   0.618 -0.1629  0.1157  0.2530
 9016W        W26540   1.212  11.766  13.343  0.1432  0.1183 -0.2486
 9017W        W26541  16.606  11.804   2.020 -0.0990 -0.1249  0.2731
 9018W        W26542  16.462   3.316  15.416 -0.1309  0.1869 -0.1787
 9019W        W26543  13.568   7.038  15.827 -0.1222 -0.1367 -0.3452
 9020W        W26544   8.850  10.290  14.741 -0.0634  0.1351  0.0513
 9021W        W26545  14.728  10.013  15.003 -0.3328  0.0858  0.2948
 9022W        W26546   9.849   0.082  11.402 -0.0907 -0.1831  0.3901
 9023W        W26547  15.154  16.238   3.940 -0.2296  0.0827  0.1666
 9024W        W26548   8.966   1.325  12.325 -0.0369  0.0572  0.2347
 9025W        W26549  12.203   6.528   4.980  0.2619 -0.0569 -0.0047
 9026W        W26550  11.156  11.069  12.661  0.2489 -0.0083 -0.1337
 9027W        W26551  14.574  13.472  11.590 -0.1115  0.1022  0.0730
 9028W        W26552   0.926  17.247  10.093  0.3851  0.0451  0.4146
 9029W        W26553   5.934   3.369  12.691 -0.1816 -0.2623 -0.3173
 9030W        W26554  16.095   7.062   0.753 -0.2947  0.0352  0.0047
 9031W        W26555   3.034  13.020  12.885 -0.1936  0.2137  0.0474
 9032W        W26556  13.356   4.280  11.382  0.1513 -0.2265  0.0686
 9033W        W26557   4.151   2.071   3.735 -0.3252 -0.3316  0.2717
 9034W        W26558  13.251   1.036   4.552 -0.0274  0.0805 -0.1262
 9035W        W26559   3.269  14.494   4.891  0.0230 -0.2653  0.0874
 9036W        W26560   6.783  16.827  11.491  0.0561  0.3207 -0.3560
 9037W        W26561   7.365  11.671  14.824 -0.0324 -0.1047 -0.3182
 9038W        W26562  14.483   6.096  10.291  0.0127  0.1624 -0.0618
 9039W        W26563  12.672   6.192   4.878 -0.1871 -0.0789  0.2178
 9040W        W26564   7.111   5.853   4.514 -0.2026  0.1144 -0.0898
 9041W        W26565   8.622   9.014   0.749  0.0390  0.0636 -0.2581
 9042W        W26566   6.940   8.728   2.977  0.1923 -0.0242 -0.3915
 9043W        W26567  10.679   0.921  12.724 -0.0784 -0.1029  0.1047
 9044W        W26568   7.805  12.870  15.931 -0.2883 -0.3007 -0.2948
 9045W        W26569   1.539  12.597  11.186 -0.5086 -0.1343 -0.2912
 9046W        W26570   5.372   1.625  13.168 -0.2038 -0.2751 -0.4836
 9047W        W26571  15.856   2.953   2.498  0.2961 -0.0356  0.0450
 9048W        W26572   1.560  11.400  13.508 -0.1193  0.0890 -0.1432
 9049W        W26573  11.874  15.755   1.050  0.2496 -0.0565  0.1277
 9050W        W26574  15.189   2.557  15.699 -0.0865 -0.1221 -0.0799
 9051W        W26575   0.461   9.827  13.969  0.0698  0.2789 -0.1903
 9052W        W26576   9.786  13.679  15.500  0.2768  0.3208 -0.3210
 9053W        W26577  12.518   5.799   2.840  0.2242  0.1035 -0.1063
 9054W        W26578   6.963  15.005   3.854  0.1038  0.1918  0.2792
 9055W        W26579   2.747  16.580  10.209 -0.0601  0.0959 -0.1423
 9056W        W26580   1.758   4.523  13.812 -0.2600 -0.2138 -0.2554
 9057W        W26581   5.649   5.752   3.973 -0.0365  0.0619  0.0764
 9058W        W26582   4.587  13.654   0.531  0.1275  0.0469  0.2441
 9059W        W26583  13.979   9.977  14.445 -0.0790  0.1872  0.0873
 9060W        W26584  13.504   2.816   4.886 -0.2132 -0.0073 -0.1041
 9061W        W26585   8.596   6.140   3.262  0.3787 -0.3275 -0.1197
 9062W        W26586   9.471   1.000   4.610 -0.0953  0.2929  0.3391
 9063W        W26587   7.950   6.814   1.261 -0.2618  0.0633  0.0693
 9064W        W26588   6.912   1.733   1.632 -0.0096  0.0748  0.0996
 9065W        W26589   1.183  12.952   1.826  0.0446 -0.1244 -0.1683
 9066W        W26590   9.550   9.577   1.646  0.0966  0.1879  0.3253
 9067W        W26591  11.638  17.650   1.282  0.2768  0.1757 -0.4514
 9068W        W26592  17.126   5.388  14.123  0.0497 -0.3605  0.0916
 9069W        W26593   2.366  16.033  15.216 -0.0069  0.2458  0.3287
 9070W        W26594   6.747   7.810  12.733 -0.1579 -0.3730  0.2255
 9071W        W26595  16.802   2.999  13.865  0.0281  0.1592 -0.1141
 9072W        W26596  14.254   2.118   2.201 -0.0706  0.1271 -0.2496
 9073W        W26597   7.566  10.360   4.812  0.0220  0.1740  0.2057
 9074W        W26598   2.240   4.500  15.256  0.4205  0.1164 -0.0522
 9075W        W26599   8.001   7.091   0.845 -0.1758  0.2642 -0.0846
 9076W        W26600  11.219   3.702  12.607  0.2379 -0.1372 -0.2684
 9077W        W26601   9.565  10.472   2.668  0.1938  0.1329  0.0286
 9078W        W26602  17.660  11.557   2.141  0.2245 -0.0710 -0.1229
 9079W        W26603  14.090   5.479   1.879  0.0642 -0.0115  0.2987
 9080W        W26604   9.564  10.897  14.077  0.1364  0.1609 -0.1737
 9081W        W26605  13.489  12.343   4.808 -0.2239  0.0280 -0.2953
 9082W        W26606   9.016  17.203  15.549  0.0986 -0.1088  0.0402
 9083W        W26607   6.550  16.046   3.596  0.1750 -0.2687  0.0410
 9084W        W26608  13.238   8.379   1.241  0.0159  0.2040  0.2254
 9085W        W26609  11.186   7.580   0.684 -0.0349 -0.3660  0.0166
 9086W        W26610   9.910   8.013   2.952 -0.2125 -0.0276 -0.2052
 9087W        W26611  14.430   0.399  15.447 -0.0390  0.0720  0.0253
 9088W        W26612   8.309  11.381   3.623 -0.4600  0.2240  0.1019
 9089W        W26613   1.477   4.551   1.506  0.1216 -0.0648 -0.1365
 9090W        W26614   2.460   3.066   2.630 -0.4238  0.1768 -0.3020
 9091W        W26615   3.189   0.482  12.617 -0.3102  0.0344 -0.0128
 9092W        W26616   3.914  12.651   2.362 -0.2346 -0.1435  0.1430
 9093W        W26617   7.722  14.683   3.803  0.1161 -0.4526 -0.0135
 9094W        W26618  13.081   5.940   0.849 -0.0276  0.0103 -0.1815
 9095W        W26619   0.255   7.302   1.739 -0.0878  0.1216  0.1977
 9096W        W26620   4.358  15.068  14.769 -0.2121  0.0694 -0.0020
 9097W        W26621   9.992  15.229   0.205 -0.1556 -0.0259 -0.1608
 9098W        W26622   3.216  10.369  14.169 -0.1505 -0.1683  0.0740
 9099W        W26623  14.359  17.058  10.569 -0.1845 -0.0103  0.0830
 9100W        W26624   0.833   0.085  11.742  0.0976 -0.0939  0.1686
 9101W        W26625  11.245  17.764   1.618 -0.1042  0.1606  0.0131
 9102W        W26626  11.092  10.227   3.496  0.2433  0.2335 -0.2035
 9103W        W26627  13.327  12.657   1.820  0.0227  0.0928 -0.0350
 9104W        W26628   6.118   8.754  14.414  0.1788 -0.1042  0.0868
 9105W        W26629   4.806   2.512  15.573  0.0116  0.2225 -0.1917
 9106W        W26630   5.428   0.092   0.896  0.0675 -0.0041  0.3548
 9107W        W26631   1.468   0.133  14.627 -0.0566  0.2288 -0.3672
 9108W        W26632  12.167   4.058   4.178  0.1909 -0.1940  0.1658
 9109W        W26633   6.843   7.014  12.664 -0.4052 -0.1857 -0.2997
 9110W        W26634  10.119  16.915   2.585 -0.1038 -0.1389 -0.2249
 9111W        W26635  10.395  13.648   4.640 -0.1165 -0.0665 -0.0655
 9112W        W26636   7.924   5.895  15.664  0.1706 -0.0014  0.1488
 9113W        W26637  11.914  14.242  14.337 -0.0367  0.3103 -0.1671
 9114W        W26638   1.247   3.812   1.717 -0.2766 -0.1328 -0.0082
 9115W        W26639   9.398   2.888  15.731  0.0514  0.1348 -0.1873
 9116W        W26640   7.051  12.667  11.355 -0.0154  0.1921 -0.0541
 9117W        W26641  17.993   5.885   0.952  0.2149  0.0551 -0.1912
 9118W        W26642  10.332   3.492   0.812 -0.0077  0.1011  0.0733
 9119W        W26643   5.542  17.571  10.893  0.0709 -0.0352 -0.1157
 9120W        W26644   2.218  14.111  13.423  0.0398 -0.1802  0.3093
 9121W        W26645  16.484   2.532   4.435 -0.0819 -0.2335  0.0744
 9122W        W26646  13.502   5.027  11.507 -0.0719  0.1359  0.0663
 9123W        W26647   0.229   3.673   0.041 -0.4523 -0.2429  0.1486
 9124W        W26648  10.080  13.242  15.454  0.1536 -0.2079  0.2051
 9125W        W26649  11.263   4.283  13.519 -0.0109 -0.1050 -0.0235
 9126W        W26650  10.550  16.913  11.859 -0.0736  0.3934  0.0833
 9127W        W26651  11.874  11.572  14.718 -0.2049  0.0425 -0.3351
 9128W        W26652  16.788   8.333   4.689  0.1957  0.0139  0.1487
 9129W        W26653   9.614   8.944  11.712 -0.0688  0.2162  0.0720
 9130W        W26654  15.207  14.035   2.246 -0.2006 -0.2203 -0.3501
 9131W        W26655   8.117   9.745   2.547  0.0820  0.2882 -0.0455
 9132W        W26656   2.261  12.868   1.343  0.0518 -0.0347  0.1895
 9133W        W26657  13.132   8.538  13.473  0.2440  0.0260 -0.0305
 9134W        W26658  13.256   9.832  15.054 -0.0386  0.3142 -0.0912
 9135W        W26659  11.058   1.796  12.161 -0.0001  0.0179 -0.0738
 9136W        W26660  10.202  16.652  14.022  0.2284 -0.3899  0.1850
 9137W        W26661   7.079  10.800   0.754 -0.1824  0.0119 -0.0751
 9138W        W26662   7.618   6.646  12.628  0.0578  0.0099  0.3044
 9139W        W26663   5.484   3.289   2.437 -0.3348  0.0236 -0.3750
 9140W        W26664  13.142  10.819   4.354  0.1017 -0.2345  0.1607
 9141W        W26665  15.649   1.150  15.242  0.0056 -0.4286 -0.2194
 9142W        W26666   3.162  12.742  15.395  0.2419 -0.0519  0.2497
 9143W        W26667  11.848   8.513  15.722 -0.0110 -0.0067 -0.0777
 9144W        W26668  16.599   2.493  13.085  0.0862 -0.0758 -0.2069
 9145W        W26669   3.458  11.899  12.542 -0.4364 -0.0473  0.2002
 9146W        W26670   1.034   6.371  15.849 -0.0243 -0.1767  0.0508
 9147W        W26671  17.054  10.236  14.663  0.3285  0.0783 -0.0917
 9148W        W26672   9.342   8.238  13.084  0.0998 -0.1048  0.0389
 9149W        W26673  16.207  17.597  15.456  0.2160  0.1457  0.3298
 9150W        W26674  14.331  15.623  12.795 -0.0124 -0.0462 -0.0700
 9151W        W26675   3.683   8.546   5.530  0.0794 -0.1315 -0.2797
 9152W        W26676   7.101  10.983  11.288 -0.1068  0.0975  0.0993
 9153W        W26677   6.188  13.389  10.693 -0.1790  0.2822  0.0209
 9154W        W26678  15.513   2.165   4.323 -0.0523 -0.0283 -0.1937
 9155W        W26679   7.687   0.042   5.410  0.2415  0.2343 -0.0675
 9156W        W26680   4.673   6.602  13.313 -0.1547  0.1721 -0.0994
 9157W        W26681   2.130   0.172   1.553  0.2667  0.0151 -0.1154
 9158W        W26682  13.896  13.575  15.486  0.2055  0.0301 -0.0279
 9159W        W26683   5.861   1.618   5.459  0.0878  0.1447  0.1167
 9160W        W26684  16.396   0.445   1.272 -0.0381  0.0275 -0.0966
 9161W        W26685   7.813  15.540   0.113  0.1668  0.0356  0.1079
 9162W        W26686   3.953   3.152   1.850 -0.0672 -0.0803  0.4706
 9163W        W26687  15.448  13.013   0.935 -0.2114 -0.1443 -0.1407
 9164W        W26688  15.607  18.053  12.063 -0.0524  0.1655  0.4899
 9165W        W26689   6.392  16.938  14.373 -0.3535  0.1206 -0.1349
 9166W        W26690   6.958  14.948   4.395 -0.1064 -0.2428 -0.2607
 9167W        W26691   9.579  12.817  13.302 -0.0288 -0.0392  0.3973
 9168W        W26692   7.100  14.034   1.750 -0.0784  0.2941  0.1131
 9169W        W26693   8.462   3.019  13.220 -0.0355 -0.2156 -0.2600
 9170W        W26694   1.540  11.498   2.280 -0.2955 -0.1578 -0.3615
 9171W        W26695  11.088   3.387  12.142 -0.2962 -0.0644 -0.3268
 9172W        W26696   3.903   1.671  15.510  0.2875  0.2473  0.0663
 9173W        W26697   0.597  12.112  12.090 -0.3970 -0.0827  0.3232
 9174W        W26698  13.518   6.233   5.302 -0.1144 -0.0522  0.2377
 9175W        W26699  15.035   7.094  11.576 -0.4192 -0.0216  0.2780
 9176W        W26700  12.249  13.520   3.985  0.0911 -0.2330  0.1510
 9177W        W26701  11.735   1.596  13.313  0.1469 -0.1506 -0.1756
 9178W        W26702   0.122   0.341   0.647 -0.1298 -0.0173  0.1341
 9179W        W26703   1.664  15.312   4.900  0.1257  0.2669  0.1154
 9180W        W26704  10.466  16.258   0.630  0.0874  0.3653 -0.0836
 9181W        W26705   7.817   9.250   2.003  0.1095  0.0690 -0.0236
 9182W        W26706   2.967   3.161   4.939  0.4747 -0.1621 -0.0647
 9183W        W26707  12.598   9.896  11.669 -0.1194  0.0744 -0.0195
 9184W        W26708  11.866  17.753  12.097  0.2156 -0.2020 -0.1838
 9185W        W26709   7.004  10.584   2.548  0.0868 -0.1312 -0.1811
 9186W        W26710   6.644   2.468  14.139 -0.2805  0.1805 -0.2873
 9187W        W26711   4.359  17.299  15.479 -0.1210  0.1156 -0.1262
 9188W        W26712   8.518  11.487   4.109  0.2420 -0.1187 -0.2546
 9189W        W26713  14.417  11.630  13.701  0.1492  0.3930  0.0589
 9190W        W26714   5.107   3.763  13.104  0.2308 -0.0172 -0.0636
 9191W        W26715   2.232   2.516   1.571  0.1279 -0.1933 -0.1336
 9192W        W26716   2.613  17.743   2.864  0.3155  0.1356  0.0449
 9193W        W26717  11.789  13.801   3.990  0.1889  0.4812  0.1653
 9194W        W26718   5.488  12.200   4.347  0.0614  0.2030 -0.0097
 9195W        W26719  17.634   8.472  13.362 -0.0883  0.1850  0.0329
 9196W        W26720  10.408   5.779  13.684  0.2625  0.1593 -0.1969
 9197W        W26721  15.314   5.480   0.021  0.1491  0.0834 -0.0672
 9198W        W26722  12.546   1.336  10.627 -0.0243 -0.0262 -0.1638
 9199W        W26723   0.881   0.733   5.081 -0.0172 -0.0727 -0.0576
 9200W        W26724  11.048  16.301  13.502 -0.1551 -0.0570 -0.0102
 9201W        W26725   0.559  15.084   4.813  0.0357  0.2203  0.3921
 9202W        W26726  14.293  15.337  14.603  0.0303  0.0449 -0.1954
 9203W        W26727  12.743   2.346  16.058 -0.2612  0.1355  0.2139
 9204W        W26728  16.124   7.272  12.766 -0.2333 -0.4061  0.0147
 9205W        W26729  11.736   4.982  12.904 -0.2692  0.0776 -0.0509
 9206W        W26730   7.996  15.236   0.643  0.0734  0.0179 -0.1162
 9207W        W26731  13.198  10.271  13.199 -0.4962 -0.1112  0.0395
 9208W        W26732   5.532   8.887   1.291 -0.4114 -0.2076 -0.3537
 9209W        W26733  16.202   7.247   1.272 -0.2000  0.2994  0.2435
 9210W        W26734  16.139   4.866  13.655 -0.0222 -0.2287  0.0013
 9211W        W26735   4.487  12.618  15.078  0.0604 -0.2236 -0.2776
 9212W        W26736   7.673  14.253   0.339 -0.1298 -0.3068  0.0318
 9213W        W26737  16.025   9.386  15.727 -0.3537  0.2640  0.0176
 9214W        W26738  17.604  16.813  14.705  0.0065 -0.1247 -0.0961
 9215W        W26739  15.186  17.228   0.075  0.0922  0.1428 -0.2639
 9216W        W26740   0.064  11.723   2.076  0.1654 -0.0412  0.1745
 9217W        W26741   1.246   3.841   3.482  0.1419 -0.0873 -0.2411
 9218W        W26742  12.572   3.000   2.166 -0.0824 -0.1017  0.2690
 9219W        W26743  15.595  15.192  13.868  0.0510  0.2513 -0.0031
 9220W        W26744   1.464  17.473  11.576 -0.2810  0.0210 -0.0923
 9221W        W26745   4.507  11.520  11.806  0.1541  0.0204  0.0259
 9222W        W26746  11.255   6.022   5.151  0.0589  0.0987 -0.1412
 9223W        W26747  15.618  16.069   5.232  0.1677 -0.1409 -0.1901
 9224W        W26748   3.061   6.555   2.507  0.2384  0.2458  0.0606
 9225W        W26749   0.894  11.659  12.817 -0.1996  0.2625 -0.2580
 9226W        W26750   2.105   6.310   0.004  0.2262  0.1309 -0.4988
 9227W        W26751  16.931  12.158   4.841  0.0834 -0.1031 -0.3709
 9228W        W26752  17.995   4.205  13.707 -0.0778 -0.0433  0.2296
 9229W        W26753   8.271   8.855   1.060 -0.0267  0.1321 -0.0284
 9230W        W26754  11.701   6.391  13.623  0.0688 -0.0040 -0.2365
 9231W        W26755   4.611   1.876   2.175  0.1333 -0.2045 -0.1806
 9232W        W26756   6.320   3.062  12.474 -0.1059  0.1338 -0.3877
 9233W        W26757   9.307  13.017   1.349  0.0394  0.0623  0.0944
 9234W        W26758   5.106   5.826  13.478  0.0780 -0.0867  0.2560
 9235W        W26759   3.609   0.653  15.388  0.1864  0.2794 -0.1734
 9236W        W26760   9.263   9.291  13.640 -0.0688 -0.1775 -0.2615
 9237W        W26761  12.076   8.512  12.680  0.0623  0.0295  0.0968
 9238W        W26762   2.838  13.453   1.514  0.3970 -0.1960 -0.0805
 9239W        W26763   5.913  12.752   3.786  0.2191  0.0459 -0.1925
 9240W        W26764   3.328   8.912   2.257  0.3567 -0.4406  0.0159
 9241W        W26765   5.704  17.557   1.202 -0.1845  0.1121 -0.1714
 9242W        W26766   7.511   5.733   2.470 -0.1821 -0.0433 -0.0627
 9243W        W26767  13.328   2.123   2.293  0.0063  0.0172 -0.2784
 9244W        W26768  15.868   7.164   0.176 -0.0070  0.1631 -0.0842
 9245W        W26769   2.108   4.953  13.927  0.0313  0.0482 -0.4440
 9246W        W26770   7.991  16.067  12.213  0.3124  0.0111  0.1614
 9247W        W26771  17.782  13.624   4.762  0.1667 -0.0327  0.0269
 9248W        W26772   4.758   2.091   4.309  0.2876  0.1318  0.0718
 9249W        W26773   4.905   3.973  15.345  0.0344 -0.3598 -0.0261
 9250W        W26774  10.477   6.097   0.727 -0.0160  0.3823  0.2369
 9251W        W26775  11.933  10.969   5.610  0.2302 -0.1338  0.1433
 9252W        W26776   1.808   5.658   2.076 -0.0828 -0.1213 -0.1883
 9253W        W26777  16.287  10.805  10.715 -0.0628  0.3049  0.1907
 9254W        W26778  11.330   7.522  12.843  0.2012 -0.1013  0.0354
 9255W        W26779  16.641   1.313   0.849  0.0008 -0.1403  0.0829
 9256W        W26780   6.845   3.960  12.211 -0.0969 -0.1882 -0.0452
 9257W        W26781  17.455  10.416   1.567 -0.0497 -0.2112  0.1748
 9258W        W26782  15.611  14.291  14.904 -0.1995 -0.2442 -0.3045
 9259W        W26783  14.558   6.368   1.880  0.0506 -0.0427  0.0467
 9260W        W26784   2.058  12.683   3.965 -0.3711  0.1296  0.1287
 9261W        W26785   0.297  14.317   2.256  0.0839  0.1030 -0.2210
 9262W        W26786   9.956  10.991  14.453 -0.1889 -0.3123  0.0992
 9263W        W26787   3.220   6.838  14.397  0.4073  0.0171  0.0709
 9264W        W26788  12.807  15.388  14.501  0.0714  0.1418 -0.1458
 9265W        W26789   2.593   5.310   4.930 -0.0541  0.1325  0.3296
 9266W        W26790   6.610   3.565  11.624  0.0826  0.0094  0.1020
 9267W        W26791   8.027   7.368  11.518 -0.1033  0.3456 -0.2309
 9268W        W26792   3.438  13.842   2.596 -0.1979  0.1706 -0.2309
 9269W        W26793   6.646   6.885  15.189 -0.0483  0.0744  0.0373
 9270W        W26794  16.786  14.896   0.744  0.1371 -0.0721  0.2494
 9271W        W26795   2.633  13.967   2.332  0.0652 -0.1142  0.2364
 9272W        W26796   3.395   9.962   3.106  0.0457 -0.1040  0.0040
 9273W        W26797  10.744   3.392  14.854 -0.4036  0.2021 -0.0559
 9274W        W26798  13.663   0.888  13.273  0.2248 -0.2742  0.0843
 9275W        W26799   5.168  17.840   0.273  0.1305 -0.0986  0.1541
 9276W        W26800   8.156  15.365   1.560 -0.1020 -0.0094 -0.0683
 9277W        W26801   4.341  14.078  12.199  0.2269 -0.1760 -0.0583
 9278W        W26802  18.026  16.445   4.482 -0.1484  0.3684  0.5892
 9279W        W26803   5.209  11.533   2.733  0.0167  0.1148  0.1930
 9280W        W26804  14.725  13.367   2.989  0.2363  0.0171 -0.1219
 9281W        W26805  11.008   1.180   3.076  0.1002  0.1325 -0.0667
 9282W        W26806   6.027  11.017   2.590  0.1346  0.1348 -0.4270
 9283W        W26807   5.564  10.100   1.580  0.0280 -0.2817 -0.6116
 9284W        W26808   0.990   0.250  14.625 -0.0566 -0.0194  0.1623
 9285W        W26809   8.352   0.411   0.172  0.1207 -0.2594  0.0632
 9286W        W26810   8.232   1.317  15.479 -0.0792 -0.1481  0.2822
 9287W        W26811   4.005   7.906  15.669  0.1817 -0.0916 -0.0130
 9288W        W26812   2.057  11.669  11.584  0.1613 -0.2039 -0.3083
 9289W        W26813   2.147   9.573  10.826  0.1483 -0.1021  0.0845
 9290W        W26814   7.562   9.138   3.029  0.2831 -0.2092  0.1003
 9291W        W26815   8.775   8.720  15.209 -0.3505 -0.0644 -0.0487
 9292W        W26816   7.406   6.515   0.234  0.2923 -0.2399  0.0171
 9293W        W26817  15.303  10.610   1.577  0.3218  0.0677 -0.0241
 9294W        W26818   8.486   7.971   0.871  0.0019 -0.0209  0.0843
 9295W        W26819  17.447   3.439   4.223  0.1120  0.3400 -0.2403
 9296W        W26820  12.584  16.357   4.273  0.0372  0.0789  0.1177
 9297W        W26821   6.751  14.638  16.024  0.0408 -0.3045  0.0591
 9298W        W26822   9.538   4.887  15.755 -0.0183 -0.0539  0.2763
 9299W        W26823  14.873  17.466  14.008  0.0202  0.2494 -0.3782
 9300W        W26824   4.763   8.464  14.360  0.3561  0.1184 -0.0547
 9301W        W26825   1.249   8.463   0.268  0.3213 -0.0381  0.2500
 9302W        W26826  10.976   3.094  12.968  0.1374  0.0856 -0.4163
 9303W        W26827  15.929   9.130   2.712 -0.1814  0.1362 -0.0037
 9304W        W26828   4.972  11.426  11.649 -0.1026  0.3268 -0.1881
 9305W        W26829   2.984   6.183   1.490  0.3038 -0.0564  0.0365
 9306W        W26830  11.473  17.659  12.496 -0.2922 -0.1533  0.0990
 9307W        W26831   0.692  12.834  15.283 -0.3250  0.1518  0.2576
 9308W        W26832  13.774   3.838  14.541  0.1016  0.1863  0.0762
 9309W        W26833  15.624  14.491   4.750  0.1859  0.1172  0.2214
 9310W        W26834   6.068   5.973  13.955  0.1401  0.2948  0.1048
 9311W        W26835   1.539  17.281  13.241 -0.1342  0.0460 -0.0383
 9312W        W26836   7.585   1.791   0.058 -0.0900 -0.2084 -0.4282
 9313W        W26837  10.613   1.447  13.531 -0.0321 -0.0706  0.0089
 9314W        W26838  13.502   3.011   1.286 -0.0791 -0.0865  0.0485
 9315W        W26839   0.786  17.220   2.077  0.2490  0.0405  0.1825
 9316W        W26840  14.594   2.334  11.949 -0.0259 -0.1681  0.0642
 9317W        W26841  12.782  13.004  13.044  0.1154 -0.1492  0.1413
 9318W        W26842   5.934  16.152   5.128  0.0302  0.1521  0.0016
 9319W        W26843   8.890  10.614  14.330  0.0322  0.0254  0.1981
 9320W        W26844  16.120  16.759  15.287 -0.0006  0.0110  0.0825
 9321W        W26845   8.407   6.837  14.296 -0.0003 -0.0059 -0.1492
 9322W        W26846   7.522   1.854   5.537  0.0514 -0.1144  0.0771
 9323W        W26847  11.629   6.390  10.439 -0.1170 -0.2722  0.2453
 9324W        W26848   2.598   9.193  12.709  0.1508 -0.1339 -0.0892
 9325W        W26849  17.631  15.208   1.102 -0.0973  0.0903  0.1223
 9326W        W26850  11.605  13.692   0.616  0.3644  0.1916  0.1910
 9327W        W26851  13.704  11.148   3.592 -0.1348 -0.3189 -0.0497
 9328W        W26852  15.021   6.390  12.235 -0.2045 -0.4197  0.1287
 9329W        W26853   8.874  16.184  13.975 -0.0006 -0.1674 -0.4865
 9330W        W26854   4.478   2.147  14.943 -0.2011 -0.0594  0.1972
 9331W        W26855   5.214  14.822   4.095  0.0882  0.3688 -0.1569
 9332W        W26856  14.162   7.826   1.396 -0.0525  0.1433  0.4559
 9333W        W26857   2.057   6.031   3.141  0.0780 -0.5808 -0.2428
 9334W        W26858  13.760   5.281   2.357 -0.0655  0.1715 -0.0332
 9335W        W26859  11.931  10.274  14.046  0.3683 -0.1610 -0.3059
 9336W        W26860   4.475   3.132  10.660 -0.0442 -0.1782 -0.1142
 9337W        W26861  15.496  15.539  13.471 -0.2432 -0.0916 -0.0337
 9338W        W26862  15.092   1.429   2.641  0.2354 -0.0861  0.2172
 9339W        W26863  10.651   8.785  13.351 -0.3858  0.0569  0.2697
 9340W        W26864   1.417  11.480  14.961  0.0058 -0.1453 -0.1449
 9341W        W26865  10.069  14.337   0.600  0.3057 -0.1783 -0.1801
 9342W        W26866   0.857  14.662  11.895  0.0588  0.1954  0.1061
 9343W        W26867  14.869   9.343  15.133  0.2383  0.3067  0.1176
 9344W        W26868   7.621  15.189  15.828 -0.0032  0.1323  0.0319
 9345W        W26869   7.066   9.281  10.923  0.2378  0.0157  0.1764
 9346W        W26870  12.820  11.570  15.535 -0.0025  0.0691  0.0117
 9347W        W26871   5.399  12.610   1.474 -0.0823 -0.2255  0.1036
 9348W        W26872  11.319   3.941   5.310  0.0368 -0.1450 -0.0035
 9349W        W26873   2.248  10.084  13.465 -0.0356 -0.4761 -0.1352
 9350W        W26874   2.165   3.424  12.008  0.1178 -0.0420 -0.1675
 9351W        W26875   7.137  16.471   0.785  0.0947 -0.2689  0.1664
 9352W        W26876  17.220  14.216   1.399  0.3741 -0.1362  0.0780
 9353W        W26877  10.110   5.335  13.906 -0.0867  0.0289  0.0476
 9354W        W26878   4.074   3.431  15.083  0.1301  0.2264  0.0315
 9355W        W26879   2.749   6.769   2.870 -0.3394  0.1440  0.0358
 9356W        W26880  17.947  16.291   3.602 -0.2715 -0.2481 -0.1116
 9357W        W26881  14.455  17.696  13.066 -0.1191  0.0972  0.1045
 9358W        W26882  16.842  12.114   3.411  0.3178  0.0366 -0.2358
 9359W        W26883  14.959  12.804  15.101 -0.3176 -0.1019  0.1001
 9360W        W26884  17.593   5.813  11.609  0.0497  0.2523  0.1028
 9361W        W26885   3.212  11.523  11.839  0.1480 -0.0233 -0.2214
 9362W        W26886   5.200  14.621   2.811  0.0772 -0.1500 -0.1075
 9363W        W26887  17.206   4.815   1.332 -0.1451 -0.1145  0.3181
 9364W        W26888   8.255   8.750  12.508 -0.0668 -0.1175  0.2581
 9365W        W26889  13.498  13.886   5.023  0.1737  0.0139 -0.3690
 9366W        W26890   7.683   2.554   2.116 -0.1630 -0.0010 -0.0882
 9367W        W26891   0.740  16.827  10.749 -0.0294  0.1823  0.0884
 9368W        W26892  17.711   4.914  11.098 -0.1359 -0.2006  0.0320
 9369W        W26893   7.373   8.214  15.444 -0.1697 -0.2488  0.1186
 9370W        W26894   3.043  14.203   2.640  0.1779 -0.1290  0.0060
 9371W        W26895   9.601  13.923   4.879 -0.1720  0.0880 -0.1337
 9372W        W26896  14.214  12.360   3.798  0.0621  0.1670 -0.3124
 9373W        W26897  12.527  16.985   0.551  0.2791  0.2634  0.0583
 9374W        W26898  16.081  11.708  14.836 -0.5732  0.0264  0.0569
 9375W        W26899  17.203  10.497   2.847 -0.2640  0.3254  0.2339
 9376W        W26900   6.162   2.342  14.307  0.1077 -0.2035  0.1601
 9377W        W26901   4.321   7.062   1.351 -0.3000  0.2375 -0.2748
 9378W        W26902   8.772   1.331   3.021  0.1335 -0.0467 -0.2242
 9379W        W26903  14.007   2.939   3.528  0.2741 -0.1379 -0.0831
 9380W        W26904  15.521  12.954   0.161  0.0157 -0.0433 -0.1790
 9381W        W26905   3.325  17.554  15.573  0.1001  0.1996  0.2256
 9382W        W26906   4.650  15.358   2.902  0.4526  0.4182 -0.1500
 9383W        W26907  11.495   4.938   3.854 -0.3162  0.0970 -0.0430
 9384W        W26908   5.860   4.130  14.780 -0.0842  0.1424 -0.1076
 9385W        W26909   4.629   1.105  11.078 -0.0123  0.2289 -0.1031
 9386W        W26910   9.411  17.632  11.946 -0.0477 -0.0101  0.2098
 9387W        W26911   9.952  17.515   1.415 -0.0708  0.0355  0.0668
 9388W        W26912  14.043  13.506  11.676  0.1693  0.0773 -0.0280
 9389W        W26913   2.128   0.906   3.140  0.1479 -0.0620 -0.3532
 9390W        W26914  13.091   9.511   2.915 -0.1814  0.3427 -0.2277
 9391W        W26915   1.415   1.147   1.877 -0.1139 -0.2895  0.1493
 9392W        W26916  16.301  16.436  11.548  0.1586 -0.0903  0.1169
 9393W        W26917  12.344   0.670   3.514  0.1763  0.0817 -0.2103
 9394W        W26918   9.571   4.802  13.149  0.1214 -0.4655 -0.1273
 9395W        W26919  17.628  12.651  11.938  0.2102  0.0957  0.0315
 9396W        W26920  16.136   2.485   2.535 -0.0900 -0.2431 -0.0497
 9397W        W26921  14.960  17.414  14.977  0.0946  0.0520  0.1128
 9398W        W26922   3.453   4.976   3.509  0.2362 -0.0329  0.1253
 9399W        W26923   7.048   7.234   4.885 -0.3399 -0.3266  0.2297
 9400W        W26924  14.844  17.518  15.874  0.2714 -0.0362  0.0235
 9401W        W26925  17.879  12.015   2.307 -0.2889  0.0694  0.2875
 9402W        W26926  15.361  16.968   3.819  0.0810 -0.1754 -0.2746
 9403W        W26927  17.916  16.937   0.809 -0.2033  0.2097 -0.0566
 9404W        W26928   2.145  14.566  13.548  0.1406  0.0386 -0.0113
 9405W        W26929   7.131  11.115   4.948  0.1304  0.0972 -0.3422
 9406W        W26930   8.492   9.376  15.932 -0.1104  0.1116 -0.0874
 9407W        W26931  14.072   8.190  11.365 -0.2192  0.1304  0.4773
 9408W        W26932  13.791   9.542   1.647  0.0535  0.0866 -0.1305
 9409W        W26933   5.023  12.633   1.967 -0.1713  0.1877  0.1703
 9410W        W26934  18.094  10.065   1.395 -0.0887 -0.1762 -0.1183
 9411W        W26935   9.690  13.160  11.864 -0.0176  0.0665  0.0104
 9412W        W26936   5.581   8.558   3.490 -0.2651 -0.0796 -0.1569
 9413W        W26937   2.522   0.776   5.470  0.2532  0.0194  0.0798
 9414W        W26938   2.636  11.872  11.337 -0.1126 -0.1210 -0.4503
 9415W        W26939  14.443   7.285   3.207  0.0889 -0.0198  0.2056
 9416W        W26940   7.542   8.714   0.275  0.1334 -0.0178  0.0024
 9417W        W26941  15.977  13.022   4.059  0.0275  0.0708 -0.0957
 9418W        W26942   5.225   5.697  15.812  0.1434 -0.1629 -0.0901
 9419W        W26943  15.678   8.770   2.103 -0.1291 -0.0294 -0.0232
 9420W        W26944   6.295   7.186   1.797 -0.2450  0.0089 -0.3696
 9421W        W26945  10.221  13.111   2.033  0.0819  0.1127  0.1961
 9422W        W26946   4.203   2.733   2.116 -0.2550 -0.0337 -0.0809
 9423W        W26947  15.502   0.730  11.217  0.1058 -0.1997  0.1940
 9424W        W26948   8.978   3.628   4.278  0.1206  0.2911 -0.0393
 9425W        W26949   9.440   0.104  14.161 -0.0409  0.3623 -0.1296
 9426W        W26950   2.614   0.295  11.433  0.1110 -0.2121  0.1500
 9427W        W26951  15.182  15.797  12.958 -0.0931  0.0356  0.0915
 9428W        W26952  13.529   8.527   2.557 -0.1446  0.0191 -0.0008
 9429W        W26953   1.141  13.754   3.042 -0.2633  0.1581 -0.1796
 9430W        W26954  17.888   4.306   4.036  0.1874 -0.1491 -0.0325
 9431W        W26955  10.064  15.607   2.871  0.0894 -0.3055 -0.1976
 9432W        W26956  11.632   0.506  15.240 -0.1768  0.1107 -0.1013
 9433W        W26957   6.594  11.721  10.892  0.0592 -0.3523  0.0557
 9434W        W26958  17.466   8.023  14.140  0.1996 -0.1811 -0.0595
 9435W        W26959  13.164   9.936  13.562  0.0754  0.0560 -0.3143
 9436W        W26960   0.003   1.799   4.847 -0.0082  0.6089  0.4434
 9437W        W26961  11.798  14.661  12.874 -0.1498 -0.0676  0.0829
 9438W        W26962   5.509   7.799  13.518 -0.0073  0.0911 -0.0654
 9439W        W26963  15.195  16.312  14.322 -0.0858  0.1539  0.0604
 9440W        W26964  13.350   5.676  12.093 -0.2074  0.2216  0.1134
 9441W        W26965   3.362   1.614  15.688 -0.2174  0.0577  0.0908
 9442W        W26966   7.194  13.487  11.540 -0.0934  0.0602 -0.0589
 9443W        W26967   5.364   4.328  14.846  0.0392 -0.1579 -0.1327
 9444W        W26968   5.926   5.882   1.539  0.2580 -0.3434  0.0607
 9445W        W26969  13.010   6.534   5.123 -0.1105  0.0260 -0.0630
 9446W        W26970   5.351   7.684   4.922  0.3004  0.0195  0.1072
 9447W        W26971  14.308   1.160  11.348 -0.4350 -0.0072 -0.1356
 9448W        W26972   4.817   5.265   0.539  0.0800 -0.0111 -0.1347
 9449W        W26973   5.923  10.193  12.459  0.1036  0.0884  0.1584
 9450W        W26974  13.354  16.266   2.932 -0.1089  0.0698 -0.1730
 9451W        W26975  17.539  14.747  15.882  0.0114 -0.1555 -0.1983
 9452W        W26976  11.281   5.067  15.144 -0.1756  0.0359 -0.2847
 9453W        W26977  17.352   9.685   0.843 -0.2723  0.1131 -0.3192
 9454W        W26978   6.408  12.645   0.547  0.2589 -0.4138 -0.2000
 9455W        W26979  17.441   3.693  14.955  0.0426 -0.1450  0.1706
 9456W        W26980  17.934  17.925  15.178 -0.1345  0.0468 -0.0052
 9457W        W26981   8.908   0.918   0.684  0.0212 -0.3132 -0.2674
 9458W        W26982   0.209  12.229   1.351 -0.2476  0.1378 -0.1650
 9459W        W26983   7.233  10.844  15.910 -0.0385 -0.3253 -0.1030
 9460W        W26984  10.575   9.330   3.739 -0.0713  0.0509 -0.0364
 9461W        W26985  10.330   4.324  12.860 -0.0848 -0.2051  0.0633
 9462W        W26986  13.416  12.203   2.176 -0.3114  0.0825 -0.3499
 9463W        W26987  12.185  16.468  16.057 -0.0497 -0.1114 -0.0800
 9464W        W26988   0.581  16.408   3.793 -0.1071  0.1451 -0.0434
 9465W        W26989   7.485   6.646   1.004 -0.0465 -0.0323 -0.0015
 9466W        W26990   5.961   0.107  13.103 -0.1770  0.0865 -0.1042
 9467W        W26991   7.851  14.449  12.222 -0.0602 -0.1934 -0.1782
 9468W        W26992  13.600   8.502  15.138  0.6642 -0.0417  0.5032
 9469W        W26993  18.011  11.534  14.208 -0.0652 -0.4870 -0.0765
 9470W        W26994  13.364   9.692  12.263 -0.0647 -0.0435  0.2653
 9471W        W26995  13.718   3.542  12.647 -0.1345 -0.1432  0.1108
 9472W        W26996  11.255   5.610  12.361  0.2741  0.1036  0.0763
 9473W        W26997   6.239   3.474  11.166  0.3290 -0.1788 -0.2606
 9474W        W26998  10.170   4.842   1.168 -0.2524  0.1816  0.3335
 9475W        W26999   1.458  13.901  14.320  0.1571 -0.2553 -0.0599
 9476W        W27000   5.887  11.794  11.798 -0.0494  0.1309 -0.1011
 9477W        W27001   7.381   1.302   0.976  0.0987 -0.1313 -0.1626
 9478W        W27002   8.351  14.808  13.426  0.0523 -0.1104 -0.4101
 9479W        W27003   1.220   5.499  10.813 -0.3328  0.2745 -0.0863
 9480W        W27004   6.233  13.092  14.394 -0.2036 -0.5752 -0.0669
 9481W        W27005   3.371   9.792   4.776 -0.0604  0.2556  0.2337
 9482W        W27006  17.652   3.153   2.831  0.0660  0.0094  0.0602
 9483W        W27007  15.408  14.843  13.498 -0.1493  0.2362 -0.1378
 9484W        W27008  12.459   9.077   2.251 -0.1144 -0.3437  0.0896
 9485W        W27009   3.224   1.654   5.588 -0.1440 -0.1467  0.0289
 9486W        W27010   1.554   9.473   1.392  0.2823  0.1309 -0.1388
 9487W        W27011   1.059   3.243  13.464 -0.1522  0.1985  0.2145
 9488W        W27012   5.742   1.907  14.792 -0.0427 -0.1357 -0.2674
 9489W        W27013  12.347  10.787  12.119  0.1111 -0.2119 -0.1439
 9490W        W27014  15.009   3.050   3.765  0.1071 -0.1859  0.0742
 9491W        W27015   1.015   3.507   4.676  0.1545  0.0305 -0.0180
 9492W        W27016   5.656   9.005  11.968  0.2439  0.0670  0.0314
 9493W        W27017  11.479   2.703   0.909  0.3207 -0.1939 -0.0759
 9494W        W27018   4.262   5.557   1.269 -0.1678  0.2528 -0.1621
 9495W        W27019   6.539   7.769  13.283  0.3182 -0.2943 -0.1167
 9496W        W27020   0.702  11.843  14.411  0.0368 -0.2760 -0.0119
 9497W        W27021  15.884  15.123   2.097  0.0709 -0.1362 -0.1324
 9498W        W27022  11.077   5.161  14.109 -0.2031  0.0230 -0.0722
 9499W        W27023   9.487   0.686   3.196  0.0195 -0.0537 -0.0098
 9500W        W27024  10.405  16.800   1.645 -0.2769  0.2341  0.1986
 9501W        W27025   1.155  17.902  11.461  0.0714  0.0511  0.2515
 9502W        W27026   4.795   3.987   4.688  0.0868  0.0618 -0.3872
 9503W        W27027   1.786   4.427   1.910 -0.0367  0.3200 -0.2149
 9504W        W27028  13.967   3.747  15.989 -0.0284  0.1755  0.0346
 9505W        W27029   4.803   6.933  13.690 -0.1099 -0.0963  0.2837
 9506W        W27030  16.376  15.411  14.085 -0.0820 -0.1281  0.1028
 9507W        W27031   8.634   9.729   1.398 -0.0457 -0.1486  0.0931
 9508W        W27032   8.049  15.091  13.102 -0.0822 -0.0097  0.0586
 9509W        W27033  10.434   1.530   1.812 -0.1836 -0.1003  0.3870
 9510W        W27034   6.110  13.216  12.161 -0.0638 -0.2481  0.3049
 9511W        W27035  16.170  14.884   2.872  0.1807 -0.2293  0.0101
 9512W        W27036   6.823  15.120  15.574  0.0339  0.4029 -0.1597
 9513W        W27037   4.848   2.322  14.245 -0.0364 -0.1711 -0.2001
 9514W        W27038  15.586   4.996  14.410 -0.1090 -0.1097 -0.1048
 9515W        W27039   5.157  15.308  11.309 -0.0484 -0.2273 -0.0718
 9516W        W27040   2.010  13.155   3.069  0.1037 -0.0120  0.2641
 9517W        W27041   0.827   4.542   5.320 -0.3625 -0.1969 -0.1820
 9518W        W27042   9.193   1.076  10.595 -0.4192 -0.1959 -0.0573
 9519W        W27043  15.606   9.349   4.594  0.1408 -0.0800  0.1066
 9520W        W27044   5.309   3.225   3.804 -0.1723 -0.2550 -0.3835
 9521W        W27045  11.369   8.994   0.668 -0.0666 -0.0683 -0.0343
 9522W        W27046   3.520   1.416  11.402 -0.0451  0.2118 -0.0478
 9523W        W27047   6.181   1.991  12.218  0.2214  0.1036  0.1619
 9524W        W27048   6.512   0.198  11.979 -0.3239  0.2263  0.0577
 9525W        W27049   7.039  13.907  13.224 -0.2415  0.1021  0.7456
 9526W        W27050   1.820  10.940  13.396 -0.0075  0.0303  0.0216
 9527W        W27051  17.497   4.672   0.280  0.0103 -0.0612  0.0919
 9528W        W27052   0.705   1.426  12.312  0.0720 -0.3161  0.2232
 9529W        W27053   8.823  12.971  16.044  0.1024  0.1562  0.0235
 9530W        W27054   1.399   7.817   0.714 -0.0577 -0.2402  0.1672
 9531W        W27055  15.474  10.877   2.490 -0.0871  0.0153  0.0140
 9532W        W27056   3.025   1.189  14.696  0.1475  0.0104 -0.0605
 9533W        W27057  13.105   6.009  12.800  0.0607 -0.0899  0.2186
 9534W        W27058   9.825   1.339   0.677 -0.0314  0.0709  0.3016
 9535W        W27059   8.648  13.369   3.208 -0.2680  0.0273 -0.1510
 9536W        W27060   3.059   7.097   4.313  0.0107 -0.1629  0.0126
 9537W        W27061   6.608  16.463  13.250 -0.0309  0.3103  0.0078
 9538W        W27062  16.405  16.879  11.401  0.2333 -0.1018  0.3403
 9539W        W27063  13.621  10.288  13.600  0.2434 -0.0165  0.1644
 9540W        W27064   6.949   2.276   2.946  0.1806 -0.1129  0.5768
 9541W        W27065   2.078   4.677   3.381 -0.1229  0.0780  0.0264
 9542W        W27066  13.077   3.470   0.526 -0.1704 -0.0375 -0.0584
 9543W        W27067   1.352  14.403  10.644  0.0291  0.2817  0.0901
 9544W        W27068   5.027  15.145   2.036 -0.0333  0.0947  0.1544
 9545W        W27069   2.771   5.932  13.331 -0.1971  0.1687 -0.4893
 9546W        W27070   2.150  17.300  11.737 -0.1566  0.0724  0.1620
 9547W        W27071  17.593  12.674   3.027 -0.3541  0.1032 -0.2718
 9548W        W27072   0.905   6.600  11.348 -0.3506  0.0803 -0.4042
 9549W        W27073  14.914  14.410  13.198 -0.2860 -0.1179  0.1576
 9550W        W27074   3.222  14.627  10.572 -0.0554 -0.2228  0.0216
 9551W        W27075   0.274   1.763  11.119  0.0564  0.0621 -0.0671
 9552W        W27076   4.171   1.106   1.607  0.1562  0.0601  0.0180
 9553W        W27077   2.172  13.060  11.051  0.2868 -0.3503  0.1991
 9554W        W27078   0.644   3.684  11.702  0.0030 -0.1085 -0.0349
 9555W        W27079   8.550  11.280  12.111 -0.1773 -0.2323  0.0265
 9556W        W27080  17.481  16.744   5.943 -0.0517  0.0735  0.2789
 9557W        W27081   8.800   2.641  14.455 -0.1407 -0.0329 -0.3951
 9558W        W27082  11.741  15.624  14.759 -0.0113  0.0826 -0.4015
 9559W        W27083   2.981   0.792   4.769 -0.0382 -0.0796  0.0303
 9560W        W27084  12.813   9.762  15.400 -0.0453  0.1701 -0.1259
 9561W        W27085  16.101  12.231   4.528 -0.1600 -0.1185  0.3335
 9562W        W27086   2.780  14.378   3.245  0.0667 -0.2296  0.2659
 9563W        W27087   0.075   1.049  15.574  0.3817  0.1098 -0.2853
 9564W        W27088  17.176   8.197  15.222  0.0579 -0.1695 -0.2015
 9565W        W27089   1.227   2.771   0.830  0.1446  0.0894  0.1842
 9566W        W27090  14.761   7.776   1.090  0.2446 -0.0523 -0.0161
 9567W        W27091   0.345   4.948  14.376 -0.0365  0.0290  0.0823
 9568W        W27092   6.902   1.420   3.168  0.0611 -0.1557 -0.2979
 9569W        W27093  12.479   7.819  14.902  0.1294 -0.2637 -0.1371
 9570W        W27094  10.526  16.185  15.187  0.0947 -0.4647  0.0662
 9571W        W27095  12.486  16.345   2.420  0.0098  0.3630 -0.3041
 9572W        W27096  11.480  11.152   1.550 -0.3105 -0.2308  0.1252
 9573W        W27097   2.221  12.592  14.268 -0.1667  0.1382  0.2574
 9574W        W27098   1.690   5.523  15.029 -0.2344 -0.0737 -0.1524
 9575W        W27099   9.858   3.119   2.174  0.1416 -0.1804 -0.0489
 9576W        W27100  12.775  13.063  11.678  0.1815 -0.2096  0.1533
 9577W        W27101   2.054  11.696   1.740  0.2885 -0.1051 -0.0110
 9578W        W27102   3.161  12.141   2.845  0.0918 -0.0874 -0.1445
 9579W        W27103  10.707  15.830  14.815  0.3786  0.2081 -0.0567
 9580W        W27104  10.343  16.931  13.121 -0.1643  0.0965  0.0302
 9581W        W27105   8.585   4.410   2.967  0.1124  0.0570 -0.7631
 9582W        W27106   1.638  10.051   3.576 -0.1473  0.0264 -0.1676
 9583W        W27107   0.333   2.018   4.436 -0.3817 -0.1526  0.0020
 9584W        W27108   2.832  11.850   2.113  0.0628  0.0461  0.1098
 9585W        W27109  16.090   9.782   4.881 -0.2157  0.0628 -0.2435
 9586W        W27110  10.633   2.441  15.426  0.2438  0.0769  0.3028
 9587W        W27111  11.909  16.198   1.281  0.1099 -0.0705  0.3110
 9588W        W27112  17.505  11.187   0.899 -0.0322  0.0737  0.0436
 9589W        W27113   4.991   4.416   5.463  0.0188 -0.1918  0.0282
 9590W        W27114   2.593   5.878   0.253  0.0555 -0.1127  0.0100
 9591W        W27115  13.179   5.698  15.217  0.2361 -0.0692  0.2165
 9592W        W27116   8.896   4.012  11.041 -0.0963 -0.0481  0.0071
 9593W        W27117   0.696   9.779  14.530  0.0077  0.1923  0.1540
 9594W        W27118   0.576   0.165   1.347 -0.5146 -0.5014  0.0802
 9595W        W27119   9.315   6.421  12.592 -0.0404 -0.0041 -0.0312
 9596W        W27120  17.016   4.167   2.428  0.1951 -0.1584  0.1911
 9597W        W27121   9.636   6.089   2.756 -0.1903 -0.1190 -0.1298
 9598W        W27122  16.480   9.216  15.804  0.1375 -0.0075 -0.0989
 9599W        W27123  14.528   2.519  14.040 -0.1578 -0.1195  0.3445
 9600W        W27124   0.939  15.859  13.372  0.1425 -0.0647 -0.0700
 9601W        W27125   3.779   7.769  13.528 -0.1655 -0.3046 -0.3216
 9602W        W27126  14.535  16.961  15.342 -0.0168 -0.0539  0.0741
 9603W        W27127   9.554  11.846  14.493 -0.0335  0.0152  0.0865
 9604W        W27128   7.106   2.050  12.317  0.1010  0.0375 -0.1042
 9605W        W27129  11.555   4.894   3.188  0.2279  0.0882  0.2825
 9606W        W27130   8.906   8.912  12.781  0.4527  0.0626 -0.1428
 9607W        W27131   6.212   9.483  12.646  0.1235 -0.2133  0.1647
 9608W        W27132  16.661   6.583  13.735  0.2921  0.1315  0.2335
 9609W        W27133   4.832   0.072  14.005 -0.0120  0.3468 -0.1733
 9610W        W27134   0.981   4.587   1.616  0.3287  0.0603 -0.0462
 9611W        W27135   2.881  17.118  15.202  0.0285  0.2859 -0.2673
 9612W        W27136  12.898  10.664   1.719  0.3359 -0.0085  0.0269
 9613W        W27137  17.899   5.579   4.312 -0.2652 -0.1407 -0.1369
 9614W        W27138  17.225   3.636   2.169  0.2348 -0.0227 -0.1155
 9615W        W27139  18.012   6.654  14.688 -0.2299  0.2052 -0.0581
 9616W        W27140   9.005  15.019   0.019 -0.0582 -0.1083 -0.2546
 9617W        W27141   1.677   0.073   4.081  0.1168  0.0655  0.2815
 9618W        W27142   1.693  11.186   0.981 -0.1762  0.2057 -0.1167
 9619W        W27143   5.210   9.116   3.581  0.0003 -0.1830  0.2377
 9620W        W27144   7.305  17.432  13.549 -0.2536  0.2143 -0.0861
 9621W        W27145  12.192  15.537   4.149 -0.2957  0.1244 -0.0006
 9622W        W27146   8.473  14.839   4.863 -0.0330  0.1596  0.2587
 9623W        W27147   6.507   8.179  13.012 -0.1213  0.1389  0.0716
 9624W        W27148   1.860   8.457   1.979  0.1450  0.0098  0.1256
 9625W        W27149  15.409  16.683  11.752 -0.1790 -0.0026  0.2249
 9626W        W27150   9.689   1.247   3.634 -0.4135 -0.1880 -0.0676
 9627W        W27151   3.505  17.749   1.211  0.1715 -0.0699 -0.0137
 9628W        W27152   9.844  14.374   3.869  0.0642 -0.0314  0.1373
 9629W        W27153   0.050   1.881  14.616  0.1989  0.4884 -0.1854
 9630W        W27154  15.540   7.860  12.924 -0.2789 -0.1294  0.0462
 9631W        W27155   4.181  12.153  13.007  0.3622 -0.0999 -0.2239
 9632W        W27156   6.413   8.533   2.341 -0.1356  0.2849  0.0964
 9633W        W27157  12.260   7.792  15.341 -0.2556  0.0860 -0.0429
 9634W        W27158  17.622   3.007   1.288  0.0980 -0.1456  0.0276
 9635W        W27159   2.979   7.407  12.024  0.2378 -0.2521 -0.0796
 9636W        W27160  10.665  13.940   3.063 -0.5391  0.0719 -0.1748
 9637W        W27161  17.395   0.419   2.311  0.0378  0.0572 -0.1168
 9638W        W27162   8.986   8.408   3.246  0.2311  0.0503  0.0702
 9639W        W27163   8.994  12.916   0.473  0.0033 -0.0419  0.0428
 9640W        W27164   6.579   7.521  14.024 -0.3354 -0.1488 -0.1142
 9641W        W27165   1.099   5.348   2.505  0.0301  0.0887 -0.1754
 9642W        W27166  13.217  11.467   4.930 -0.1229 -0.4057  0.0330
 9643W        W27167  11.487   3.090   3.445  0.0613 -0.1020 -0.0296
 9644W        W27168  11.877   8.827   3.942  0.1028 -0.0758  0.1063
 9645W        W27169   6.510  15.096   1.351 -0.2435 -0.1686 -0.0765
 9646W        W27170  10.684  17.842   4.310  0.3373  0.2802  0.3823
 9647W        W27171  12.813   5.703   2.024  0.5856  0.0560  0.1951
 9648W        W27172   2.192   9.249   3.620 -0.0464 -0.1688 -0.2422
 9649W        W27173  13.836  15.257  14.769 -0.2261  0.1743  0.0426
 9650W        W27174  11.849   6.280  14.475  0.2349 -0.3946  0.1783
 9651W        W27175   4.795  10.423  10.367  0.0062  0.2677  0.1181
 9652W        W27176   7.825   1.322   0.054 -0.0774 -0.0376  0.0249
 9653W        W27177   7.390   2.306  14.633  0.3013  0.1942  0.0953
 9654W        W27178   9.548   4.217  11.657  0.3584 -0.1701  0.0243
 9655W        W27179  16.468   3.481  15.862 -0.2089 -0.0672  0.1657
 9656W        W27180   9.131   3.987  11.542 -0.1053 -0.2798 -0.0652
 9657W        W27181  11.270  12.043   0.803  0.2211  0.3234 -0.0345
 9658W        W27182  16.405   8.662   4.518 -0.2440  0.2895  0.0481
 9659W        W27183  13.981   5.567  13.208 -0.0402  0.1242 -0.0006
 9660W        W27184  13.345  13.659  15.454 -0.0511  0.0439 -0.0028
 9661W        W27185   2.016   1.025  10.966  0.1942 -0.2319 -0.1424
 9662W        W27186   5.938  15.858  13.077 -0.1124  0.0307 -0.2422
 9663W        W27187  13.860   7.356  14.266 -0.0541  0.2518 -0.0230
 9664W        W27188   8.253   3.191   4.267  0.1326  0.1019 -0.0711
 9665W        W27189   3.955   0.717  13.668  0.1873  0.0345  0.0014
 9666W        W27190   0.839  10.187   4.083 -0.0237  0.1414 -0.2396
 9667W        W27191  16.816  11.632   4.835  0.2813 -0.1160  0.0354
 9668W        W27192   2.164   9.377  12.544 -0.3660 -0.3802  0.0101
 9669W        W27193   0.121   8.413  11.082 -0.0696 -0.0257  0.1287
 9670W        W27194  15.455  10.048  15.547  0.2497 -0.1472  0.1182
 9671W        W27195  15.285   8.457   0.753 -0.2921  0.0430 -0.1178
 9672W        W27196   2.201  13.346   0.748 -0.1499  0.1954  0.0694
 9673W        W27197   1.773  12.652   1.562  0.1438 -0.1193 -0.4021
 9674W        W27198   3.289   0.987   3.006  0.3493  0.0266  0.3514
 9675W        W27199   5.621   0.441   4.446  0.0380 -0.2239  0.3224
 9676W        W27200  10.833  12.733   3.893  0.0583 -0.0859  0.0602
 9677W        W27201   9.729   5.237   2.450 -0.2444  0.1649  0.1854
 9678W        W27202   0.048  14.771   2.409  0.1585 -0.1653  0.4663
 9679W        W27203   1.040  14.487   3.028 -0.0388  0.0809  0.2303
 9680W        W27204   2.371  12.950  12.187 -0.0718 -0.1151  0.1245
 9681W        W27205  16.636  13.026  12.680 -0.0661  0.0875 -0.0283
 9682W        W27206   3.307  11.923   1.397  0.2225 -0.0104  0.0194
 9683W        W27207  17.736   8.691   0.578  0.1097 -0.0317 -0.0049
 9684W        W27208  18.102   1.045  13.595  0.0746  0.0286  0.0965
 9685W        W27209  17.583  14.820  13.407  0.0404  0.1044  0.1803
 9686W        W27210  10.914  10.984  11.487 -0.0949  0.2448 -0.1662
 9687W        W27211   0.552   0.040  13.173  0.0140  0.0238 -0.0394
 9688W        W27212  14.282   7.221  14.882  0.0865 -0.1204 -0.0780
 9689W        W27213  12.165   0.767  12.650 -0.0935 -0.1369 -0.2744
 9690W        W27214  17.615   2.845  11.478  0.1074 -0.0008 -0.2361
 9691W        W27215  16.376  10.191   4.916 -0.0502 -0.0508 -0.0639
 9692W        W27216   5.386  15.875   1.474 -0.0878  0.1005  0.1542
 9693W        W27217  14.595   6.302   5.603 -0.0434 -0.1868  0.2674
 9694W        W27218  15.690  10.250   0.316  0.0509 -0.0046 -0.0051
 9695W        W27219  17.157   8.812   4.078 -0.0188 -0.1007 -0.0881
 9696W        W27220   9.823   6.874   1.488  0.1250 -0.0615 -0.0870
 9697W        W27221   3.122  17.096  11.544  0.0463  0.1716 -0.1127
 9698W        W27222  12.785  10.447   0.397  0.0494  0.1772  0.0179
 9699W        W27223  12.721   5.143  11.844 -0.0206 -0.2326  0.0991
 9700W        W27224   4.910   4.772   1.977 -0.2078  0.2014 -0.1777
 9701W        W27225  13.098   7.286   4.423 -0.2532 -0.2345 -0.1053
 9702W        W27226  13.669   9.247  13.191 -0.0536  0.3422 -0.1549
 9703W        W27227   6.246  17.918   2.515  0.2707  0.0155 -0.0429
 9704W        W27228  16.947   9.957   0.732  0.2261  0.0481 -0.0565
 9705W        W27229  12.972   3.997  11.059  0.0051  0.2714  0.1354
 9706W        W27230   5.085  13.890  15.805  0.0356  0.0860 -0.0404
 9707W        W27231  15.070  16.803  15.852 -0.2750  0.1823 -0.1112
 9708W        W27232   8.540   8.889  10.994  0.1208  0.0883  0.3222
 9709W        W27233  11.930   3.914   2.259  0.1598 -0.0062  0.2033
 9710W        W27234   5.322  15.676   3.731  0.1321  0.0746 -0.0106
 9711W        W27235  13.195   5.038   0.583  0.1590  0.0341  0.3370
 9712W        W27236  11.817   8.034  14.399 -0.2278  0.0555 -0.1549
 9713W        W27237  11.552   9.590   3.250  0.0836  0.2895  0.0954
 9714W        W27238  10.682   9.490   3.125  0.0004 -0.0981 -0.2555
 9715W        W27239  17.181  17.394   3.560  0.0716  0.1851 -0.1443
 9716W        W27240   7.570  13.777  16.007  0.0332 -0.1140  0.3451
 9717W        W27241   3.928  17.412   4.590  0.1318  0.2275  0.3208
 9718W        W27242   9.993   0.790   0.806  0.3266 -0.0897  0.0369
 9719W        W27243   5.747  12.953  15.081  0.0399 -0.1320  0.0666
 9720W        W27244  17.638   4.339  11.346  0.1609  0.2106 -0.1550
 9721W        W27245   9.745  10.328  13.227  0.3089 -0.2044 -0.0287
 9722W        W27246   5.846   2.351   3.651 -0.0315 -0.2410 -0.0118
 9723W        W27247   6.446  10.707   0.920 -0.3830  0.2786 -0.1693
 9724W        W27248   5.960   6.342   3.957 -0.2219 -0.1506 -0.1521
 9725W        W27249   1.451   3.037   2.198  0.0680  0.0468 -0.2200
 9726W        W27250   5.204  17.718  11.928  0.1402  0.0267  0.1681
 9727W        W27251   2.770   2.415   4.458 -0.0744  0.1755  0.1086
 9728W        W27252  15.943  10.678   3.361  0.1261 -0.2564  0.1069
 9729W        W27253  15.776  13.568  15.113 -0.0445 -0.3818  0.1759
 9730W        W27254   6.177   7.800   0.232 -0.1113  0.0577 -0.0061
 9731W        W27255   7.365  11.813   3.923  0.0007 -0.0864 -0.2671
 9732W        W27256   3.608   2.849   5.347  0.0834 -0.1254  0.0548
 9733W        W27257   2.541  15.256  11.896  0.1774  0.2304  0.0173
 9734W        W27258   6.722  12.177  12.928 -0.3798  0.1260  0.1050
 9735W        W27259   6.712   9.635  12.261  0.2995 -0.3235 -0.2353
 9736W        W27260   9.887   2.656   1.248 -0.2922  0.2266  0.5693
 9737W        W27261  15.044   8.559  12.376 -0.0963  0.1325 -0.2185
 9738W        W27262   3.218  10.082   0.711  0.1425  0.1324 -0.0170
 9739W        W27263  11.027  10.008   0.920 -0.0693  0.2477  0.2687
 9740W        W27264  11.407  12.678   4.596 -0.3474  0.2076  0.0098
 9741W        W27265  17.287   4.445  10.676 -0.1195 -0.0257 -0.0810
 9742W        W27266  11.867  14.776   2.172  0.0967  0.0760  0.0580
 9743W        W27267  16.406  14.725  15.444  0.1828 -0.1563 -0.4086
 9744W        W27268   3.563  16.047  11.599  0.0533  0.1018  0.0039
 9745W        W27269   0.514  16.479   2.756 -0.3029  0.1658 -0.0752
 9746W        W27270  11.359  12.029  14.014  0.1872  0.0219  0.1460
 9747W        W27271   0.397   7.242  11.656 -0.0054 -0.1009  0.1556
 9748W        W27272  14.054   2.487  15.196  0.1223 -0.4400  0.3215
 9749W        W27273   4.050   9.694   0.288 -0.0400  0.1060  0.1173
 9750W        W27274  10.587   3.950  10.903  0.1076 -0.0082 -0.1162
 9751W        W27275   1.294   3.236  12.490  0.0725  0.2449  0.1390
 9752W        W27276   4.160  12.830  12.569 -0.0068  0.1076  0.0696
 9753W        W27277  16.768   9.511   0.632  0.0946 -0.0401 -0.0701
 9754W        W27278   8.870  11.397  13.776  0.1016 -0.0383  0.4119
 9755W        W27279   4.788  17.647   3.046 -0.0297 -0.0063 -0.4889
 9756W        W27280   2.150  15.272   5.884  0.2843  0.1258 -0.0446
 9757W        W27281   3.909   5.671  10.427  0.0259 -0.0584 -0.1856
 9758W        W27282  16.635   9.662   1.059 -0.1722  0.3117 -0.3204
 9759W        W27283  13.608   6.083   0.964  0.0059 -0.0453  0.0644
 9760W        W27284  11.946  10.157   0.800 -0.2163 -0.0848 -0.0136
 9761W        W27285   7.829  14.257  15.917  0.0062  0.2275  0.3015
 9762W        W27286   1.230  14.203   0.742 -0.1844 -0.0878  0.0875
 9763W        W27287   6.441   2.775   3.499  0.1268  0.4209  0.0561
 9764W        W27288   2.035   4.202  13.521  0.2130 -0.0092  0.2095
 9765W        W27289  15.022   6.132   1.431 -0.0781  0.1760 -0.2433
 9766W        W27290   3.659   1.259  14.588 -0.2364 -0.3871  0.0515
 9767W        W27291   0.914  17.694  12.398  0.0941 -0.0752  0.1086
 9768W        W27292   3.533   2.426   4.919 -0.0628 -0.1529 -0.0870
 9769W        W27293  13.326  15.702  15.648 -0.2922  0.1354 -0.1426
 9770W        W27294   0.542  11.744  11.723 -0.0746  0.0365  0.0406
 9771W        W27295  10.950   3.302  15.407 -0.1007 -0.0524 -0.0500
 9772W        W27296  11.375   4.412   3.147  0.1418 -0.0560  0.2125
 9773W        W27297   8.139  13.461   0.550  0.2072  0.0078  0.1396
 9774W        W27298   3.657   2.154  12.123 -0.0664  0.0530 -0.2187
 9775W        W27299   7.635  10.543  15.683 -0.0103 -0.2501  0.0564
 9776W        W27300   0.517  12.273   5.570 -0.1341  0.0609 -0.1300
 9777W        W27301   9.501   8.031   0.055 -0.2080  0.3662 -0.0118
 9778W        W27302  13.672   8.718   0.581  0.1877  0.1162  0.0822
 9779W        W27303   3.361  17.350  14.278 -0.1958 -0.1933 -0.0297
 9780W        W27304   2.867   4.603   3.608  0.0640  0.3046 -0.2331
 9781W        W27305  16.592  11.138  15.755 -0.1238 -0.0967  0.1690
 9782W        W27306  12.487  12.353  10.599  0.1526 -0.0780  0.1414
 9783W        W27307  10.501   5.079  11.606  0.1502 -0.1536  0.1136
 9784W        W27308  10.581   8.185  15.511 -0.1247 -0.1514 -0.0857
 9785W        W27309   4.914  16.554  14.213 -0.2576 -0.0410 -0.2802
 9786W        W27310   7.910   2.627  15.955 -0.2544  0.0881 -0.1257
 9787W        W27311   2.934   5.072   3.463 -0.0190 -0.1088 -0.1124
 9788W        W27312   6.278   4.974  14.294  0.2568 -0.1776 -0.1390
 9789W        W27313  14.460   4.433   1.126  0.0860 -0.3363 -0.1211
 9790W        W27314  12.908   7.387  13.899  0.3238 -0.1223  0.2405
 9791W        W27315  16.607  10.381   0.339 -0.3342  0.1379  0.0397
 9792W        W27316   5.357   7.238   3.132 -0.2275  0.1795 -0.0060
 9793W        W27317  15.874   7.495  13.335  0.1180 -0.0871 -0.0017
 9794W        W27318   1.576  10.516  15.259  0.0766 -0.2213 -0.0689
 9795W        W27319   0.550   1.055  13.570  0.2447  0.1866  0.3367
 9796W        W27320   0.126  10.219   5.570 -0.0209  0.2138 -0.1253
 9797W        W27321  13.146  11.138   1.643 -0.2873 -0.0091  0.3905
 9798W        W27322  13.097   4.973   4.061  0.0464  0.1064  0.0728
 9799W        W27323  11.947   1.135   2.283 -0.4081 -0.1092  0.1669
 9800W        W27324  17.257   6.539  11.232  0.2155  0.0758 -0.0601
 9801W        W27325  16.697   8.953   0.635 -0.1007 -0.2195 -0.1808
 9802W        W27326   3.036   0.468   1.467  0.0461  0.0829  0.0266
 9803W        W27327  12.200   4.550  11.427 -0.0732  0.3598 -0.0439
 9804W        W27328   5.005   0.631   1.611  0.0937  0.1882 -0.2401
 9805W        W27329   0.095  15.888   3.659 -0.0872  0.1912 -0.2736
 9806W        W27330  17.433  11.676   0.968 -0.0424 -0.1273  0.1110
 9807W        W27331  12.767   5.025  15.714  0.1896  0.3346 -0.0717
 9808W        W27332   9.389   5.909  14.351 -0.2339 -0.0581  0.0645
 9809W        W27333  15.055  16.275  13.761 -0.0204 -0.2175  0.0170
 9810W        W27334   9.478   4.690   0.304 -0.0864  0.2090  0.0544
 9811W        W27335   1.696  14.184  12.776  0.0253  0.0820  0.0105
 9812W        W27336  12.488  14.093  13.609  0.0750  0.2943 -0.0788
 9813W        W27337  13.098   4.551  14.311 -0.0960  0.2835 -0.1031
 9814W        W27338   1.278  17.618  11.983  0.2472 -0.1046 -0.0657
 9815W        W27339  11.412  17.485  12.048  0.0764  0.1272  0.1024
 9816W        W27340  17.544  13.903  12.473  0.2271 -0.0638  0.1281
 9817W        W27341  15.382  17.398   4.224 -0.0610 -0.1382 -0.1585
 9818W        W27342   6.587   4.785   2.716  0.0423  0.0785  0.0657
 9819W        W27343   9.102  13.485  10.963 -0.2289 -0.1631  0.4470
 9820W        W27344  10.143   9.135   4.446  0.0750  0.2867  0.0756
 9821W        W27345  17.995   8.463   1.952  0.0009  0.1085  0.0520
 9822W        W27346  15.921   7.111   4.244  0.1126  0.4084  0.0844
 9823W        W27347  11.816   0.682   4.440 -0.0426 -0.0507  0.1448
 9824W        W27348   5.870   5.102  11.179 -0.1353  0.1546 -0.0131
 9825W        W27349   7.251  12.559   3.298  0.2163  0.0965 -0.0607
 9826W        W27350   2.220  16.805  11.439  0.1021  0.2427 -0.0466
 9827W        W27351   2.203   3.405   3.725  0.2476  0.0429 -0.1311
 9828W        W27352   7.198  14.366  12.930 -0.0649  0.2354 -0.0257
 9829W        W27353  13.257  10.917   3.822 -0.1575  0.1111 -0.2362
 9830W        W27354   3.617   5.531  15.468 -0.5770  0.2404 -0.0962
 9831W        W27355   0.918   4.676  14.002 -0.0784  0.2893 -0.2102
 9832W        W27356   8.481   4.390   3.459 -0.0703  0.0222  0.2119
 9833W        W27357   7.032   7.358  15.981 -0.2720 -0.0153 -0.0065
 9834W        W27358   9.929   2.732  12.938 -0.0030  0.0505  0.1089
 9835W        W27359  17.480   2.227  12.791 -0.1203  0.0666 -0.0874
 9836W        W27360   2.477   9.152   1.952  0.1413 -0.3232  0.3159
 9837W        W27361  15.514  16.108  13.816  0.0472  0.2492  0.0915
 9838W        W27362   8.497   0.742  13.709  0.0845 -0.0369 -0.4361
 9839W        W27363   5.295  17.638  14.558 -0.1462  0.0655 -0.3486
 9840W        W27364  13.118  10.040   0.458  0.2049 -0.1728 -0.1938
 9841W        W27365   1.961   6.790  11.673 -0.1342  0.2059  0.1785
 9842W        W27366  10.247   8.994  15.062  0.1118 -0.1537 -0.1669
 9843W        W27367   5.083   7.436  11.791  0.2488  0.0744  0.1616
 9844W        W27368  16.619   2.573  14.186  0.1190 -0.0713  0.2936
 9845W        W27369   7.444   0.688   1.516 -0.3166  0.0944 -0.3073
 9846W        W27370   0.530   6.785  11.804  0.0805 -0.0191 -0.1519
 9847W        W27371   9.545   0.058   5.379 -0.2753  0.1421 -0.1354
 9848W        W27372   3.396   0.328   2.779  0.2223  0.0111  0.3620
 9849W        W27373   3.574   2.641  14.993  0.3792 -0.0132  0.0389
 9850W        W27374   8.192   5.542  14.884 -0.0837 -0.2650  0.0291
 9851W        W27375   0.424   5.693  11.428  0.3328  0.0259  0.1879
 9852W        W27376   8.977   2.390   0.107 -0.2121 -0.0907 -0.2107
 9853W        W27377   4.517   2.937  11.206 -0.3610 -0.1307  0.1969
 9854W        W27378   3.350   2.191  13.190  0.3181 -0.4479 -0.1059
 9855W        W27379  14.029   2.146   0.612  0.3519 -0.1209  0.1185
 9856W        W27380  13.657   3.492   1.930  0.0208 -0.0599  0.2928
 9857W        W27381   8.361  10.726   2.444  0.0539  0.0662  0.1112
 9858W        W27382   9.822   1.092  14.602  0.2298 -0.0716  0.2108
 9859W        W27383   5.418  17.862   2.713 -0.1220  0.0927 -0.1165
 9860W        W27384  15.265  13.439   3.955  0.0543  0.1255  0.1041
 9861W        W27385  10.557  17.059   4.536 -0.0647  0.1712  0.0373
 9862W        W27386   1.897   6.672   2.006  0.1512  0.1610 -0.0266
 9863W        W27387  16.952   5.107  11.328  0.2870  0.0449  0.2700
 9864W        W27388   6.299  12.920   1.539 -0.0024 -0.2623 -0.0497
 9865W        W27389  18.066  11.581   0.106 -0.2302  0.1006 -0.0076
 9866W        W27390  11.931   0.845   0.527  0.1203  0.1694  0.0838
 9867W        W27391   4.658   4.407  15.539 -0.0048  0.0488 -0.1510
 9868W        W27392  15.469   8.159   1.409  0.0511  0.1536 -0.0315
 9869W        W27393   2.654  17.134   1.413  0.0690 -0.1009 -0.2132
 9870W        W27394   1.792   7.299   0.127 -0.0558  0.1662 -0.1299
 9871W        W27395   3.294   7.932   3.818 -0.0494  0.3403  0.0187
 9872W        W27396   3.588   1.420   1.431 -0.0254  0.1293 -0.2420
 9873W        W27397  14.207   5.119   2.212  0.1984  0.5113  0.1505
 9874W        W27398  17.981   4.525  15.581 -0.3059 -0.3464  0.1577
 9875W        W27399  14.909   6.788  15.307 -0.1632  0.1113 -0.1965
 9876W        W27400  10.083  13.620  15.076  0.2258 -0.0447 -0.2380
 9877W        W27401  13.906  10.915  12.718 -0.0382 -0.0225  0.4746
 9878W        W27402   0.971   7.366  10.847 -0.2558  0.0797 -0.0145
 9879W        W27403  10.040   4.164  11.846  0.0262 -0.0409 -0.0753
 9880W        W27404   9.353  16.363  13.737  0.2957 -0.0138  0.0983
 9881W        W27405   8.945  14.544  14.318  0.0655 -0.0117  0.0934
 9882W        W27406   7.577  14.379   3.301 -0.0610 -0.1219 -0.0512
 9883W        W27407   9.588   0.998   1.951 -0.0905 -0.2180  0.2225
 9884W        W27408  16.724  10.360  12.167  0.0068 -0.0941 -0.2726
 9885W        W27409   1.562   1.297  16.046  0.3072 -0.1648 -0.2462
 9886W        W27410   9.869  12.652  11.842 -0.1154  0.1809 -0.3479
 9887W        W27411  12.498  14.019   0.698 -0.1190  0.0379  0.1879
 9888W        W27412  12.749  18.052   3.041  0.2903 -0.3384  0.0501
 9889W        W27413  12.632  15.910   5.803 -0.1890  0.2416 -0.0427
 9890W        W27414  15.651  11.027  11.676  0.0758 -0.0888  0.3139
 9891W        W27415  15.244  12.265   0.842  0.1693  0.1888  0.2621
 9892W        W27416  16.655   5.324   4.105  0.0072  0.2661  0.1768
 9893W        W27417   4.785  18.090   4.535 -0.2427 -0.1000 -0.1389
 9894W        W27418   7.274   3.898  11.075 -0.0678 -0.3493  0.2476
 9895W        W27419   9.377   3.160  14.517  0.2680 -0.2519 -0.0441
 9896W        W27420   5.096   5.576   0.271  0.2006  0.1542 -0.0966
 9897W        W27421   3.960   9.331  13.175  0.2157 -0.0349 -0.0259
 9898W        W27422   5.942   5.233   0.549  0.3705  0.1659 -0.2398
 9899W        W27423  14.993   7.479   1.857  0.1195  0.1942  0.1684
 9900W        W27424  11.928   2.466  15.019 -0.0193  0.0259 -0.0071
 9901W        W27425   8.974  13.548   3.498 -0.1659 -0.2274 -0.0360
 9902W        W27426  17.631   2.125   0.055  0.0032  0.1653 -0.0635
 9903W        W27427   8.069  15.890   2.396  0.0818  0.1359 -0.3043
 9904W        W27428   8.937  14.881   5.030  0.0853 -0.0234 -0.0339
 9905W        W27429   9.965   7.825   3.592  0.1936  0.1366 -0.0374
 9906W        W27430  11.586   2.178  14.787 -0.3108  0.0428 -0.1635
 9907W        W27431   2.311   8.708   2.211  0.0582 -0.0855  0.1906
 9908W        W27432  13.700   2.094  15.102  0.0447  0.3925  0.0312
 9909W        W27433  14.343   9.680   5.705 -0.1861  0.1360  0.2293
 9910W        W27434  16.228  12.449  14.983  0.2676 -0.1215 -0.1909
 9911W        W27435  16.012  16.850   3.961 -0.0662  0.0111 -0.2034
 9912W        W27436  11.342  15.182   3.723  0.1796  0.2613  0.3461
 9913W        W27437   2.809  10.301   1.653 -0.0426 -0.3593 -0.0725
 9914W        W27438   3.347  16.795  14.318 -0.0736 -0.2980 -0.2366
 9915W        W27439   5.824   7.447  13.546 -0.1312  0.2333  0.1869
 9916W        W27440   7.485   3.444  13.935 -0.2630 -0.2266 -0.1988
 9917W        W27441  10.857  10.606   3.073 -0.0015 -0.1955 -0.2121
 9918W        W27442   3.677   3.079  12.104 -0.1532  0.2242 -0.0910
 9919W        W27443  11.813  16.050   2.683 -0.0511 -0.1490  0.3354
 9920W        W27444  11.722  12.403  13.551 -0.0414  0.0635 -0.2158
 9921W        W27445  13.425   0.254  12.825 -0.1015  0.1783  0.2923
 9922W        W27446   0.797   8.921   1.073 -0.2919 -0.0402 -0.1922
 9923W        W27447   3.491  11.396   2.714  0.0957  0.2099 -0.2167
 9924W        W27448  10.101  16.264   3.458  0.0254 -0.1972  0.0893
 9925W        W27449   5.173   6.421   0.696 -0.0836 -0.0760 -0.0684
 9926W        W27450   1.841  16.482  12.034 -0.2268  0.0472  0.0290
 9927W        W27451  17.040  12.016  12.398  0.0813 -0.1455  0.0686
 9928W        W27452   4.261  11.853  13.709 -0.1312  0.0174  0.0453
 9929W        W27453   7.562   2.724  14.967  0.0071 -0.2257  0.0576
 9930W        W27454  14.993   8.226   3.245  0.1392 -0.1147  0.2096
 9931W        W27455   3.853  13.522   1.271  0.2213  0.0364 -0.0625
 9932W        W27456  11.323  12.279   3.903  0.0425 -0.1022 -0.1022
 9933W        W27457  10.972   5.546  14.827 -0.0615  0.2141 -0.0244
 9934W        W27458  17.580   0.753  15.150  0.1448 -0.0277  0.0200
 9935W        W27459   7.446   2.344  15.246  0.0894 -0.2309  0.0280
 9936W        W27460  10.354   4.675  13.596  0.0895 -0.0745  0.2759
 9937W        W27461  11.496   4.244  15.929  0.0755  0.1465  0.0194
 9938W        W27462  13.419  11.728   0.934  0.2008 -0.2785 -0.3207
 9939W        W27463   4.455  12.235  10.792 -0.0276  0.0626 -0.2630
 9940W        W27464  11.150  10.968   1.051  0.0177 -0.1897 -0.1070
 9941W        W27465  10.389  11.833   5.301 -0.0664 -0.0017  0.0870
 9942W        W27466   8.756  13.207  13.909 -0.3393  0.0941 -0.0070
 9943W        W27467   2.480   1.148   4.701  0.3014 -0.0872  0.1640
 9944W        W27468  17.213   6.399  10.367  0.0341 -0.1093  0.0052
 9945W        W27469  14.658   4.907  13.020 -0.0080 -0.3793 -0.0228
 9946W        W27470  16.392  13.104   4.390  0.0265 -0.0656  0.3534
 9947W        W27471  14.217  13.805   4.657 -0.0529  0.4647 -0.0687
 9948W        W27472   4.714  16.998  13.389  0.1712 -0.3421  0.1960
 9949W        W27473   8.110   2.747   0.327 -0.1124  0.1609 -0.0182
 9950W        W27474   6.201   6.944   2.525  0.1425 -0.0170 -0.0363
 9951W        W27475   0.993  15.026  12.926  0.1264  0.0898  0.1362
 9952W        W27476  11.141  10.995  14.913  0.3061  0.0271 -0.0394
 9953W        W27477   0.181   6.432  15.421  0.2703 -0.1381  0.0356
 9954W        W27478  17.769   7.452   9.937 -0.0780  0.0978 -0.0191
 9955W        W27479   8.463   7.748   2.124  0.0343  0.2203  0.1510
 9956W        W27480   8.890   9.388  13.027  0.4375  0.0421  0.0480
 9957W        W27481  11.552  16.721   0.502 -0.0516  0.0163  0.2998
 9958W        W27482  11.040  17.189   3.698 -0.3654  0.0159  0.0246
 9959W        W27483   8.059   2.760  12.293 -0.1786 -0.0858  0.0689
 9960W        W27484   9.125   8.298  15.786 -0.2568  0.0566 -0.3484
 9961W        W27485   9.242  15.523  10.793 -0.0184 -0.1270  0.0210
 9962W        W27486   5.207   6.074  14.976 -0.2802 -0.1296  0.0995
 9963W        W27487  11.931  13.744  12.123 -0.0180 -0.1438  0.2399
 9964W        W27488   0.219   6.628  13.780  0.4109 -0.2913  0.0705
 9965W        W27489   1.331  11.891  12.848  0.1443  0.1972 -0.2477
 9966W        W27490  15.517  12.005  11.950  0.1858  0.1616  0.0843
 9967W        W27491   8.625   4.193  15.042  0.0123  0.0748 -0.0932
 9968W        W27492   4.314   2.483  14.316 -0.0707  0.0446 -0.0727
 9969W        W27493  12.046   1.154  14.608  0.1619  0.1039 -0.0183
 9970W        W27494  12.882   0.597   5.962  0.0146  0.1898  0.1231
 9971W        W27495  14.581   2.286   2.608  0.0107  0.0748 -0.2705
 9972W        W27496   8.563   8.291   2.921  0.1038 -0.3610  0.0001
 9973W        W27497   6.341   1.959   0.337  0.2276  0.0570 -0.2839
 9974W        W27498   9.736   7.060   2.615 -0.0762  0.0168 -0.1364
 9975W        W27499  10.309  13.756  15.922 -0.3503 -0.0149 -0.0571
 9976W        W27500  14.134  17.541   0.986  0.0424  0.0149  0.0332
 9977W        W27501   4.879   6.223   3.975  0.1517  0.2264 -0.0903
 9978W        W27502  10.226   0.802  14.352 -0.0363 -0.0742  0.0562
 9979W        W27503   8.159  14.427   0.274  0.1272  0.3608 -0.2954
 9980W        W27504  11.917  17.352  13.491  0.0153  0.0020  0.3315
 9981W        W27505  15.786  12.783   1.442  0.0145 -0.0327  0.0773
 9982W        W27506  12.458   2.045   0.741 -0.1794  0.0932  0.1949
 9983W        W27507  12.780   8.707  13.095  0.0944 -0.2319 -0.0929
 9984W        W27508   6.551  17.342  12.937 -0.0949  0.1806 -0.3251
 9985W        W27509   1.812  14.563   0.847 -0.0146  0.0053  0.1616
 9986W        W27510  15.057   2.439   2.536  0.1377 -0.2580 -0.2414
 9987W        W27511   1.201   9.110   4.683  0.0737  0.0671 -0.1706
 9988W        W27512  17.551   1.881  12.368 -0.1252  0.2751  0.1152
 9989W        W27513  16.769   3.109  10.391  0.0435 -0.2673 -0.0196
 9990W        W27514  13.488  12.372  13.434  0.3067 -0.2310 -0.0242
 9991W        W27515   9.173  11.430   0.364  0.0119  0.0225  0.0501
 9992W        W27516  14.682  17.261  11.542 -0.0636 -0.1133 -0.2283
 9993W        W27517  17.309   5.360  15.655 -0.2101  0.3677  0.0760
 9994W        W27518  13.655  10.085  14.833 -0.1147 -0.0234 -0.0993
 9995W        W27519   9.847  17.256  11.711  0.0230 -0.1044 -0.3183
 9996W        W27520  16.199  11.486  10.854  0.1098 -0.1626 -0.3273
 9997W        W27521   3.927  16.804  11.983 -0.1744 -0.3269 -0.1837
 9998W        W27522   2.899  13.398  15.025  0.2070 -0.2034  0.1017
 9999W        W27523   8.413  16.713  13.271 -0.0766 -0.3657  0.2175
10000W        W27524   3.431  14.490  15.545 -0.0096 -0.2540 -0.0417
10001W        W27525   6.299   3.085  11.460 -0.4459 -0.0695 -0.0255
10002W        W27526  17.587  16.996  12.788 -0.2081  0.0249 -0.0293
10003W        W27527  12.243   3.068  15.904 -0.0223  0.0201  0.0909
10004W        W27528   8.755  10.952  11.626 -0.0229  0.0271 -0.4129
10005W        W27529  11.890  16.666   5.021 -0.1913 -0.3383  0.1954
10006W        W27530  13.006  12.319   4.804 -0.0732  0.1406 -0.1041
10007W        W27531   4.153   9.983  15.785 -0.2662  0.1651 -0.3150
10008W        W27532  13.194  11.116  14.439  0.1318  0.1335  0.0064
10009W        W27533   2.625   3.633  15.735 -0.0730 -0.2118  0.0290
10010W        W27534  16.942   2.201   4.318  0.2202 -0.1347 -0.1193
10011W        W27535   6.491   2.008  15.585  0.1356 -0.1241  0.1518
10012W        W27536  15.289   9.558   3.319 -0.4313  0.3122 -0.1244
10013W        W27537   4.125  12.366   4.644  0.0608  0.2164 -0.1010
10014W        W27538  15.714   8.901  12.916  0.3264  0.0147  0.1644
10015W        W27539  16.302  11.105  15.355  0.0343  0.0346 -0.0167
10016W        W27540  17.072  17.337   6.249  0.5089  0.1152  0.0331
10017W        W27541  14.617  14.715   4.245 -0.2551 -0.0703  0.0595
10018W        W27542  15.893  13.576  13.853  0.0998 -0.1105  0.0350
10019W        W27543   1.670   0.996   4.179  0.1157 -0.2149  0.5489
10020W        W27544   1.146  15.092  12.306 -0.1778 -0.1815  0.1718
10021W        W27545  16.316   3.492  14.049  0.1312  0.2425 -0.2123
10022W        W27546  11.002   3.086   0.665 -0.0301  0.0930  0.0900
10023W        W27547   0.754  17.657  15.027  0.1190  0.1693 -0.1867
10024W        W27548  10.665  10.354   1.878  0.1819 -0.2383  0.0460
10025W        W27549  14.816  14.075  12.759  0.1601 -0.1579 -0.1359
10026W        W27550  13.570   2.109  11.369  0.2210 -0.0249  0.2261
10027W        W27551   0.826   7.237   2.523 -0.2215 -0.1465 -0.0357
10028W        W27552   5.238  16.229   3.907  0.0761 -0.2418 -0.1236
10029W        W27553   8.127   7.827  11.336  0.1248  0.0171  0.0948
10030W        W27554   2.607   2.732  15.179  0.0187  0.2063  0.3036
10031W        W27555  12.465   8.903   4.584  0.1230  0.0344  0.3429
10032W        W27556  14.728   8.330  13.885  0.1374 -0.2137 -0.2404
10033W        W27557   6.034   2.423   3.212  0.0740  0.0711 -0.1213
10034W        W27558  15.010  15.066   2.440  0.0132  0.1693  0.0245
10035W        W27559  15.032   6.369  14.545 -0.2402 -0.0063 -0.0315
10036W        W27560  11.095  16.002  14.520 -0.0833 -0.1899 -0.4661
10037W        W27561   1.993   8.710  13.807  0.0543  0.2760 -0.0094
10038W        W27562  14.444   3.389  11.480  0.1052  0.0771  0.1145
10039W        W27563   6.428  13.599  13.909 -0.0143  0.3290 -0.1615
10040W        W27564  16.552  12.765   1.543 -0.0129  0.1073  0.2264
10041W        W27565   2.428  11.974   0.340  0.0118  0.0365 -0.2850
10042W        W27566  12.111   9.995  15.967  0.0052  0.2767  0.4658
10043W        W27567   9.467   5.611   2.568  0.4987 -0.0075 -0.1844
10044W        W27568   8.250  15.001  10.830 -0.0552  0.3653  0.1786
10045W        W27569  17.981  14.587  13.605  0.2214  0.2559  0.0168
10046W        W27570   5.927   4.913   0.947 -0.1524 -0.0239  0.0784
10047W        W27571  14.586  14.470  14.061 -0.1641  0.2612  0.0777
10048W        W27572  14.665   4.375  11.753  0.1585  0.1180 -0.0285
10049W        W27573   9.095  16.045  11.963  0.0114  0.2477  0.3288
10050W        W27574  14.076  14.864   5.786 -0.0712  0.0257  0.1653
10051W        W27575   7.275   7.865  12.703  0.2302  0.0461  0.0587
10052W        W27576  14.392  15.518   3.684 -0.0599  0.2043  0.0344
10053W        W27577  14.992  12.182  16.023  0.3658 -0.1430  0.1077
10054W        W27578  15.625  13.801   4.247  0.2151 -0.5473 -0.0237
10055W        W27579  11.891   1.495  15.467  0.2788 -0.1072 -0.1821
10056W        W27580   2.845  13.843   3.357  0.1679 -0.0807  0.0951
10057W        W27581   0.220   3.638   3.650  0.1685  0.1723 -0.0948
10058W        W27582  14.295   9.214  12.913 -0.0543  0.1675 -0.0564
10059W        W27583  14.331  10.859   4.952 -0.2002 -0.0656  0.2446
10060W        W27584   3.114   3.623   1.646  0.1491  0.3666  0.1434
10061W        W27585  15.976   0.792  15.040  0.3099 -0.1655  0.1082
10062W        W27586  11.516  14.616   3.158  0.2648  0.0566 -0.0027
10063W        W27587  13.940   5.922  11.532  0.0557 -0.0659  0.2927
10064W        W27588  16.873  13.943  13.823 -0.1039  0.3200  0.0080
10065W        W27589   3.610  14.273  14.994 -0.0652  0.1332  0.0349
10066W        W27590   1.553  15.704  11.917  0.2508  0.0874  0.0643
10067W        W27591  15.968   4.505   2.053  0.0238  0.2910 -0.0658
10068W        W27592   4.699  14.381   2.509 -0.4444  0.0488 -0.1309
10069W        W27593   4.278   0.474  13.372 -0.2213 -0.0908  0.1045
10070W        W27594  14.562   6.900   4.897  0.3767 -0.0449 -0.0993
10071W        W27595   5.237   2.214   2.988 -0.0337 -0.0799  0.1836
10072W        W27596   2.290  13.268  12.806 -0.0551 -0.1415  0.2270
10073W        W27597   3.488   4.557   1.562 -0.0034 -0.3069 -0.0119
10074W        W27598   5.017  15.577   0.246  0.0558 -0.1837  0.0852
10075W        W27599  13.097  14.310  12.145 -0.1146 -0.1475 -0.2226
10076W        W27600  10.090   6.763  15.607  0.0914 -0.1416 -0.0509
10077W        W27601   1.391  12.299   3.200 -0.0588 -0.1924 -0.0407
10078W        W27602   1.639  10.078  13.175  0.2857  0.0117  0.2605
10079W        W27603   7.602  10.679  15.200  0.2806  0.3373  0.3199
10080W        W27604   1.031  13.489  10.651 -0.3250 -0.2853  0.2913
10081W        W27605  12.471  17.829   1.743 -0.0473  0.1596  0.2026
10082W        W27606   7.289   1.779   3.051 -0.0049 -0.0482 -0.1883
10083W        W27607   1.141   0.560  12.605  0.0838  0.0825 -0.1216
10084W        W27608   3.719  16.757   0.656 -0.2602  0.1527  0.2419
10085W        W27609   0.208   7.133  13.446 -0.0591 -0.0065 -0.0498
10086W        W27610  11.172  15.384  16.020 -0.2635  0.0841 -0.0751
10087W        W27611   5.007   4.612  15.853  0.2208  0.0436  0.2845
10088W        W27612   6.070   0.586  14.250 -0.0779 -0.1108 -0.0138
10089W        W27613   3.143  14.267  15.225 -0.4404 -0.3212 -0.0227
10090W        W27614   7.206  10.483  14.920 -0.3589  0.2611  0.3473
10091W        W27615   8.612   5.725  15.086  0.1922  0.1018 -0.3085
10092W        W27616  10.744  16.144  15.625 -0.2870 -0.0202  0.0626
10093W        W27617   7.256  14.971   3.068 -0.0293  0.2114  0.0786
10094W        W27618  11.098  13.668  10.954 -0.0262 -0.1644  0.0977
10095W        W27619  14.767  11.455  12.337  0.0221 -0.1286 -0.1594
10096W        W27620   7.247  16.554  14.046 -0.1065 -0.3023  0.1461
10097W        W27621   8.012   3.659   2.913 -0.2212 -0.1281 -0.0924
10098W        W27622   5.370  14.237   1.660  0.2571  0.0074 -0.3529
10099W        W27623  15.580   7.113  15.236  0.1213 -0.0833  0.0181
10100W        W27624   4.609   4.553   1.642  0.0308  0.3514 -0.0440
10101W        W27625   5.416  11.316  12.755  0.5109 -0.1081 -0.0130
10102W        W27626  10.221   4.805  11.956 -0.1619 -0.0350  0.1278
10103W        W27627  18.005  10.709   2.274  0.1648 -0.0124 -0.0869
10104W        W27628   5.230   5.366   3.821  0.0419  0.0234 -0.2474
10105W        W27629   0.880   0.574   0.719  0.2167  0.2198 -0.2384
10106W        W27630  12.158  14.695  14.257  0.0022 -0.1972 -0.0731
10107W        W27631   6.452  14.171   3.234 -0.1138  0.3551  0.1994
10108W        W27632  14.910   4.547  14.109 -0.2694 -0.2627  0.2291
10109W        W27633  15.433  17.416   3.570  0.0212  0.1616 -0.0271
10110W        W27634   4.626  14.717   2.173 -0.0962  0.0414 -0.1584
10111W        W27635  14.411   4.633  11.421  0.0646 -0.2477 -0.1747
10112W        W27636   7.955   9.709   0.076  0.0698  0.0845  0.2580
10113W        W27637   7.165  12.131  12.598 -0.0833  0.0041 -0.0493
10114W        W27638  15.063   8.149   1.082  0.0671  0.1835  0.0928
10115W        W27639  11.565  10.719  12.772  0.1512  0.1467 -0.1575
10116W        W27640   8.601   2.399   4.696 -0.1385  0.3866  0.0518
10117W        W27641   4.112  14.622  10.760 -0.0325  0.0372 -0.0460
10118W        W27642  14.095   2.547  14.374 -0.2302 -0.0180 -0.2710
10119W        W27643   6.182   0.846  13.876  0.1206 -0.0137  0.2572
10120W        W27644  16.600   1.986   1.742  0.2718  0.3089  0.2897
10121W        W27645  15.446   7.707   1.662 -0.1644  0.0157  0.0477
10122W        W27646   4.264   7.736  11.894  0.2769 -0.0179 -0.1682
10123W        W27647  14.006  11.457   2.166 -0.2557 -0.4022 -0.0883
10124W        W27648  10.615   7.681   4.677  0.2073 -0.0493 -0.1502
10125W        W27649   8.104   5.284  12.107 -0.0377  0.1656  0.0415
10126W        W27650   7.418  12.815  13.974  0.1118 -0.3142  0.2467
10127W        W27651   7.618  15.498  13.456 -0.0029  0.1547  0.1722
10128W        W27652   3.204   3.701  15.695 -0.1905 -0.0236  0.1860
10129W        W27653   4.484  14.275   2.013 -0.0714  0.0866 -0.1381
10130W        W27654  11.411   9.995  15.283  0.0872 -0.1676  0.2469
10131W        W27655   3.534  14.285  10.006  0.4822 -0.0991 -0.3017
10132W        W27656   0.599   8.455   0.905 -0.0447  0.0152  0.0184
10133W        W27657   7.788   2.451  11.311  0.1211  0.1895  0.0313
10134W        W27658  14.868  12.370   1.526 -0.2809 -0.1034  0.3343
10135W        W27659   3.766  12.724   0.194  0.4519 -0.1185  0.0397
10136W        W27660   8.949  15.752  15.372 -0.2273  0.0185 -0.1550
10137W        W27661   2.787  15.659  13.369  0.0322  0.2186 -0.0915
10138W        W27662  14.977   5.423   3.644 -0.0542  0.0632 -0.2315
10139W        W27663   3.800   3.609  15.437 -0.1654  0.1615  0.1772
10140W        W27664   5.956  14.233  14.807  0.0500  0.3034 -0.0531
10141W        W27665  10.731   1.608  11.858  0.2342  0.0676 -0.0428
10142W        W27666  17.596   0.441   5.023 -0.0518  0.1061  0.0323
10143W        W27667  12.502   0.811  15.432  0.3344  0.2337  0.3445
10144W        W27668  11.094   5.444   0.169 -0.1566 -0.1086 -0.0343
10145W        W27669   8.496  16.644  12.756 -0.1065  0.0805 -0.2714
10146W        W27670   1.864  11.759  15.269 -0.1007  0.0706  0.2015
10147W        W27671  12.620   9.930  10.507 -0.0386  0.1765 -0.3309
10148W        W27672  18.104   4.574   1.180 -0.0676 -0.1511 -0.1049
10149W        W27673   3.968   0.201  11.991 -0.1105 -0.2448  0.0628
10150W        W27674  13.540   6.586   3.197 -0.4896  0.0413 -0.2634
10151W        W27675   1.276   9.367   5.143  0.3328  0.1306 -0.3716
10152W        W27676  13.724   2.966  14.413 -0.1696 -0.1450  0.1192
10153W        W27677  15.159   9.992   2.165  0.3698 -0.1290  0.0840
10154W        W27678   7.681   4.826   3.201  0.0191 -0.4213  0.4402
10155W        W27679  17.124   7.376  14.974  0.0642 -0.1257  0.3688
10156W        W27680   4.565   5.023   2.385 -0.2182 -0.2423  0.0996
10157W        W27681   5.971  16.879   5.774 -0.1853  0.0545  0.0142
10158W        W27682  15.987  14.708   2.434 -0.3933  0.0484 -0.4159
10159W        W27683   9.497  16.966  15.574  0.0444  0.2466 -0.1941
10160W        W27684   5.728   6.764   3.990 -0.1062 -0.2840 -0.2022
10161W        W27685  18.129   6.711  12.907 -0.0399 -0.0936  0.0993
10162W        W27686   7.621   8.612  14.491  0.0175 -0.0012  0.0505
10163W        W27687   6.315  14.002   2.221  0.0587  0.0686 -0.2328
10164W        W27688   8.835   9.934  13.159  0.2228 -0.1463 -0.1663
10165W        W27689   7.036   6.473   3.301  0.0689 -0.0114 -0.1565
10166W        W27690  12.819  11.652  13.218  0.0560 -0.1188  0.1902
10167W        W27691   0.749  10.604   4.407 -0.2240 -0.1919 -0.1929
10168W        W27692   7.795  15.197  15.317 -0.0663  0.0080 -0.2101
10169W        W27693   0.533  13.263   2.418 -0.1373  0.0838 -0.3059
10170W        W27694  11.819   5.568   4.912 -0.1049 -0.1536 -0.0960
10171W        W27695   0.874   2.127   5.230  0.1257 -0.1183 -0.1722
10172W        W27696   1.940   6.161   1.833  0.0720  0.0536  0.1807
10173W        W27697  14.876   5.962   1.870  0.0148  0.4951  0.1390
10174W        W27698   4.724  11.978  14.137 -0.1844  0.0327  0.0314
10175W        W27699  10.398  12.173  14.277 -0.1671 -0.3375 -0.0959
10176W        W27700  10.058  13.100  11.488  0.0670 -0.0875 -0.2302
10177W        W27701   6.867   2.794   3.105 -0.2860 -0.1448  0.1558
10178W        W27702  10.720  15.330   4.435 -0.0420  0.2465 -0.1509
10179W        W27703   2.511  17.099  13.196 -0.0363  0.2219  0.2305
10180W        W27704  13.740   9.779  15.774 -0.2135  0.0807 -0.1405
10181W        W27705   7.610   6.150  15.945 -0.2401  0.0984  0.0154
10182W        W27706   5.278   4.948   2.444 -0.0659 -0.2521 -0.0423
10183W        W27707   2.549   0.650   4.401 -0.0368  0.1767  0.2144
10184W        W27708  15.912   8.149   2.371  0.0659 -0.0332  0.1210
10185W        W27709  13.366   6.803   4.464  0.0987 -0.0029  0.0650
10186W        W27710   6.043   2.120  10.809 -0.1679 -0.1769 -0.1497
10187W        W27711  12.365   8.679   4.153  0.0052 -0.1160 -0.2229
10188W        W27712   6.794   7.838  13.761 -0.2534 -0.0882  0.0166
10189W        W27713   8.115   2.082  11.852 -0.0740 -0.2126 -0.2570
10190W        W27714   7.100  15.399   1.717  0.1399  0.0308 -0.2792
10191W        W27715   0.393   1.434   3.897 -0.1886 -0.1174  0.0267
10192W        W27716  17.039  15.425   0.540  0.4822  0.2389  0.1589
10193W        W27717   7.026   4.386  10.823  0.1245  0.2764 -0.0436
10194W        W27718  13.511   3.984   0.021  0.0753  0.1200  0.0433
10195W        W27719   6.894   7.791  11.645 -0.2535 -0.0098 -0.3289
10196W        W27720  13.907   9.816  13.698  0.0872  0.0877  0.0418
10197W        W27721  15.053   2.050   2.947 -0.1200 -0.1618  0.2437
10198W        W27722  12.468   0.113  12.626 -0.0985 -0.1922  0.1341
10199W        W27723  15.984   3.566   4.157  0.3939  0.0327 -0.1325
10200W        W27724  15.394   1.863  12.070  0.2736 -0.0240 -0.1041
10201W        W27725   2.682  11.755  13.147  0.2609  0.1712  0.3165
10202W        W27726  14.920   6.689  12.754  0.1263 -0.0554  0.0104
10203W        W27727  17.166   2.384  16.041 -0.1729  0.1128  0.0760
10204W        W27728   5.692   2.501  10.763 -0.4198  0.0699 -0.3038
10205W        W27729  14.177  10.819   2.949  0.2071  0.0079  0.3945
10206W        W27730  18.053   8.206   0.570  0.0767  0.0563  0.1919
10207W        W27731  14.862   6.000   3.244 -0.1336 -0.1749  0.2456
10208W        W27732  14.259   5.553   2.411 -0.2158 -0.1591  0.1390
10209W        W27733   3.168  14.904   3.935  0.0980 -0.1557 -0.1528
10210W        W27734   2.514  10.942   3.182  0.2031  0.1614  0.2408
10211W        W27735  11.219   9.496  13.234  0.0367  0.0652  0.1146
10212W        W27736  12.513   1.321   4.910 -0.1268 -0.1815 -0.1289
10213W        W27737  14.817  12.542   5.915 -0.0451  0.1734  0.1103
10214W        W27738  16.460   4.863   0.345  0.0227 -0.1881 -0.3380
10215W        W27739   5.638   7.551   3.950  0.2304  0.1311  0.0574
10216W        W27740   9.531  12.857  14.777  0.1385 -0.1430 -0.1168
10217W        W27741   0.202   9.933  14.347 -0.0553  0.0205 -0.3270
10218W        W27742  14.148   2.951  13.475  0.1230 -0.0202  0.1076
10219W        W27743   8.177  10.279   2.069  0.0830 -0.1978 -0.1375
10220W        W27744   8.070   2.851   0.811 -0.1455 -0.3735 -0.0966
10221W        W27745  10.447  10.898  11.963 -0.0346  0.3284  0.3440
10222W        W27746   3.471  12.321  15.545 -0.1543 -0.0882  0.0942
10223W        W27747  15.036   8.008  13.727 -0.0116 -0.0096  0.0552
10224W        W27748  18.137   9.171  14.866  0.2068 -0.1756 -0.4326
10225W        W27749   3.062  11.761  12.757 -0.0920  0.0222 -0.1058
10226W        W27750   8.237  15.567  13.560 -0.1632 -0.0357 -0.1420
10227W        W27751  13.088  12.761  13.465  0.1961  0.0785  0.0419
10228W        W27752   8.989  16.678  13.960  0.1552  0.1672 -0.1062
10229W        W27753   0.232   0.114   2.743 -0.2412 -0.1162  0.2620
10230W        W27754  13.126  16.003   4.926 -0.0880 -0.0654 -0.2178
10231W        W27755  12.378  17.411   5.094 -0.1254  0.3183 -0.0306
10232W        W27756   7.449  14.531  12.455  0.3344 -0.0017 -0.0349
10233W        W27757   0.384  10.923   0.689 -0.0335 -0.3994  0.0648
10234W        W27758  15.412   4.045  14.230  0.0455  0.1934 -0.1675
10235W        W27759  11.166  15.869  15.607  0.0409 -0.2117 -0.3060
10236W        W27760  13.610   8.627   4.010  0.1342 -0.0722 -0.2171
10237W        W27761   3.829   6.231  13.746  0.0117  0.4092  0.5750
10238W        W27762   2.019   7.155  11.995 -0.1292  0.3460  0.1700
10239W        W27763  12.550   8.719  14.094 -0.0434  0.0224 -0.2722
10240W        W27764   1.502  12.356   1.223  0.0084  0.0306  0.2841
10241W        W27765  10.975   5.856   5.660  0.1004 -0.0751 -0.1032
10242W        W27766   3.415  11.870  15.354 -0.0680  0.0202 -0.1399
10243W        W27767   2.461   7.649  14.730  0.0608 -0.0515  0.1222
10244W        W27768   4.847   2.534   2.860 -0.1573 -0.1031 -0.0208
10245W        W27769   3.840   1.492   1.814 -0.1555 -0.3008 -0.0147
10246W        W27770  16.664  15.645   1.769 -0.0654 -0.1734  0.0318
10247W        W27771  17.143  17.592  12.100 -0.1259 -0.1178  0.1550
10248W        W27772  13.267  17.929  13.022  0.1809  0.1114  0.0764
10249W        W27773  11.106  17.513  15.294  0.0041 -0.1816 -0.3027
10250W        W27774   2.030   1.248   2.183  0.0126 -0.0724  0.2310
10251W        W27775  15.506   9.777   0.287 -0.1225 -0.0822  0.0703
10252W        W27776  11.138  11.506   2.752  0.0544  0.1314  0.0538
10253W        W27777   5.821   6.395  14.149 -0.1905 -0.0177  0.0751
10254W        W27778   8.473  10.265  15.742  0.3849  0.1936 -0.1848
10255W        W27779   4.514   0.995  12.102 -0.1978  0.0827 -0.1844
10256W        W27780  11.298  13.134  16.000 -0.0623  0.2111 -0.5029
10257W        W27781  12.616  13.884  14.818 -0.0937  0.1386 -0.0345
10258W        W27782   9.446  12.267   3.532 -0.0210  0.2044 -0.1897
10259W        W27783   6.604  15.248   0.541  0.1287  0.0583  0.1145
10260W        W27784  11.493   4.647  12.599 -0.1304 -0.2358  0.3000
10261W        W27785   2.800   1.575   5.249 -0.0565 -0.1170 -0.2004
10262W        W27786  12.362   5.624  13.817 -0.1587  0.1508  0.0363
10263W        W27787   6.601   9.401   3.398  0.1846  0.1911  0.2594
10264W        W27788  15.934   5.738  11.251 -0.3742 -0.0794  0.2221
10265W        W27789  13.016  12.913   0.521 -0.1609  0.2326  0.6005
10266W        W27790  14.593   5.335   2.730 -0.2723 -0.2647 -0.0360
10267W        W27791  12.127   0.908  14.105 -0.0312  0.0793 -0.1815
10268W        W27792   1.597  11.428   1.664  0.0476 -0.3341  0.4555
10269W        W27793   7.087   4.058  13.109 -0.1016  0.1963 -0.2532
10270W        W27794  17.995   4.320  13.168  0.2661 -0.0175  0.3723
10271W        W27795  16.971   5.766  12.078 -0.1983  0.2312 -0.1430
10272W        W27796   2.304  15.238  14.294  0.0341  0.1717  0.2373
10273W        W27797   5.004   0.598  12.140  0.1529  0.2030 -0.0710
10274W        W27798  10.610   0.804  11.810  0.3908  0.0562 -0.0821
10275W        W27799  10.488   3.044   0.552 -0.1820 -0.0839  0.2926
10276W        W27800   4.592  17.470   3.680 -0.0811 -0.0058  0.2061
10277W        W27801   9.984   8.087  15.608 -0.1634 -0.1414  0.1858
10278W        W27802  15.661  16.521   4.022 -0.0163 -0.0687 -0.0832
10279W        W27803   9.036   4.407   1.998  0.0589  0.1825  0.0113
10280W        W27804   4.408   2.287  11.500  0.2510 -0.0542 -0.0894
10281W        W27805   2.174  17.110  14.495  0.0862  0.1168 -0.3360
10282W        W27806   6.261   9.812   3.298 -0.0858 -0.1080  0.1754
10283W        W27807  15.374   5.927   2.411  0.1686 -0.1740  0.1659
10284W        W27808  12.109   8.843   0.368  0.0737 -0.0277  0.0475
10285W        W27809  16.443  11.364   1.620 -0.2182  0.1524  0.0144
10286W        W27810   3.577  13.255   5.506  0.2359 -0.3332  0.3140
10287W        W27811  15.053   2.322   4.518  0.4143  0.2301 -0.0260
10288W        W27812   4.466  10.135   6.182 -0.2213  0.1026  0.0677
10289W        W27813   2.757   8.446   4.528 -0.2416  0.0147 -0.1448
10290W        W27814  13.814   1.178   3.984  0.1860  0.0311  0.0299
10291W        W27815  11.613   2.388  13.835  0.2730 -0.1972  0.2408
10292W        W27816  14.200  18.057   2.320  0.0316 -0.0854  0.1871
10293W        W27817   5.884   4.050   4.207  0.0095  0.1516  0.0149
10294W        W27818  11.204   9.498  14.573  0.0489 -0.2337 -0.1727
10295W        W27819   3.932  13.642   3.496  0.1562  0.0100  0.0331
10296W        W27820   9.866   4.172  10.258  0.0924 -0.2100  0.2024
10297W        W27821  17.296   1.922  14.579 -0.0560 -0.0579  0.1444
10298W        W27822  13.410   0.094   4.700 -0.0955 -0.1015  0.2392
10299W        W27823   9.615   9.096   1.432 -0.0892  0.0739 -0.1593
10300W        W27824   4.305   4.337  10.970  0.0685  0.0699  0.0230
10301W        W27825  11.655  17.816   2.159 -0.1860  0.1858  0.3782
10302W        W27826   7.861   3.264   1.028  0.1396 -0.0714 -0.4268
10303W        W27827   1.822  11.975   2.063 -0.0818  0.1811  0.1134
10304W        W27828   2.924   2.429  13.500  0.0219 -0.1303 -0.1653
10305W        W27829   2.186  11.931  15.605  0.1174 -0.0473 -0.0975
10306W        W27830   6.481   5.084   1.766  0.0224  0.1674  0.1187
10307W        W27831   4.214  15.746  13.244  0.0316 -0.1191  0.0747
10308W        W27832   5.438  14.506   1.102 -0.0334 -0.2681 -0.1217
10309W        W27833   2.401   2.787   2.217 -0.0649  0.2914 -0.0472
10310W        W27834   4.943  13.039   2.198  0.1648 -0.0720  0.0894
10311W        W27835  16.484  11.173  12.030  0.1427 -0.0793 -0.0020
10312W        W27836   2.511   6.003  14.643 -0.0999  0.1235 -0.0335
10313W        W27837   3.252   3.415  10.926  0.2084 -0.0183  0.0324
10314W        W27838   0.345  15.592   4.665 -0.1016  0.2424 -0.5398
10315W        W27839   5.953  15.762   1.196 -0.0665 -0.0563 -0.3462
10316W        W27840   2.050  16.938   1.211 -0.1707  0.0390 -0.1708
10317W        W27841   9.542   3.782   4.540 -0.0945  0.1756  0.0310
10318W        W27842   3.817  16.712  10.171  0.0981 -0.2546 -0.0035
10319W        W27843  16.059   6.556  12.337 -0.0914  0.1830  0.2856
10320W        W27844  15.242  12.978  15.710  0.0230 -0.0187  0.1526
10321W        W27845  11.988   1.139  11.261  0.0111 -0.1760  0.0781
10322W        W27846  13.442  13.013   3.996 -0.1071 -0.1547  0.2384
10323W        W27847   7.369   7.065   0.176  0.0021  0.0725 -0.0878
10324W        W27848   6.717  12.662   3.394  0.1708  0.0872 -0.1545
10325W        W27849   7.241   8.469  14.236 -0.1240 -0.0087  0.1858
10326W        W27850   3.001   2.731  15.748 -0.0839  0.2084  0.1164
10327W        W27851   7.503   3.416   1.484  0.0382  0.1080 -0.1616
10328W        W27852  12.757   3.787  14.941  0.1630 -0.1218  0.0284
10329W        W27853  10.451   4.956   4.762 -0.3305  0.0774  0.5135
10330W        W27854   2.046   8.386   3.906  0.2001  0.1161 -0.0535
10331W        W27855   0.180  16.203  12.357 -0.0586  0.1106  0.0110
10332W        W27856   0.971  13.371   3.894  0.1779 -0.1463  0.3147
10333W        W27857  14.707   4.340  11.215  0.0536  0.3499 -0.0063
10334W        W27858   4.378   5.895   2.265 -0.2124 -0.2341 -0.3426
10335W        W27859   7.142   4.508  11.331 -0.0291 -0.0437 -0.1950
10336W        W27860  10.590   4.387  12.247  0.0474 -0.1416  0.0086
10337W        W27861  13.941   4.986  12.426  0.1313 -0.1676  0.0428
10338W        W27862   5.827   2.117   4.703  0.0949  0.0146 -0.0775
10339W        W27863   8.423   3.446  11.822 -0.2016 -0.2339 -0.0261
10340W        W27864   1.813  16.731   0.724 -0.1714  0.0605  0.2653
10341W        W27865   3.318  11.909  14.827  0.1373  0.1054 -0.0102
10342W        W27866   0.144   3.370   4.061  0.1161  0.0170  0.1601
10343W        W27867   4.252  15.902   0.335  0.0853  0.1641  0.0229
10344W        W27868   6.779  14.093   0.326 -0.2186  0.1787 -0.0499
10345W        W27869  13.173  15.161   2.741  0.3504  0.0730  0.0879
10346W        W27870   9.444   0.024  11.725  0.0776 -0.1266  0.2358
10347W        W27871  11.881  16.969  14.467  0.1857  0.2788 -0.4133
10348W        W27872  12.636   5.606  11.612 -0.2797 -0.1613  0.1132
10349W        W27873  16.286  14.334   1.683 -0.2913  0.0213  0.1293
10350W        W27874  16.888   3.172   2.792  0.1257  0.3637  0.0567
10351W        W27875   6.421  13.313  16.008  0.2394  0.1671  0.2845
10352W        W27876   4.215   3.631  14.639 -0.0491 -0.0462 -0.0326
10353W        W27877   7.086   4.734   2.472 -0.1715 -0.2485 -0.0056
10354W        W27878  10.972  10.091  13.822 -0.0127  0.1993  0.1134
10355W        W27879   0.894  16.128  14.020 -0.3668 -0.1949 -0.1630
10356W        W27880   3.447  13.839   4.724 -0.3227  0.3329  0.1615
10357W        W27881  14.181  11.064   0.510  0.1366 -0.0368 -0.0180
10358W        W27882  16.908  12.489  13.773  0.2737  0.0529 -0.3048
10359W        W27883  16.212   1.847  11.576  0.3097 -0.2260  0.3760
10360W        W27884  13.548  12.926   5.441 -0.2516 -0.0148  0.1285
10361W        W27885  12.117  17.220  12.927 -0.0775 -0.3581  0.0783
10362W        W27886  10.944   4.653   1.292 -0.3107 -0.2374  0.1874
10363W        W27887   5.173   2.235   4.493  0.0513 -0.1691  0.0060
10364W        W27888   2.318   8.137   1.074  0.0347  0.0721 -0.0063
10365W        W27889  17.361  11.573   1.771  0.0360  0.0082  0.1032
10366W        W27890  15.315  12.549  15.995  0.2217  0.0727 -0.1286
10367W        W27891  14.566  12.174   0.341  0.1348 -0.0159  0.0890
10368W        W27892  14.797  16.352  13.373  0.2090 -0.0757  0.0205
10369W        W27893   8.165  12.261   4.247 -0.1179  0.0246  0.1067
10370W        W27894   7.851   5.148  11.510  0.0018 -0.0157  0.1806
10371W        W27895  15.309  17.829   5.153  0.0386  0.2059 -0.2488
10372W        W27896   5.137  16.651   4.585  0.0169  0.2189 -0.3589
10373W        W27897  11.149  16.780  14.829 -0.1943 -0.1274  0.2229
10374W        W27898   8.708  10.050   4.356 -0.0798 -0.2683  0.1655
10375W        W27899  15.684   8.911   0.312  0.0351 -0.4293  0.0648
10376W        W27900   5.536   4.252  14.260  0.1492 -0.0816 -0.3127
10377W        W27901   9.926  12.168   2.990 -0.1402  0.2519  0.0334
10378W        W27902   8.952   8.084   1.862 -0.1071  0.0605  0.1226
10379W        W27903   8.828   0.296  15.429 -0.0022  0.0416 -0.2742
10380W        W27904  14.275   4.117  11.416  0.1259  0.3008 -0.0995
10381W        W27905   0.636   8.467   0.359 -0.3869 -0.2483 -0.0740
10382W        W27906  17.966   6.326   0.287  0.1599 -0.0459 -0.0939
10383W        W27907   9.405   2.068  11.712 -0.0387 -0.0600 -0.0287
10384W        W27908   1.261  10.472   2.383 -0.1683  0.1587  0.2052
10385W        W27909  16.824   6.701  12.069 -0.2480  0.1842 -0.0079
10386W        W27910   5.629  14.994   4.316 -0.1016 -0.0378 -0.1241
10387W        W27911   0.147   6.437  10.457  0.0027  0.1943  0.2554
10388W        W27912  12.889  13.767  14.322 -0.4669  0.0362  0.0647
10389W        W27913   6.184   2.880  15.880 -0.0583  0.0215 -0.1433
10390W        W27914  14.484   0.001  13.615  0.0429  0.0915 -0.1890
10391W        W27915  13.397   9.495  12.848 -0.3025 -0.0380 -0.0506
10392W        W27916  16.760  17.939   5.438  0.1233 -0.0798  0.2329
10393W        W27917   1.209   7.281   3.373  0.0331 -0.3203  0.0199
10394W        W27918  10.924   7.133   3.381 -0.2317 -0.0769  0.2490
10395W        W27919   3.986   1.546   0.312  0.4401 -0.0093 -0.1619
10396W        W27920  16.646  13.378   0.450 -0.0343  0.0990 -0.4366
10397W        W27921   9.236  14.904  14.059 -0.0481 -0.1325 -0.2509
10398W        W27922   0.036   2.383   3.771 -0.0464 -0.2644 -0.1529
10399W        W27923   5.856   6.060   4.368 -0.1628  0.1034  0.1443
10400W        W27924   8.440   7.846   2.729  0.0437  0.2087 -0.2300
10401W        W27925   7.824   2.270   3.803  0.0358 -0.2661 -0.0276
10402W        W27926  14.875   9.467  13.762  0.0649 -0.0186 -0.2881
10403W        W27927  16.360  15.471   5.025 -0.0753 -0.2597 -0.0680
10404W        W27928  18.077   7.579  10.305 -0.1317 -0.0825 -0.0218
10405W        W27929  12.684   9.695   3.847 -0.0084 -0.0348 -0.2252
10406W        W27930   9.418   3.360   1.293 -0.3646 -0.0828 -0.1500
10407W        W27931  10.424   2.320   3.846 -0.1275  0.0567 -0.0514
10408W        W27932   4.351   8.862   2.284  0.2452  0.1906  0.1469
10409W        W27933  17.044   8.001   0.498 -0.2700 -0.2480 -0.1216
10410W        W27934   2.238   2.457  12.005 -0.1217 -0.2277 -0.1327
10411W        W27935   3.395   6.825   0.313 -0.2225  0.0172 -0.0525
10412W        W27936   4.567  17.685  15.193 -0.0414 -0.1367 -0.2910
10413W        W27937  16.080  17.179   2.567  0.3603 -0.1447 -0.0895
10414W        W27938  17.142   8.950  15.275  0.1289 -0.1741 -0.1081
10415W        W27939  17.605  15.875  11.742 -0.0113 -0.1419  0.2922
10416W        W27940  17.580   5.190   4.172  0.1985 -0.4766 -0.1203
10417W        W27941   0.942  12.625  11.211 -0.0502 -0.0120 -0.0289
10418W        W27942  16.790   4.602  12.720 -0.1574 -0.1071 -0.1659
10419W        W27943   3.115  13.368  12.344  0.0969 -0.1802 -0.1126
10420W        W27944   7.387   9.603  13.535  0.1227  0.1192 -0.2053
10421W        W27945  12.878   7.303   2.704 -0.0658  0.0667  0.1412
10422W        W27946   2.910   2.576   1.185  0.0809  0.1338 -0.1555
10423W        W27947  18.102   5.095  12.011 -0.2095 -0.2460 -0.0083
10424W        W27948   9.221   3.464  11.557  0.3703  0.1743 -0.2116
10425W        W27949   0.373   9.649   4.761  0.0119 -0.2077  0.0793
10426W        W27950   4.841  17.357  11.943 -0.4704  0.0126 -0.0347
10427W        W27951  16.307  11.762  12.505  0.1335 -0.0089  0.0927
10428W        W27952  17.705   5.804   4.909 -0.2102  0.1111  0.2418
10429W        W27953   2.867  17.716  12.713 -0.3142  0.1060  0.0788
10430W        W27954   8.385  16.416   2.664  0.1459 -0.1128 -0.0887
10431W        W27955   4.825  16.528  13.165  0.1949 -0.2537  0.2542
10432W        W27956  16.899   1.175  12.904 -0.1758 -0.3942  0.0991
10433W        W27957   5.197  10.247   4.383  0.2565 -0.0608 -0.2693
10434W        W27958   0.954  11.666   6.144 -0.0888 -0.0172 -0.1074
10435W        W27959   0.462   5.199   2.799  0.0629  0.2068  0.0179
10436W        W27960  12.673   6.994   2.296  0.0869 -0.1733  0.4445
10437W        W27961   6.460  11.401  12.419 -0.2493  0.3852 -0.1076
10438W        W27962   2.385   8.183   2.929  0.3032  0.0622  0.2057
10439W        W27963  11.727  17.524   1.766  0.3017 -0.0674  0.0263
10440W        W27964   9.979   6.484   3.302 -0.2054 -0.1115 -0.2209
10441W        W27965  15.087  13.278   2.557 -0.3371 -0.2802  0.0752
10442W        W27966  10.445   6.952   2.415  0.2803  0.0188 -0.1292
10443W        W27967  14.973   1.027   2.854  0.2719  0.0159  0.0271
10444W        W27968   3.240  10.931  15.636  0.0789 -0.0014 -0.3357
10445W        W27969  13.703  17.241  14.129 -0.1590 -0.0666 -0.2298
10446W        W27970  11.392  10.472   3.028  0.1155  0.1605  0.1253
10447W        W27971   7.597  11.645  13.165 -0.2549  0.0310  0.0657
10448W        W27972   5.670  12.188  15.034 -0.0027 -0.1186  0.0304
10449W        W27973   4.565   4.036   3.764 -0.2817 -0.0798  0.0763
10450W        W27974  17.485  16.248   5.043  0.0249  0.2181 -0.0217
10451W        W27975  13.076   2.282   3.078  0.3429 -0.3086  0.0985
10452W        W27976   1.154  18.128  13.143 -0.4154 -0.2896 -0.1414
10453W        W27977  16.136  11.307  12.369 -0.1518 -0.0960 -0.0575
10454W        W27978   1.550   1.366  13.672 -0.3474  0.0515 -0.1176
10455W        W27979   4.595  12.544   4.128  0.2800 -0.2902  0.0112
10456W        W27980   9.347   0.578  10.336  0.1775  0.0235 -0.0967
10457W        W27981   2.793   7.116  15.953 -0.1112  0.0638 -0.1828
10458W        W27982   8.924  13.905  13.394 -0.0624 -0.1548  0.0905
10459W        W27983   7.661   2.660  12.727 -0.1066 -0.1768 -0.1759
10460W        W27984   0.504   2.209   0.836  0.1818  0.1330  0.1586
10461W        W27985  12.866   4.666   1.991 -0.1404 -0.1710 -0.0869
10462W        W27986   2.738   7.774   2.954  0.0051 -0.2184  0.2098
10463W        W27987   4.364  17.379  14.318  0.1364  0.0001 -0.0937
10464W        W27988  15.499   9.507   5.619  0.1141 -0.0577  0.2201
10465W        W27989  14.183   0.559   1.785 -0.4624  0.1121 -0.2095
10466W        W27990   0.071   4.841   2.843  0.0435  0.1300 -0.4100
10467W        W27991   0.922  12.301   1.458  0.2402  0.1913  0.1943
10468W        W27992   5.247  17.410   2.299 -0.0386  0.1331 -0.0455
10469W        W27993   4.920  14.277  14.745 -0.2291  0.0547 -0.0435
10470W        W27994  11.911   8.019  15.893 -0.2233  0.1741  0.0533
10471W        W27995  10.309  10.008   0.436  0.1025 -0.1258  0.2129
10472W        W27996   5.535  17.087   1.929  0.1028 -0.2771 -0.4479
10473W        W27997  12.069   5.740   0.957 -0.0221  0.1202 -0.0899
10474W        W27998  13.362   1.013   0.719  0.1358 -0.1830  0.0136
10475W        W27999   2.814  15.751   5.014  0.0644  0.1756 -0.2427
10476W        W28000  12.050   2.109  14.544  0.0311  0.2666  0.0178
10477W        W28001   2.073   4.462   0.235 -0.0904  0.0696 -0.2829
10478W        W28002   9.923   1.808   1.854  0.0443  0.1056 -0.1057
10479W        W28003  10.411   3.754   3.860 -0.1860 -0.0603  0.0967
10480W        W28004   4.091  14.155  15.072 -0.3474 -0.1002  0.0813
10481W        W28005   3.072   9.946  14.545  0.3052 -0.0367 -0.0675
10482W        W28006   0.327   7.933  12.080  0.4064  0.2154  0.0319
10483W        W28007  14.457  13.243   1.416  0.2011  0.0376 -0.0297
10484W        W28008   8.527   3.044  12.173  0.1190  0.2036  0.0033
10485W        W28009   6.836   1.657   2.761 -0.1597 -0.0125 -0.0259
10486W        W28010   3.852   9.464  12.038  0.1249 -0.2000  0.0026
10487W        W28011  15.081   3.242   5.450 -0.0464  0.1884 -0.1105
10488W        W28012   2.211  13.104  11.656 -0.0687  0.1034  0.0134
10489W        W28013   3.360   1.023  15.607  0.0678 -0.1251 -0.1804
10490W        W28014  10.774  13.592   1.670 -0.0260  0.0109  0.1325
10491W        W28015   2.824  15.602  12.751 -0.0682 -0.2654 -0.3433
10492W        W28016  15.147   0.189   2.914 -0.1782 -0.0949  0.2452
10493W        W28017  17.400   6.180  15.597 -0.2725  0.3856 -0.1437
10494W        W28018  16.386   7.697  11.762 -0.0226 -0.1489  0.0098
10495W        W28019  12.941   6.873   0.441  0.0675 -0.0584 -0.0099
10496W        W28020   1.404  10.581  12.480  0.0318 -0.1118 -0.4615
10497W        W28021  10.477   5.471   0.406 -0.1846  0.2968  0.2405
10498W        W28022  14.559   8.540   2.282 -0.0184 -0.1213 -0.0798
10499W        W28023  12.125  13.014  15.038  0.0487 -0.2843  0.1412
10500W        W28024  16.800   9.070  13.548  0.1007  0.1116 -0.5434
10501W        W28025  11.782   7.511  12.573 -0.2742 -0.3975  0.2354
10502W        W28026  18.037  12.236  13.378 -0.1980 -0.1008  0.0570
10503W        W28027   1.279   4.025  14.361 -0.3327 -0.1468  0.0634
10504W        W28028  15.841   5.774   2.380 -0.2153 -0.0652  0.3103
10505W        W28029   4.114   8.193   3.275  0.1443  0.0686 -0.1410
10506W        W28030   2.197   7.060   2.259  0.0019  0.2324 -0.2542
10507W        W28031   3.485   4.848   0.540 -0.0355  0.0611  0.3549
10508W        W28032   1.073  17.184  10.551  0.2665 -0.1967 -0.2776
10509W        W28033   4.063  13.366  11.326 -0.0707 -0.4349 -0.1547
10510W        W28034  12.505   1.954  14.841  0.1598 -0.3299 -0.0435
10511W        W28035   2.250   5.176  12.794 -0.0440  0.0491 -0.1468
10512W        W28036  16.810   0.035   3.373 -0.2332  0.2063  0.2138
10513W        W28037   2.515   8.962  14.273 -0.0694 -0.1766 -0.0711
10514W        W28038  10.927  12.008   1.165  0.3014 -0.1024 -0.1554
10515W        W28039  10.978   5.343  13.138 -0.0084 -0.0077  0.0873
10516W        W28040   9.686  11.458   1.154 -0.1241 -0.0958 -0.3966
10517W        W28041  16.456  10.621  15.459  0.0489  0.0351 -0.2460
10518W        W28042  10.873  15.810   3.841 -0.2272 -0.0707  0.1589
10519W        W28043   2.719   1.461   1.645  0.3463  0.0923  0.1017
10520W        W28044   3.963   5.670  12.640  0.0814  0.0342 -0.1180
10521W        W28045   7.006   9.765   1.748  0.0283 -0.3099  0.2348
10522W        W28046   7.505   0.900   3.601  0.2213  0.3777 -0.2496
10523W        W28047   8.318   2.757  14.526  0.0125 -0.0743 -0.1324
10524W        W28048   0.070   8.587  14.871  0.4286  0.0425  0.0682
10525W        W28049   4.766   8.844  12.961 -0.0231  0.0942  0.1040
10526W        W28050  11.313   4.103   3.829  0.0391  0.1673  0.0464
10527W        W28051  14.851   5.708   2.303  0.1163 -0.0623  0.0839
10528W        W28052  12.221   2.597  15.999  0.0622  0.1434 -0.0505
10529W        W28053   0.498  17.509   4.118  0.0721  0.1198  0.2192
10530W        W28054  14.159  10.055  13.273 -0.1346  0.0036 -0.3511
10531W        W28055  16.685  16.604  12.295 -0.3260  0.0312 -0.1866
10532W        W28056   6.845   9.315   0.859 -0.0764 -0.0961  0.2018
10533W        W28057  16.981  11.380  13.190 -0.2157  0.0573  0.2141
10534W        W28058   9.830   4.642  11.672  0.3570 -0.1186 -0.0546
10535W        W28059   6.889   4.128  11.318  0.1605 -0.2136 -0.0454
10536W        W28060   7.966   9.751   2.040 -0.2801 -0.0955  0.1105
10537W        W28061  15.620   3.179   2.956  0.2006  0.0849  0.2071
10538W        W28062  15.742   7.998   0.390  0.2224  0.0147 -0.0010
10539W        W28063   8.436  15.507  12.761 -0.2721 -0.2081 -0.0700
10540W        W28064   2.195   8.664  13.307 -0.0754 -0.1430  0.0942
10541W        W28065   3.398   3.163  13.715 -0.0042 -0.3819  0.2094
10542W        W28066  17.139   0.576  14.877  0.1045  0.3315  0.0615
10543W        W28067   6.319  15.319   0.137  0.0123  0.1741  0.1535
10544W        W28068  14.118  15.448  13.617 -0.0970  0.0354 -0.1630
10545W        W28069  17.482   8.603   3.646  0.2340  0.0862 -0.1084
10546W        W28070   0.154  16.497  15.034 -0.2474 -0.1317  0.1953
10547W        W28071   7.741  13.012  13.105  0.1557  0.2120 -0.0038
10548W        W28072  17.778  15.442   2.526  0.0698  0.0534  0.2264
10549W        W28073   7.171  12.577  14.345  0.2608 -0.2366 -0.0358
10550W        W28074  13.271  12.936  12.916  0.0931  0.1140 -0.2585
10551W        W28075   9.558  17.882   4.125  0.0236 -0.0192  0.2162
10552W        W28076   8.838   7.046   0.837 -0.2541  0.1529  0.2025
10553W        W28077   3.305   2.162   4.585  0.0948  0.0383 -0.1645
10554W        W28078   8.859  13.547  12.305  0.2122  0.2391 -0.2161
10555W        W28079  15.482  14.972   3.178  0.2049  0.0269 -0.0551
10556W        W28080   6.435  11.304   2.423  0.2957 -0.1361 -0.2809
10557W        W28081  10.858   6.682  13.325 -0.3025 -0.0248 -0.1710
10558W        W28082  11.798   6.618   0.874  0.1342  0.0803 -0.0576
10559W        W28083   3.009  14.849  13.182  0.0554  0.2123  0.2591
10560W        W28084   9.935  17.099   0.780  0.2873  0.1691 -0.1598
10561W        W28085  12.688  10.019   0.158  0.2244 -0.0882 -0.2142
10562W        W28086   9.873  15.557   3.882  0.0592 -0.0895 -0.0231
10563W        W28087   4.404   9.563  11.296  0.2241 -0.0897 -0.0624
10564W        W28088  14.195   2.557   3.809 -0.0380  0.0629 -0.3434
10565W        W28089  17.071  13.411  14.434  0.4435  0.3994 -0.4490
10566W        W28090  14.974  16.683   3.642 -0.2087  0.2028 -0.3741
10567W        W28091  12.623   1.064   2.849  0.3906 -0.0384 -0.2623
10568W        W28092   5.660   6.905  14.154 -0.0638 -0.2321 -0.1629
10569W        W28093  10.277   1.501   0.578  0.4652  0.0159 -0.0615
10570W        W28094   7.047   8.956   2.194 -0.2733  0.2583  0.1401
10571W        W28095   6.682  12.903  15.629 -0.0850  0.3773  0.1182
10572W        W28096   0.359  14.780  11.828 -0.2498 -0.1387 -0.3575
10573W        W28097   2.552  12.755  12.809 -0.1358 -0.2393 -0.3501
10574W        W28098  13.859   7.666   4.002 -0.2358  0.1404 -0.1229
10575W        W28099   6.039   1.832   1.463  0.0373  0.1338  0.3655
10576W        W28100   1.262  17.089   5.651  0.3030  0.2577  0.0848
10577W        W28101  11.054   6.264   3.341  0.0897  0.0151 -0.0803
10578W        W28102   3.986   9.615   0.785 -0.4153  0.2176 -0.1457
10579W        W28103  10.308   4.771   0.614  0.0777  0.0896 -0.4956
10580W        W28104  16.590  17.237   1.188  0.2199 -0.0566  0.3302
10581W        W28105  15.367   8.396  11.608 -0.0612  0.0859  0.0856
10582W        W28106   8.242  17.174  13.314 -0.3279 -0.0600  0.0368
10583W        W28107  11.584   2.247  11.641  0.0828  0.0676 -0.2253
10584W        W28108   2.501  13.536  11.452  0.2749  0.1629  0.0808
10585W        W28109  15.570  10.050   5.577 -0.0207 -0.1189  0.2418
10586W        W28110   1.257   7.519  11.195 -0.0421 -0.0051 -0.0210
10587W        W28111  10.876  11.845  12.448 -0.0808  0.0415  0.1562
10588W        W28112   5.079   6.176   4.473  0.1036  0.0674  0.1273
10589W        W28113   9.122  12.413   5.384 -0.0201 -0.2218  0.0341
10590W        W28114  13.708  12.435   5.371  0.1743 -0.0044  0.0625
10591W        W28115   1.128  10.773   1.531  0.1564 -0.0010 -0.1567
10592W        W28116  15.720  13.792   0.503  0.1637  0.1342  0.4441
10593W        W28117  12.966  12.601  15.218  0.3083 -0.0342 -0.1563
10594W        W28118   0.187   2.640   3.399  0.0826  0.1696 -0.3706
10595W        W28119  15.982  12.248  12.522  0.0073 -0.0076  0.0470
10596W        W28120   6.818   3.159   2.795  0.2691 -0.0380 -0.0469
10597W        W28121   0.781   8.525   1.946 -0.0800 -0.0784  0.0349
10598W        W28122  17.826   8.103  10.982 -0.2607 -0.2031 -0.1509
10599W        W28123  16.306  12.105   3.537  0.3754  0.1197 -0.0265
10600W        W28124   8.636  15.078   5.407  0.1150 -0.2606 -0.0296
10601W        W28125  12.148  10.907  13.436 -0.1246  0.1087 -0.0791
10602W        W28126  11.240   7.499  12.317 -0.0457 -0.1299 -0.0468
10603W        W28127  13.321   7.408   1.902  0.0352  0.0619 -0.0495
10604W        W28128   5.772  15.223  12.603 -0.2965  0.1675 -0.0151
10605W        W28129  13.061   2.444  13.771 -0.0148 -0.3168 -0.1360
10606W        W28130   4.076   2.087  14.576  0.3498  0.4028 -0.1477
10607W        W28131  14.721  14.239   4.019 -0.2007  0.0507  0.0442
10608W        W28132  18.140  16.884  12.740 -0.0464  0.0927 -0.2873
10609W        W28133   7.659   2.594  13.673 -0.1089  0.1481 -0.1144
10610W        W28134  13.480  11.100  12.515  0.0572  0.2112 -0.3245
10611W        W28135   1.988  16.850   4.723 -0.0412  0.0257  0.0186
10612W        W28136  10.693  10.170   4.713  0.0546 -0.1156 -0.1830
10613W        W28137   1.540  18.056  11.800  0.1648  0.2424 -0.0331
10614W        W28138  14.514  15.112   3.340 -0.2096 -0.0865  0.2402
10615W        W28139   2.278  11.501  13.387 -0.3880 -0.1150  0.0228
10616W        W28140   5.384   2.342   4.910  0.2955 -0.1305  0.0843
10617W        W28141  13.242  12.127  16.051 -0.1470  0.1390 -0.0666
10618W        W28142  12.585  11.830  14.195  0.1416  0.0900  0.0159
10619W        W28143  15.516  10.273   1.195 -0.0594 -0.4222 -0.1056
10620W        W28144   8.791  11.733   3.807  0.0183 -0.1452  0.1641
10621W        W28145  14.427   4.505   2.731  0.1034 -0.0795 -0.1288
10622W        W28146   0.351   7.869   3.422  0.0331  0.2893 -0.2733
10623W        W28147   8.183   1.884   2.454  0.0485 -0.0152 -0.0090
10624W        W28148   5.666   5.133   3.927 -0.2852  0.1321 -0.0093
10625W        W28149   8.802  14.503  12.549 -0.4665 -0.0522 -0.0941
10626W        W28150   2.208   4.907  14.866  0.1033  0.1056  0.0112
10627W        W28151   5.202   4.489  15.379 -0.1802 -0.0128 -0.2132
10628W        W28152   7.471  17.312   4.976 -0.0089  0.2273 -0.0735
10629W        W28153  13.867   3.036   4.564 -0.0819  0.2016  0.1695
10630W        W28154  11.101   8.051   2.922 -0.2386 -0.0316 -0.0241
10631W        W28155  12.168  11.411   0.227 -0.0021  0.0440  0.1384
10632W        W28156   3.479  17.804  12.697  0.0753 -0.1070  0.1845
10633W        W28157  13.933  16.307   2.744 -0.0684 -0.1581  0.1952
10634W        W28158   6.832   1.259  12.960 -0.1758 -0.2237 -0.0088
10635W        W28159   7.727   6.515  15.039 -0.0180 -0.0222  0.2803
10636W        W28160   3.504   0.887  12.330  0.1473  0.1767 -0.0288
10637W        W28161  13.009  15.993  13.818 -0.0185 -0.2567  0.0462
10638W        W28162  17.686   9.536   3.380 -0.1745 -0.1830  0.2195
10639W        W28163  11.657  14.161  15.653  0.0064 -0.3678 -0.1550
10640W        W28164  14.562  13.757   2.644  0.0096 -0.0123  0.2663
10641W        W28165  13.541   0.536  12.358  0.1459  0.1120  0.0343
10642W        W28166   5.858  17.918   4.857  0.2751 -0.0802  0.1155
10643W        W28167   9.142   8.656  11.844  0.0845 -0.3180 -0.2876
10644W        W28168   0.025  13.105  14.725  0.2233  0.0121  0.2575
10645W        W28169  17.529  17.513   5.367  0.2352  0.1137 -0.4634
10646W        W28170   6.748  15.041   2.929  0.2338 -0.2265  0.1395
10647W        W28171  10.073  10.700   2.643  0.0766 -0.0571 -0.0402
10648W        W28172  12.467   8.454   0.491 -0.5167 -0.0016 -0.1061
10649W        W28173   3.244  12.445   3.637 -0.1181  0.1398  0.0290
10650W        W28174  18.019  17.293   2.323 -0.0247 -0.1683 -0.0024
10651W        W28175   3.238   6.891   3.802 -0.1081  0.1737  0.0459
10652W        W28176   9.151   4.460   1.002 -0.1746  0.0363  0.0005
10653W        W28177  13.109   7.346  12.416  0.0989 -0.1844  0.0640
10654W        W28178  16.108   8.636  14.019 -0.0135 -0.1478 -0.1000
10655W        W28179   6.417   8.306   5.216  0.1074  0.1100 -0.1180
10656W        W28180  14.826  15.873   0.327  0.0292 -0.6481 -0.2006
10657W        W28181  14.867   0.887   0.738 -0.0883  0.2292 -0.1162
10658W        W28182  18.134   7.983   1.900  0.0663 -0.2800  0.1725
10659W        W28183  15.909  15.734  13.741  0.3656 -0.0967 -0.1583
10660W        W28184   4.265  11.872   2.311 -0.2315  0.1960  0.0499
10661W        W28185  12.789   6.785   4.269 -0.0197  0.2265 -0.1596
10662W        W28186   8.517   8.379  12.221  0.0985 -0.0754  0.0279
10663W        W28187  18.058  17.139  15.670 -0.0611  0.1296  0.0746
10664W        W28188   1.091   6.166  13.869  0.1762 -0.2183  0.0424
10665W        W28189   5.518  16.291   4.758 -0.0601  0.1492  0.2977
10666W        W28190   7.917   2.723   1.330  0.1967 -0.1321  0.2284
10667W        W28191   9.424   7.741   1.298  0.2234  0.3267  0.0329
10668W        W28192  10.756   0.286  10.429  0.1689 -0.0252  0.1253
10669W        W28193   4.384  15.167  12.463  0.1103 -0.0306  0.0604
10670W        W28194  11.652  17.776  15.551  0.0262 -0.1624  0.2300
10671W        W28195  14.137  14.967   5.271  0.0023 -0.0953  0.0217
10672W        W28196   1.378   3.814  10.626  0.0846  0.2053 -0.0007
10673W        W28197  16.482   4.253  12.985 -0.0037  0.1910  0.1413
10674W        W28198   2.543   6.578  12.009  0.0652 -0.1495  0.1809
10675W        W28199   1.588  14.421  11.717  0.2134  0.1251  0.1851
10676W        W28200  13.795   3.938   0.895 -0.0489 -0.1668  0.1953
10677W        W28201   0.381   4.776   4.404  0.2240  0.1088 -0.1061
10678W        W28202  16.252  17.841  14.094  0.0495 -0.0140 -0.1322
10679W        W28203   8.563   2.887   2.673 -0.0837  0.1212  0.1274
10680W        W28204   5.212  12.184  12.873  0.2177  0.0162 -0.0105
10681W        W28205   1.226   4.169  14.837 -0.1218 -0.0352  0.3151
10682W        W28206  15.237  10.050  14.707 -0.2882  0.1268 -0.1345
10683W        W28207  14.534   4.520   4.538  0.0154  0.0768 -0.0331
10684W        W28208  13.677  11.556   1.308  0.0732 -0.0071  0.4792
10685W        W28209  14.991   0.990  12.483  0.0688 -0.1132 -0.4255
10686W        W28210   5.867   6.146   0.052 -0.1373  0.0980  0.2267
10687W        W28211  15.834   6.957  11.963  0.0842 -0.0262  0.0057
10688W        W28212   2.987  13.453  11.389  0.0337 -0.2019 -0.1054
10689W        W28213  11.389   7.479   1.835 -0.1585 -0.1052 -0.2021
10690W        W28214   6.439   5.335  14.622 -0.0187 -0.0477  0.1039
10691W        W28215   1.486   6.291  13.245  0.2277  0.2298 -0.1395
10692W        W28216   9.085   0.282   3.154 -0.1180  0.0223  0.3369
10693W        W28217  17.083   5.970   2.041  0.0489 -0.1632 -0.3169
10694W        W28218  12.215   3.456  14.085  0.1097 -0.0678 -0.2276
10695W        W28219   3.012   3.051   1.420 -0.1148 -0.0096 -0.5268
10696W        W28220  16.519  12.236  11.148  0.1042  0.2296  0.1129
10697W        W28221  12.552  10.744  12.845 -0.0672 -0.0561 -0.0623
10698W        W28222   3.150   4.926   2.629 -0.0688 -0.1017 -0.2183
10699W        W28223   8.494  17.653  12.805  0.1457  0.1366 -0.0716
10700W        W28224   6.241   3.045   0.447 -0.2557 -0.0301  0.0045
10701W        W28225   3.006  13.791   0.750  0.2183  0.0112  0.0017
10702W        W28226   6.355  11.209  14.044 -0.2121 -0.0339  0.3214
10703W        W28227  14.499   1.768  14.631  0.1808 -0.0897 -0.4985
10704W        W28228   3.274   9.388   2.343  0.3449  0.2505 -0.0711
10705W        W28229   1.277  14.314  14.097 -0.1726 -0.1120  0.0776
10706W        W28230  12.298  10.113   0.428  0.0263 -0.0856 -0.3237
10707W        W28231  10.372  13.723  12.158  0.0214  0.0834 -0.2123
10708W        W28232  11.639   1.991   3.320 -0.0119 -0.1427 -0.0917
10709W        W28233   2.127  10.130   3.478 -0.0825  0.0670  0.1348
10710W        W28234   7.045   4.804   3.068  0.2100 -0.1815 -0.0407
10711W        W28235   8.524  14.955  11.259 -0.2660  0.0582 -0.0336
10712W        W28236  14.288  15.323   4.847 -0.1596 -0.0619  0.0591
10713W        W28237  16.947   6.077   4.514  0.2548  0.0047  0.0249
10714W        W28238  14.241   2.979   4.247  0.1967  0.0072  0.0578
10715W        W28239   9.921  10.196  15.647 -0.0065  0.0309  0.1477
10716W        W28240  17.889   5.725  12.628  0.3755  0.1406  0.0037
10717W        W28241   6.310  11.067  11.692 -0.3179  0.3200  0.1262
10718W        W28242  13.128  13.520  13.859 -0.1797  0.0788  0.0486
10719W        W28243   6.014   8.689   4.212 -0.3555 -0.0761  0.2711
10720W        W28244   1.141  16.336   3.597 -0.0361  0.1128 -0.3189
10721W        W28245  16.136   7.135   9.853 -0.0100  0.1350  0.1901
10722W        W28246   3.763   6.087   1.265  0.1762 -0.1700 -0.0396
10723W        W28247  17.218  17.199   5.049 -0.3676 -0.0875  0.2078
10724W        W28248   3.218  12.081  13.178 -0.2935  0.3272 -0.1972
10725W        W28249  15.100   0.109   1.432 -0.0394  0.1137  0.3617
10726W        W28250   6.139  16.613  14.042 -0.2495  0.0162 -0.1584
10727W        W28251   2.394  11.188   5.263  0.0579 -0.1831  0.2867
10728W        W28252   6.488  15.190  14.598  0.1699  0.0419 -0.0594
10729W        W28253  11.146   4.963   2.946  0.3079  0.0410 -0.0770
10730W        W28254   2.712  17.580  14.991 -0.0293  0.1488 -0.1424
10731W        W28255   6.464   7.001  11.103 -0.0309  0.1187  0.1041
10732W        W28256   7.636   9.624   1.584 -0.0397 -0.1047 -0.1295
10733W        W28257  10.228   1.165  12.691  0.1353 -0.2423 -0.2187
10734W        W28258   5.135  15.422   0.700 -0.0638 -0.0868  0.3673
10735W        W28259   4.415  11.545   2.958  0.3408 -0.1641  0.0916
10736W        W28260  13.489  15.666  12.360  0.2487 -0.1630  0.1760
10737W        W28261   0.785  15.693  11.685  0.0524  0.1937  0.0623
10738W        W28262  16.008   9.652   2.182  0.1512 -0.0337 -0.1368
10739W        W28263   2.272   4.018  15.467 -0.1595 -0.2439 -0.1738
10740W        W28264  11.359  11.573  14.783  0.1766 -0.0211 -0.1737
10741W        W28265   9.373   2.012   0.466  0.2665 -0.0231  0.0856
10742W        W28266  15.282   7.210   1.354  0.0031  0.1915 -0.0900
10743W        W28267  13.431   6.944   3.982  0.2637 -0.1283 -0.2132
10744W        W28268  11.830   8.887   0.884 -0.1006 -0.2099 -0.0878
10745W        W28269  12.431  14.123  12.677 -0.3100  0.3582 -0.0902
10746W        W28270  13.989   0.130   3.316  0.0370 -0.0344  0.2508
10747W        W28271   3.835   1.075   1.228 -0.1964 -0.0690 -0.1165
10748W        W28272  11.078  14.639  11.523  0.1768 -0.3134 -0.0344
10749W        W28273  12.286  15.035   3.723  0.0374  0.4455 -0.0347
10750W        W28274   1.126   5.418  13.425 -0.0518 -0.2446 -0.3294
10751W        W28275   5.206   1.689  10.990 -0.2052  0.2290  0.1505
10752W        W28276  13.058   6.067  13.334  0.0885 -0.0112  0.0976
10753W        W28277  17.115  17.588   0.567  0.1411  0.2067 -0.0473
10754W        W28278  11.288   7.114   0.524 -0.4192  0.1513 -0.0148
10755W        W28279   9.889   2.628   2.978 -0.0541  0.1551  0.0437
10756W        W28280  17.223   9.409  12.096  0.4673 -0.2769  0.1921
10757W        W28281   5.099  15.280   4.840 -0.1607  0.1991  0.0820
10758W        W28282   1.636  14.229   0.189 -0.0093  0.2487  0.0886
10759W        W28283   5.782   8.245  13.569  0.0897 -0.0961 -0.2937
10760W        W28284  11.220   9.331  15.626  0.2911  0.2999 -0.0711
10761W        W28285  13.471   4.295   1.373 -0.2180 -0.2629  0.2833
10762W        W28286   1.473  14.191   3.194  0.2403  0.2608  0.0461
10763W        W28287   9.717  10.788   3.609  0.1795 -0.4387 -0.1232
10764W        W28288  14.443   0.088  14.674  0.2974 -0.3481  0.0120
10765W        W28289   8.103  15.429  11.058 -0.1858  0.2249  0.2888
10766W        W28290   2.068   2.554   3.276  0.2481  0.0200  0.4056
10767W        W28291  15.209  17.835  14.852  0.1078  0.0870 -0.0635
10768W        W28292  15.338   3.836  15.477  0.1044 -0.0414  0.3183
10769W        W28293   6.157   2.164  14.801 -0.0128  0.2383 -0.0805
10770W        W28294  16.627   2.787  15.636  0.1751 -0.1988  0.2671
10771W        W28295  16.997  11.125  12.644  0.0927  0.1385 -0.1919
10772W        W28296   1.888  14.207   1.723 -0.2682 -0.1536  0.0840
10773W        W28297   2.648  10.401  11.861 -0.2762  0.0839 -0.0964
10774W        W28298  14.376  13.174   3.922  0.0069 -0.2129  0.0997
10775W        W28299  18.098   9.015  13.211  0.0969  0.3202 -0.1834
10776W        W28300   3.402  11.027   4.310 -0.1334 -0.2238  0.1711
10777W        W28301  10.337   1.174   0.148 -0.0367  0.1398  0.3789
10778W        W28302  11.454   1.736   3.789  0.0778 -0.2942 -0.0732
10779W        W28303   6.758  16.165  12.813  0.0945  0.1617 -0.3524
10780W        W28304   9.701   2.012  11.287  0.3252 -0.2087 -0.0065
10781W        W28305   1.498   2.088   4.593  0.0520  0.1691 -0.1011
10782W        W28306   9.917  10.524  12.701 -0.4844  0.1182 -0.2680
10783W        W28307   4.202   4.078   2.216  0.1095  0.0345  0.1820
10784W        W28308  17.180   3.110  12.496 -0.2419  0.3777 -0.0510
10785W        W28309  12.808   7.405   1.270  0.1084 -0.1725  0.2013
10786W        W28310  17.659  12.794   4.032  0.1394 -0.1861 -0.1593
10787W        W28311   8.087   0.418  12.935  0.0618  0.0946 -0.1101
10788W        W28312  17.910  14.992   3.359  0.0914  0.0001  0.1953
10789W        W28313   2.933   1.320  12.890  0.0338 -0.0710  0.0657
10790W        W28314   1.732  17.372  11.977  0.2341 -0.2516 -0.1190
10791W        W28315   4.613   8.477  15.363 -0.1674 -0.0119  0.1414
10792W        W28316  10.535   6.935  12.565  0.0522  0.0116 -0.1312
10793W        W28317   1.727  13.649  12.154  0.1056  0.3464  0.1582
10794W        W28318  10.009  12.366   1.053 -0.2933  0.3437 -0.0505
10795W        W28319  13.832  14.646  12.611  0.1847  0.1540  0.1714
10796W        W28320   6.215   9.369   2.102  0.0720 -0.0646 -0.2855
10797W        W28321  13.348  10.604   1.508 -0.0574 -0.1368  0.2757
10798W        W28322  15.038   6.677   0.591  0.1386 -0.0313 -0.0303
10799W        W28323  16.230  12.893   5.329 -0.1408  0.0413  0.2667
10800W        W28324  15.489  13.919   2.934  0.2669  0.2103 -0.1452
10801W        W28325  17.294   2.335  14.945  0.1628 -0.1367 -0.0126
10802W        W28326   1.489   9.396   5.545  0.1766 -0.1301  0.0485
10803W        W28327  14.068  16.264  16.019 -0.0240 -0.0421 -0.1666
10804W        W28328  12.104  16.927   5.387  0.2054  0.1551  0.2253
10805W        W28329   5.022   9.392   5.254  0.0549 -0.1898 -0.1747
10806W        W28330   0.503   4.743  12.690 -0.1329  0.2287  0.2674
10807W        W28331   3.570   4.112  13.466  0.0357 -0.0864 -0.0166
10808W        W28332   1.070   4.440  11.329  0.1651 -0.0123  0.0695
10809W        W28333   1.612   4.873   3.601 -0.1815  0.0851  0.0160
10810W        W28334  17.919   1.560  13.945 -0.1664  0.2040  0.0052
10811W        W28335  12.289   1.570   1.487 -0.1178  0.2653 -0.0332
10812W        W28336   4.204   2.716   4.468  0.1262  0.2292 -0.4081
10813W        W28337  12.954   5.661   6.276 -0.1288 -0.0972  0.2664
10814W        W28338   0.702  18.090   2.914 -0.1006 -0.1429  0.5707
10815W        W28339   3.987   5.507  11.935  0.1076  0.3540 -0.1123
10816W        W28340   8.965   4.998   3.439  0.0026  0.0932  0.1375
10817W        W28341   6.423   3.112   2.410  0.1128  0.0232  0.1898
10818W        W28342   0.834   7.821  11.980  0.1356 -0.0908 -0.0650
10819W        W28343  13.911   2.443   3.374 -0.2254  0.1830  0.0931
10820W        W28344   5.848  12.504  15.392  0.1396  0.0333 -0.1698
10821W        W28345   8.498  15.146  13.775 -0.1434  0.0557  0.1100
10822W        W28346  17.174   1.608  11.589  0.1675 -0.0550 -0.0331
10823W        W28347   6.037   9.869   1.225  0.5710 -0.4457  0.0874
10824W        W28348  13.351  14.627   3.950 -0.0152 -0.2388  0.1091
10825W        W28349   8.147   2.245  10.854  0.3525  0.2510 -0.0397
10826W        W28350   2.427  15.082   1.131 -0.1411  0.1620  0.1867
10827W        W28351   0.922   0.327   3.171 -0.1744 -0.0566  0.0554
10828W        W28352  17.565   9.027  13.089  0.0087 -0.0887 -0.0008
10829W        W28353   3.886  11.543   0.813  0.1078 -0.0800 -0.1303
10830W        W28354  13.401   0.985   2.262  0.0423 -0.2012 -0.2047
10831W        W28355  10.796   6.061  11.299  0.1381  0.1930  0.2114
10832W        W28356   2.376   4.477   3.753  0.1950 -0.3708 -0.0229
10833W        W28357  16.026  12.972  13.396 -0.2127  0.1079  0.0673
10834W        W28358   4.984   3.107  15.218  0.0557  0.0991 -0.1837
10835W        W28359  17.431  10.352  12.634 -0.0562  0.1819  0.2178
10836W        W28360  17.012   8.482   2.315 -0.3800  0.1525 -0.2791
10837W        W28361  13.432   5.346  12.421 -0.0197  0.1572 -0.0643
10838W        W28362  14.503   3.022   3.787  0.0135  0.2115 -0.2860
10839W        W28363   4.112  14.548   1.857 -0.0984 -0.1247  0.0969
10840W        W28364  10.937  11.429  10.512  0.3012 -0.1787 -0.0550
10841W        W28365   1.983  18.043   0.598 -0.1434  0.0917 -0.2188
10842W        W28366  13.786  14.966   3.925 -0.0568 -0.4236  0.0682
10843W        W28367  12.133   3.761   3.684  0.1265  0.3839 -0.0165
10844W        W28368   6.261   6.308  14.476  0.1225 -0.1677  0.2227
10845W        W28369  14.574  10.473   4.131 -0.2727 -0.3032  0.0533
10846W        W28370  13.530  14.442  15.591 -0.0392  0.0223  0.2045
10847W        W28371   0.530   3.814   0.931 -0.1638  0.0772 -0.1313
10848W        W28372   1.710   0.487   2.287 -0.0840 -0.1083 -0.0766
10849W        W28373   6.081   5.357   9.819  0.0761  0.1029 -0.0855
10850W        W28374  16.447  13.159   1.224 -0.0121  0.0348  0.1245
10851W        W28375   0.623  15.585   2.533  0.1280 -0.1086  0.0562
10852W        W28376  10.417   8.504   2.129 -0.0180  0.2913 -0.0919
10853W        W28377   1.405   2.610  13.153  0.0221 -0.0259  0.0154
10854W        W28378  16.571  12.458   3.765 -0.0987 -0.2687  0.1988
10855W        W28379   8.750  12.610   0.742  0.1405  0.2580 -0.0554
10856W        W28380   9.828   7.314   4.347 -0.0712  0.2574  0.0845
10857W        W28381  13.944   6.735   2.204  0.2682  0.0600 -0.0279
10858W        W28382  13.438   9.200  15.769 -0.0941 -0.0649  0.1044
10859W        W28383  16.761  13.225  12.211  0.2907  0.2845 -0.0381
10860W        W28384   1.535   5.276   1.758 -0.1554  0.1005  0.0294
10861W        W28385  15.333  16.837  14.735  0.0585  0.0361 -0.1996
10862W        W28386  17.297  13.558   4.154  0.4163  0.0614  0.0453
10863W        W28387  11.845  11.457   2.407 -0.3202  0.2227  0.0652
10864W        W28388   5.875   5.966   3.540 -0.0476 -0.0319  0.0083
10865W        W28389  17.495   2.240   3.033  0.2254 -0.0434  0.1571
10866W        W28390   8.979  10.030  15.172 -0.0909 -0.1333  0.0989
10867W        W28391   6.481   2.436  10.784 -0.0219  0.2157 -0.6402
10868W        W28392   8.986  16.556   3.743 -0.0052  0.0577  0.1471
10869W        W28393   8.009   1.931  13.964 -0.0897 -0.1567 -0.1789
10870W        W28394   4.513   1.836  11.768  0.0593  0.1982 -0.2917
10871W        W28395  12.506   0.979  12.949 -0.3576  0.1160 -0.0045
10872W        W28396   8.727  17.831   4.351 -0.1713 -0.1125  0.3382
10873W        W28397  15.909  11.281   4.781  0.1460  0.1766 -0.2032
10874W        W28398  13.644  15.384  15.830 -0.1806  0.2414  0.3779
10875W        W28399   2.745   1.853  14.706 -0.0139 -0.2429 -0.3346
10876W        W28400  16.413   2.160   4.135  0.2827  0.0263 -0.0781
10877W        W28401   7.365   9.664  11.029 -0.1589  0.1159 -0.1905
10878W        W28402   3.323  13.808  15.057 -0.3196  0.0087 -0.0271
10879W        W28403  12.603  11.475  15.038  0.2508  0.2790 -0.0912
10880W        W28404   9.760  15.949   2.366 -0.0891 -0.2945 -0.2722
10881W        W28405   4.487   5.827   3.288  0.2878 -0.0190 -0.0481
10882W        W28406  14.952   2.336  15.350 -0.3221 -0.1109 -0.0290
10883W        W28407  11.770   9.575   5.976  0.1868  0.0941  0.1608
10884W        W28408  14.086   8.140  13.342  0.0039 -0.1069  0.1086
10885W        W28409  15.308   0.377   2.363  0.0669  0.0257  0.0855
10886W        W28410  14.439   8.757   1.131  0.0635 -0.1495 -0.0192
10887W        W28411   7.553  14.266  14.521 -0.1206 -0.1693 -0.1445
10888W        W28412   2.948  16.976   3.598 -0.1004 -0.0265 -0.0023
10889W        W28413   4.474   1.364   4.580 -0.2129  0.0939 -0.1456
10890W        W28414  13.486  13.585   1.949  0.3163 -0.0147 -0.0125
10891W        W28415   1.114   7.746   4.165  0.0791  0.1503  0.2519
10892W        W28416   1.763   9.772   1.816 -0.1633 -0.0263 -0.1741
10893W        W28417   1.925  14.835  11.800 -0.1759 -0.0852  0.1258
10894W        W28418  17.586   1.650  14.856 -0.0959  0.1610  0.0755
10895W        W28419   5.898  17.125  11.710  0.1532 -0.0519  0.0737
10896W        W28420   9.080   2.785   4.458  0.2393  0.0309  0.0953
10897W        W28421  12.998   4.494   1.473 -0.0877 -0.0894 -0.4573
10898W        W28422   9.911   4.073   3.960 -0.1805  0.2801  0.1530
10899W        W28423   4.922  17.599   4.522  0.0669  0.1288  0.2656
10900W        W28424  10.726   3.053  12.251 -0.1314  0.0107 -0.1479
10901W        W28425   0.005   2.941  11.175 -0.0190  0.0367  0.1136
10902W        W28426   3.107  17.845  11.872 -0.0615  0.4015  0.0941
10903W        W28427   6.904  15.485   3.769 -0.2627 -0.0788 -0.1139
10904W        W28428  17.303  16.153  11.545 -0.0450  0.3650  0.2199
10905W        W28429   6.780   9.383   2.039 -0.1371  0.2481  0.0455
10906W        W28430  11.901   9.098   2.922  0.0672  0.1731 -0.0369
10907W        W28431   2.469  17.583   5.471  0.0174  0.0104  0.3325
10908W        W28432  10.853   4.207  11.311 -0.3095 -0.0345  0.1959
10909W        W28433  11.435  13.435   3.977 -0.0399  0.0039  0.0657
10910W        W28434  16.954  15.588   3.207  0.1450  0.0812  0.3027
10911W        W28435   5.069   2.245   9.620 -0.1410 -0.0271 -0.1892
10912W        W28436   2.524   2.014   3.727  0.0480 -0.0365  0.1081
10913W        W28437   9.843   3.471   2.560  0.3176  0.0371  0.0066
10914W        W28438  14.258  17.950   1.651 -0.0276 -0.1299  0.1833
10915W        W28439   0.502  12.020  12.683  0.0321  0.3098  0.0953
10916W        W28440  10.678   0.840  16.025  0.1057 -0.0334 -0.1261
10917W        W28441   9.332   4.888   3.722  0.0632  0.2433 -0.0170
10918W        W28442  11.867   8.325   0.637  0.1648 -0.2657 -0.1640
10919W        W28443  16.444  13.532  12.529 -0.3286 -0.4089 -0.0190
10920W        W28444   9.463   1.809   2.505 -0.0612 -0.0035  0.0826
10921W        W28445   7.330   4.231  15.949 -0.0953 -0.3033  0.0932
10922W        W28446  15.473  11.022   0.269  0.2769  0.0355 -0.0707
10923W        W28447  13.754  11.822  10.816 -0.0820 -0.0078 -0.1878
10924W        W28448   3.449   4.836  12.036  0.1905 -0.1174  0.2803
10925W        W28449   9.165   1.044  13.133 -0.0595  0.0803  0.0001
10926W        W28450  10.771   5.605  11.099  0.2127 -0.1524  0.3711
10927W        W28451   1.780  13.845   1.238  0.2438 -0.0791  0.1316
10928W        W28452   5.819  17.539  12.018  0.0966 -0.1200 -0.2867
10929W        W28453   2.976   1.003  13.777  0.0756  0.1818 -0.3015
10930W        W28454  11.629   7.202  11.400 -0.6119  0.2828  0.1738
10931W        W28455   8.419  14.021   3.743 -0.0078 -0.0240 -0.0831
10932W        W28456   2.252   6.643   1.116 -0.0043 -0.0911  0.3056
10933W        W28457   0.293  12.529   2.694  0.0013  0.1409  0.1306
10934W        W28458   1.991  14.082  15.807  0.0923 -0.0803 -0.1151
10935W        W28459  14.275   6.280  15.241 -0.1049 -0.0131  0.2756
10936W        W28460   5.869   5.298   3.094 -0.0930 -0.1588 -0.0228
10937W        W28461   6.203  14.253  15.261 -0.2474  0.1532 -0.0330
10938W        W28462   4.481   0.916  15.609 -0.4803  0.1813  0.0175
10939W        W28463   8.872  10.772   4.037  0.0789 -0.1981 -0.2430
10940W        W28464   2.244   2.734   3.950  0.1134  0.2427  0.1452
10941W        W28465   1.189  16.915  14.429 -0.0083  0.0634  0.0056
10942W        W28466   5.966  14.195  13.564  0.1876 -0.0550 -0.0086
10943W        W28467  10.771   8.446   4.640  0.2668  0.0269 -0.0897
10944W        W28468   0.941   0.217  13.478  0.0777 -0.1793 -0.2436
10945W        W28469  15.077  10.723  12.948  0.2558 -0.2149 -0.3993
10946W        W28470  11.903   2.606  15.555  0.1729  0.1950  0.2020
10947W        W28471   3.738  17.650   3.755  0.0278  0.0522  0.0648
10948W        W28472   9.502  11.059  13.259  0.1890 -0.0628 -0.2788
10949W        W28473   2.996  13.873   1.309 -0.0257  0.1800 -0.0930
10950W        W28474   5.196   7.761   4.047 -0.1622 -0.1731  0.0708
10951W        W28475  16.365   3.369   2.544  0.1598 -0.1182 -0.2522
10952W        W28476   3.113  17.582   1.443 -0.0764  0.0103  0.0766
10953W        W28477  17.825   1.082   0.534 -0.2308  0.1436 -0.3241
10954W        W28478  12.592   8.135   4.214 -0.2799 -0.1442  0.1013
10955W        W28479   9.581  12.429  11.523  0.0826  0.0782  0.1044
10956W        W28480  10.248   7.194   2.851  0.2266  0.2796 -0.0196
10957W        W28481  17.664   1.550  14.356 -0.1260  0.0955 -0.1995
10958W        W28482  13.997   8.144   4.486  0.0467  0.2071 -0.0217
10959W        W28483   3.956   0.610   3.455 -0.0572  0.0551 -0.0983
10960W        W28484   2.106   5.239   1.883  0.1596 -0.0425  0.1668
10961W        W28485  13.904  16.886  11.543 -0.0451  0.2066 -0.0569
10962W        W28486  16.068  10.812  12.031  0.0239 -0.0468 -0.2694
10963W        W28487  12.260   1.797  15.343  0.1242  0.1714  0.1397
10964W        W28488  17.064  17.551  13.080 -0.2716  0.3392  0.1776
10965W        W28489   1.701  10.999  14.994 -0.0830  0.1211  0.0697
10966W        W28490   3.723  14.126   1.328 -0.2658  0.0298  0.1672
10967W        W28491  17.062  14.793  14.350  0.0863  0.0181  0.0329
10968W        W28492  14.530   4.737   4.026 -0.2069  0.4094 -0.2627
10969W        W28493  10.841  11.321   0.734  0.1406  0.1050 -0.0623
10970W        W28494   8.358   0.781  12.833 -0.0259  0.1847 -0.0669
10971W        W28495   8.072  11.843  14.669 -0.2071 -0.1502  0.1620
10972W        W28496   8.304  12.833  13.860  0.2263  0.0010 -0.0388
10973W        W28497   7.344   9.239  11.670 -0.1364 -0.0236 -0.1013
10974W        W28498   2.131  17.490   0.531  0.1089  0.1185  0.1457
10975W        W28499   2.847   8.123  13.275 -0.4414 -0.1185 -0.1521
10976W        W28500  13.518   1.769  13.197 -0.4583 -0.0587 -0.3947
10977W        W28501   6.760   4.619  13.095  0.0941 -0.0152 -0.1808
10978W        W28502   7.204  13.054   3.552 -0.2905  0.0959 -0.0816
10979W        W28503  11.630   8.097   4.777  0.3328  0.0055  0.3069
10980W        W28504   7.204   3.246   4.105 -0.0534  0.1933 -0.2826
10981W        W28505  17.313   0.758   1.144 -0.2806 -0.0491  0.0016
10982W        W28506   9.386  10.714  12.858  0.1870 -0.3039  0.3309
10983W        W28507  15.760  13.954   1.314  0.2230 -0.1964  0.1696
10984W        W28508   6.977  16.143  14.328 -0.2128  0.0012  0.2812
10985W        W28509  12.503   0.646   1.215  0.2494 -0.1213 -0.1390
10986W        W28510   0.595  13.309  10.953 -0.3007 -0.0169  0.2013
10987W        W28511  17.314   2.763   3.286 -0.1029  0.1706 -0.2536
10988W        W28512  15.276  10.650  16.025 -0.2191 -0.1392  0.2674
10989W        W28513  12.093   2.096   0.160 -0.4149  0.1703 -0.1427
10990W        W28514   6.844  13.516  13.665  0.1393 -0.4637  0.2813
10991W        W28515  11.233  17.974   1.071  0.1221 -0.0656  0.1359
10992W        W28516   9.221  17.440   0.287  0.2012  0.0766  0.1082
10993W        W28517  13.001  11.860   2.034  0.2718  0.0756 -0.2614
10994W        W28518  12.005   3.963  13.881  0.1526 -0.1851  0.1574
10995W        W28519  14.529   1.242  15.758 -0.0859  0.1493  0.0617
10996W        W28520   6.986   5.532  11.908  0.2558 -0.2735  0.1256
10997W        W28521  15.084   4.647   0.505  0.0117  0.2366  0.0186
10998W        W28522   5.150   6.021  14.381  0.3474  0.3088  0.1426
10999W        W28523   0.698   2.907   0.582  0.1086  0.3291  0.1034
11000W        W28524  16.681   7.357  12.038 -0.2951  0.2011  0.1661
11001W        W28525  17.736   7.829  11.360 -0.0414  0.0631 -0.2778
11002W        W28526  13.945   8.892  15.416 -0.1736  0.0812 -0.1245
11003W        W28527  14.941  13.041  12.616  0.0217  0.0176 -0.0901
11004W        W28528  10.883  11.729   0.453 -0.4214  0.0565 -0.2524
11005W        W28529   3.950  17.820   4.827 -0.1632  0.0055  0.0700
11006W        W28530   2.351   0.586   3.905  0.0823 -0.4373 -0.0079
11007W        W28531   6.015  17.553   2.025 -0.0879 -0.0372  0.1854
11008W        W28532   8.050  10.655   4.779 -0.0342 -0.0313 -0.1103
11009W        W28533   6.308  16.022  10.632 -0.1896 -0.1251 -0.2006
11010W        W28534  11.357  11.866  11.543  0.0906 -0.0376  0.0607
11011W        W28535  16.612   3.166  14.883 -0.2640 -0.0761  0.0679
11012W        W28536  11.717   6.837   4.194  0.1888  0.1881 -0.3051
11013W        W28537   0.265   4.268  12.831 -0.0154 -0.1843 -0.0511
11014W        W28538   8.297  10.093  14.835 -0.2378 -0.1594  0.2171
11015W        W28539  12.260  18.140   4.576  0.0948  0.0570 -0.0455
11016W        W28540   0.248  11.223  13.297 -0.0392  0.0782 -0.1618
11017W        W28541   8.965  14.251   1.461  0.3209  0.2243  0.0399
11018W        W28542   5.810  16.619   3.148 -0.4155  0.0651  0.0854
11019W        W28543  10.723   8.530   3.082 -0.1626 -0.2578  0.0281
11020W        W28544  11.402   9.049   2.631  0.0897  0.0988 -0.1409
11021W        W28545   6.395  16.975   0.999  0.0017 -0.1250  0.0122
11022W        W28546   1.865   6.599   4.866 -0.0644  0.1818  0.2414
11023W        W28547  13.914   8.158   4.018 -0.2486  0.2040  0.0877
11024W        W28548   5.679  17.839  15.018 -0.1949  0.2749 -0.0251
11025W        W28549  13.500  14.014  12.322  0.2124 -0.1395  0.2097
11026W        W28550   8.534  14.096  11.564 -0.0818 -0.2022  0.0174
11027W        W28551  17.726  14.809   0.657 -0.0827  0.2620 -0.1635
11028W        W28552   9.306  16.123  15.749  0.0748 -0.5336  0.0203
11029W        W28553   7.872   4.110   0.797 -0.1436  0.0335  0.2605
11030W        W28554   5.423  15.797  15.422 -0.0561 -0.1365 -0.1743
11031W        W28555  17.996   7.614   3.596  0.1279 -0.3417 -0.1142
11032W        W28556   6.587   9.748   3.727  0.0588 -0.0432  0.0387
11033W        W28557   0.914   9.128  14.292  0.3617  0.0720 -0.1188
11034W        W28558   2.145  14.315   4.999  0.0595  0.2498  0.0609
11035W        W28559   0.900  10.735  13.933  0.0630  0.0170 -0.0877
11036W        W28560   7.817   5.457   1.613 -0.0831  0.2302  0.2951
11037W        W28561  18.034  12.004  13.937 -0.5269  0.0452 -0.0479
11038W        W28562   5.850   8.798  14.872 -0.3129  0.0126 -0.2681
11039W        W28563  12.114  11.911  11.356 -0.1999 -0.3162 -0.0822
11040W        W28564   3.968  11.614   2.733  0.3920  0.1657  0.1940
11041W        W28565   1.636  12.838  12.560 -0.0162 -0.0047 -0.3273
11042W        W28566   8.306   1.760  12.991 -0.2536  0.0457  0.1649
11043W        W28567  12.342  17.400  14.885  0.1032  0.1761  0.1557
11044W        W28568   0.434  17.597  12.247 -0.3032 -0.3806  0.0780
11045W        W28569  10.336  17.687  15.563  0.0098  0.0351  0.0014
11046W        W28570   6.249  16.208   1.377  0.0837 -0.0554  0.4047
11047W        W28571   6.380  11.204   2.908  0.1560 -0.1414 -0.0698
11048W        W28572  11.488  14.694  15.553 -0.1730 -0.0658  0.0914
11049W        W28573   9.043  12.043  14.551 -0.0651 -0.0097 -0.0207
11050W        W28574  18.034   1.891   3.665  0.1131  0.1154  0.0617
11051W        W28575  10.462   3.779   2.575  0.1084 -0.2077 -0.1481
11052W        W28576  14.602  17.643  13.568  0.0252  0.0386  0.2185
11053W        W28577   2.107   5.969   2.340 -0.1003  0.1339  0.3693
11054W        W28578  11.524  12.296  13.093 -0.3119 -0.0628  0.3655
11055W        W28579  11.169   2.623   4.435 -0.1527  0.1821 -0.0658
11056W        W28580  12.053  13.037   2.644 -0.1488  0.1399 -0.2664
11057W        W28581  15.047  15.269  13.563 -0.2693  0.1699 -0.0849
11058W        W28582   9.657   1.816   4.427  0.1340  0.1090 -0.3155
11059W        W28583  10.364  10.627   1.106  0.0910 -0.2039  0.0631
11060W        W28584  10.997   8.916   1.004  0.1156 -0.3476  0.1206
11061W        W28585   4.977   7.265  14.697 -0.3474  0.1976  0.0409
11062W        W28586   9.413   5.210  14.882 -0.2420 -0.0487  0.0256
11063W        W28587   3.312   7.741  15.119 -0.3867  0.2936 -0.2561
11064W        W28588  14.689  12.227  10.535  0.2407 -0.2003  0.0134
11065W        W28589   0.788  17.211  12.049 -0.0554 -0.0467 -0.3066
11066W        W28590  17.494   5.346   3.082 -0.1192 -0.3809 -0.5556
11067W        W28591  10.936   0.263  14.242  0.1392  0.0633  0.0686
11068W        W28592   5.590   0.002  12.035 -0.2153 -0.4889  0.1989
11069W        W28593  15.341  13.660  13.451 -0.1195  0.0367  0.1022
11070W        W28594   1.530   5.235   2.272  0.1500 -0.2240  0.3001
11071W        W28595   4.291  12.865  13.602  0.2399 -0.1653 -0.0934
11072W        W28596   3.690  12.813   1.374 -0.1614  0.2220  0.0772
11073W        W28597  11.124   8.150  12.127  0.1749 -0.2180  0.1547
11074W        W28598   7.633   3.424   2.018 -0.1384 -0.1464 -0.1646
11075W        W28599   6.429  11.486   1.955  0.1736  0.0942  0.1103
11076W        W28600   6.265   8.339  14.639  0.0110 -0.3395  0.1041
11077W        W28601  11.171  16.924   4.923 -0.0915  0.0887  0.3666
11078W        W28602   4.475   9.768   0.031 -0.1266 -0.3529 -0.2135
11079W        W28603   2.698   0.511  12.659 -0.0703  0.1626 -0.1861
11080W        W28604  13.298   8.811   0.949  0.1475 -0.2266 -0.1112
11081W        W28605   3.431   8.236   5.805 -0.0988  0.2414 -0.0366
11082W        W28606   0.168  17.296   3.780  0.2063  0.0520 -0.2218
11083W        W28607  16.084   1.445  11.255  0.1273 -0.1929 -0.0237
11084W        W28608   6.218  16.432   2.116 -0.1257  0.0736 -0.0116
11085W        W28609   1.342  14.584  16.004  0.1287  0.0536 -0.0547
11086W        W28610   1.165   4.587   0.619  0.1664 -0.1114 -0.1204
11087W        W28611  13.909   2.073  13.393 -0.1412 -0.2531  0.0181
11088W        W28612   9.105  14.002   4.788 -0.0958 -0.0260 -0.1680
11089W        W28613  10.962  14.293  14.514  0.0988  0.2051 -0.2884
11090W        W28614   1.911   3.781   0.243  0.2475  0.1141  0.1599
11091W        W28615   5.407   2.308   2.029 -0.1075 -0.1349  0.4712
11092W        W28616  17.998  17.115  14.593 -0.0841 -0.2399 -0.2550
11093W        W28617  17.864  16.075   5.353 -0.2690  0.0115 -0.1323
11094W        W28618   1.489   6.845  13.261  0.4357 -0.1310 -0.1438
11095W        W28619   7.708   6.094  11.421  0.0860  0.0673  0.1999
11096W        W28620   0.584   0.761   3.958  0.3345  0.4692 -0.4122
11097W        W28621   2.947   0.560  14.114  0.1119  0.2011 -0.2055
11098W        W28622  10.557  17.311  12.108 -0.3277 -0.1046  0.1222
11099W        W28623  11.847   5.551  15.140  0.0822 -0.2766  0.1279
11100W        W28624  17.320  16.026   1.515  0.1013  0.0244  0.2436
11101W        W28625   6.818   2.212  11.097  0.0468 -0.2567  0.0642
11102W        W28626   6.737   0.741  11.927 -0.0444 -0.1024  0.0129
11103W        W28627   1.183   2.799   1.834 -0.1990 -0.2540  0.1171
11104W        W28628  14.873  10.256   1.802 -0.0794 -0.1050 -0.1184
11105W        W28629   2.837  16.542  14.472  0.2536 -0.1623 -0.1143
11106W        W28630   9.910   8.165  11.469  0.0680 -0.0389  0.1844
11107W        W28631  17.484   3.463   3.299 -0.2288 -0.1957 -0.1071
11108W        W28632   4.044  10.551  12.622  0.2177  0.2956 -0.0359
11109W        W28633   9.826   1.742  11.704 -0.1763  0.0004  0.2536
11110W        W28634   8.704   3.276  13.944  0.1234 -0.0149  0.3384
11111W        W28635  10.700  10.488  14.383  0.0210  0.0500  0.2436
11112W        W28636   0.895   2.487  13.055  0.0252 -0.1646 -0.1658
11113W        W28637  11.173   5.677  15.722  0.0693  0.0793 -0.1567
11114W        W28638   8.992   6.412   1.540  0.1472 -0.1350 -0.2461
11115W        W28639  17.659   1.060  14.228  0.0224 -0.2895  0.0328
11116W        W28640  16.352  10.963   4.634  0.1195  0.0845  0.2468
11117W        W28641  17.139  11.569  15.842  0.2244  0.0450  0.2020
11118W        W28642   5.387   8.388  11.807 -0.3534  0.0755  0.1223
11119W        W28643  15.423   3.288   0.324 -0.0935 -0.0911  0.0278
11120W        W28644   9.071  11.509  13.276  0.1517 -0.1408 -0.0062
11121W        W28645  11.789  17.972   0.880  0.0870 -0.0837 -0.3465
11122W        W28646  12.009   4.810   3.538 -0.0224 -0.0650  0.0127
11123W        W28647   9.130  14.751  15.124  0.0353 -0.0005 -0.2259
11124W        W28648  12.335   7.158  12.512  0.1898  0.0524 -0.1255
11125W        W28649  14.041   7.023  13.824  0.1936  0.2368  0.0181
11126W        W28650   6.017   7.637   1.863  0.4111 -0.2396  0.1424
11127W        W28651  18.132   9.631   0.322 -0.1456 -0.1143  0.0683
11128W        W28652   9.041   5.464   3.674  0.0992  0.0787  0.2156
11129W        W28653  16.602   4.777   2.736  0.2083  0.2070 -0.3870
11130W        W28654   6.645   4.998  13.882 -0.0256  0.2007  0.1302
11131W        W28655  17.521  10.784   4.221 -0.0230  0.2022  0.1830
11132W        W28656  17.232   9.238   2.262 -0.2217  0.1314  0.1241
11133W        W28657  12.172   8.256  13.550 -0.1296  0.0687 -0.1425
11134W        W28658  11.071   6.405  14.812  0.0772 -0.0218  0.2227
11135W        W28659   3.572   5.110   4.343  0.0606  0.2092  0.2321
11136W        W28660  16.209   6.687  13.496  0.0139  0.2575  0.3010
11137W        W28661   6.649   1.711  12.886  0.0949  0.0246 -0.1429
11138W        W28662  16.287   0.651   2.997 -0.0864  0.3908 -0.3757
11139W        W28663   5.079   7.228  15.743 -0.0418  0.1842  0.0988
11140W        W28664   5.821  15.831   0.730  0.1578 -0.1540  0.1470
11141W        W28665   3.961   4.390  11.297 -0.1479  0.1529 -0.3060
11142W        W28666   5.414  14.996   5.725  0.0738 -0.2410 -0.0933
11143W        W28667   9.639   9.833  13.097  0.0532  0.2844 -0.1005
11144W        W28668   3.248  10.103   5.237 -0.0629  0.2027  0.0377
11145W        W28669  12.569   4.108  13.022 -0.0208  0.0608  0.2722
11146W        W28670   0.364   1.122   2.684 -0.1312 -0.1139  0.3792
11147W        W28671  12.700  18.009  11.270 -0.1963 -0.1883  0.0400
11148W        W28672  14.722   9.485   0.086 -0.1561 -0.0549 -0.3825
11149W        W28673   7.419   9.906   2.743 -0.1705 -0.1546  0.0171
11150W        W28674  12.153   5.948  15.282  0.0237 -0.1868  0.0793
11151W        W28675  13.045  15.487  12.144  0.0322  0.0766 -0.1759
11152W        W28676  13.492   6.534   4.884 -0.0767 -0.1127 -0.1091
11153W        W28677  13.478  17.528  12.762  0.2807 -0.0118  0.0484
11154W        W28678   5.972  17.228   1.611  0.2768 -0.2533 -0.1630
11155W        W28679  12.634   6.661  15.109  0.2650 -0.0056  0.2747
11156W        W28680   6.946  16.451  11.083  0.1720 -0.1506  0.3468
11157W        W28681   8.720  14.576  11.718  0.0414 -0.1752  0.0700
11158W        W28682  10.199   0.582   5.217  0.1279 -0.1040 -0.1261
11159W        W28683   8.583   1.979  12.156 -0.2623  0.1335 -0.0396
11160W        W28684  17.163   5.474   2.050  0.1286 -0.0394  0.0242
11161W        W28685  16.572   9.851  12.943  0.1008 -0.0640 -0.1956
11162W        W28686   8.613   8.755   1.481 -0.0578 -0.1600  0.1137
11163W        W28687   1.707   9.273   2.054 -0.1129  0.2309 -0.2310
11164W        W28688   0.818  16.418   0.890 -0.0768 -0.1064 -0.2769
11165W        W28689   0.036   0.734  10.156  0.3270  0.2137 -0.1180
11166W        W28690   7.109   0.740  12.848 -0.1702 -0.2602  0.0838
11167W        W28691   5.010  15.880   0.643  0.1635 -0.1994  0.0872
11168W        W28692  15.277  12.984   3.347 -0.0194  0.0992 -0.0939
11169W        W28693  16.071   0.848   3.445 -0.1266 -0.1230  0.2440
11170W        W28694   3.927   2.845   3.529  0.1371 -0.3179 -0.3902
11171W        W28695   7.178  14.541   4.587  0.3876  0.1061  0.0538
11172W        W28696  16.085  14.951  13.963  0.1440 -0.0770  0.1204
11173W        W28697  10.217   8.834  10.201 -0.0632 -0.0848 -0.1414
11174W        W28698   4.313   6.725   4.639 -0.1484  0.0782 -0.0596
11175W        W28699  10.382  17.386  12.869  0.0876  0.3351  0.1832
11176W        W28700  11.058  13.155   1.467 -0.0400  0.1512 -0.0985
11177W        W28701  11.565  16.267  11.386 -0.1477  0.1477 -0.1293
11178W        W28702  11.275   4.574   2.687  0.2762 -0.3029 -0.1026
11179W        W28703  11.511   7.228   0.965  0.0013  0.0348 -0.2110
11180W        W28704  16.067   1.198  14.369  0.0055  0.0690  0.0861
11181W        W28705  12.950  12.732   1.527  0.0824  0.0529  0.0741
11182W        W28706  12.089  15.408  15.061 -0.0202  0.1793 -0.1962
11183W        W28707  16.349   5.720  10.925  0.3587  0.3237 -0.2157
11184W        W28708   4.523   2.025  15.478 -0.3420  0.1083 -0.3367
11185W        W28709   4.899  13.179  13.897 -0.1981  0.4958  0.0785
11186W        W28710   1.469   5.365  11.839 -0.0965 -0.4641  0.2561
11187W        W28711   5.961  14.628   4.112 -0.2583  0.0212 -0.0350
11188W        W28712   8.886   5.841  11.102  0.1206  0.1945 -0.0354
11189W        W28713  10.938  17.516  12.417 -0.1741  0.0673 -0.0618
11190W        W28714   0.731   2.648   1.020 -0.3690 -0.1050  0.1526
11191W        W28715  16.008  16.136  13.406 -0.2144  0.2382  0.2654
11192W        W28716  16.032  10.957   2.847 -0.1751  0.0612  0.0979
11193W        W28717   6.717  18.009   3.112 -0.0721 -0.1646 -0.1738
11194W        W28718  17.621   3.995   1.602  0.2371  0.4003  0.0460
11195W        W28719   4.401   8.173  11.343 -0.3104 -0.2814  0.0037
11196W        W28720   7.726   6.935  13.048  0.0607 -0.1477  0.1844
11197W        W28721   1.922   8.269  13.493 -0.1897  0.4780  0.0650
11198W        W28722   6.048   1.863  15.969  0.2069  0.1664 -0.1059
11199W        W28723   6.270  15.801  16.010  0.1004  0.0316  0.0437
11200W        W28724  15.189  17.813   3.350 -0.0438  0.2219  0.1962
11201W        W28725  15.566  11.502  13.550 -0.3607 -0.0567  0.1834
11202W        W28726  14.478  14.201  12.284 -0.1889  0.0733  0.0040
11203W        W28727  11.124   6.979  11.622  0.0247 -0.1016  0.0315
11204W        W28728   5.593  13.903  15.970  0.0742 -0.2601 -0.1248
11205W        W28729  12.857   4.753   0.070 -0.2286  0.0353 -0.0319
11206W        W28730   5.443   8.609  12.260  0.2416 -0.3795  0.1752
11207W        W28731  17.174   4.328   0.992 -0.2142 -0.1754  0.1756
11208W        W28732   5.236   0.580   2.120 -0.1054 -0.0679 -0.1536
11209W        W28733   0.003   7.492   4.139  0.0187  0.3602  0.1351
11210W        W28734  13.477   9.022  15.246  0.1703  0.0708 -0.2337
11211W        W28735   7.716  11.605   3.052  0.1270  0.1657  0.0289
11212W        W28736   9.185  12.131  11.366  0.1892 -0.0823 -0.0722
11213W        W28737   9.246   8.040   2.237 -0.0623  0.1611 -0.0578
11214W        W28738  11.666  10.979  13.229  0.1836  0.2196 -0.0511
11215W        W28739  10.909  17.943   3.238 -0.1523 -0.4179 -0.1051
11216W        W28740   1.426  14.892   2.612 -0.0614  0.1481 -0.2910
11217W        W28741   4.226   1.231  12.847  0.0770  0.2758  0.1062
11218W        W28742   3.542   6.821  14.852 -0.1460  0.2030 -0.1681
11219W        W28743  10.091   9.560  14.359  0.0320 -0.0531  0.3011
11220W        W28744   9.987   3.928   2.309 -0.1742  0.0533 -0.0420
11221W        W28745   1.698  16.750  15.313 -0.2633  0.2905  0.1341
11222W        W28746   1.078  10.255  12.346 -0.2685 -0.0783 -0.2655
11223W        W28747  15.595   3.816   0.426 -0.1686  0.1507  0.2032
11224W        W28748  17.035  17.203   2.750 -0.2371  0.2577 -0.0044
11225W        W28749  11.529   9.176  12.924 -0.1178  0.4753  0.1114
11226W        W28750   1.296   9.953   4.217 -0.2292  0.1378  0.1835
11227W        W28751   7.737   1.537   4.241  0.0716 -0.2508 -0.1426
11228W        W28752   6.636   5.603   3.001 -0.3053  0.0235  0.0434
11229W        W28753   9.532   8.469  13.542 -0.1646  0.0967 -0.0850
11230W        W28754   7.027   1.150   0.595 -0.0327 -0.1258 -0.1363
11231W        W28755  17.760   0.298  15.146  0.3601  0.0540 -0.1435
11232W        W28756  14.168   2.376   2.948 -0.1115  0.1341 -0.2197
11233W        W28757  16.082   4.926   2.797 -0.1687  0.2083 -0.2931
11234W        W28758  10.427  15.752   4.040 -0.0163  0.2129 -0.1495
11235W        W28759  16.557   5.524   3.310 -0.0287 -0.2989 -0.2438
11236W        W28760  16.758   5.269   0.568  0.0206  0.2588  0.0223
11237W        W28761  18.050  14.203   1.893  0.3766  0.0736  0.2395
11238W        W28762  13.503   8.819   2.067  0.0240 -0.1192  0.2167
11239W        W28763   6.240  12.252  12.149 -0.1467  0.0223 -0.0021
11240W        W28764  17.851  16.883  13.991 -0.1984 -0.3578 -0.3441
11241W        W28765   3.886  16.140   0.038 -0.2528 -0.0885  0.0165
11242W        W28766  12.024  14.034   0.905  0.0398  0.1513  0.0801
11243W        W28767  14.700  13.132  13.200 -0.0761  0.4946 -0.0881
11244W        W28768  12.229  14.516   3.941 -0.3631 -0.0611  0.0496
11245W        W28769   2.001   1.431   0.757 -0.1215  0.0232 -0.1286
11246W        W28770   8.512  14.095   0.094 -0.2265 -0.0626 -0.0311
11247W        W28771   5.087  16.180   1.114 -0.3469 -0.2805 -0.1190
11248W        W28772   2.368  17.685  15.807  0.1109  0.3486  0.1831
11249W        W28773   0.582   5.711  15.366  0.1281 -0.2001 -0.0161
11250W        W28774   5.445  17.520  14.088 -0.2058 -0.0573 -0.0938
11251W        W28775  17.016  11.608  14.424  0.1595 -0.2875 -0.0969
11252W        W28776   1.161   8.122   3.707 -0.1716  0.1034 -0.0667
11253W        W28777   8.637   1.059  13.255 -0.0476 -0.1872  0.2205
11254W        W28778   7.620   5.728   0.789 -0.2101  0.0451 -0.0755
11255W        W28779   0.803   4.421  14.935 -0.1342  0.1237 -0.1092
11256W        W28780  15.902   2.662   2.074 -0.1660  0.2035  0.2205
11257W        W28781   6.665   1.566   4.647 -0.3316  0.1387 -0.2578
11258W        W28782   0.786   9.702   3.245  0.0673 -0.2814 -0.1172
11259W        W28783   8.956   5.621   2.763 -0.1572 -0.1547  0.0872
11260W        W28784  14.283  12.004  12.789  0.2193  0.1385 -0.2622
11261W        W28785   5.001   0.079  13.046 -0.1215  0.1163 -0.3212
11262W        W28786  13.984   4.693  14.111  0.0850  0.2283 -0.3159
11263W        W28787  12.948   8.339  12.336  0.0191  0.0990 -0.0087
11264W        W28788  16.317  13.844   2.181 -0.1594  0.0756  0.4404
11265W        W28789  12.723   8.179   4.830 -0.0849 -0.1607  0.1080
11266W        W28790   7.333   8.270  13.428 -0.0939 -0.0214 -0.2920
11267W        W28791   3.360  15.244   4.356  0.0420  0.0057 -0.3111
11268W        W28792  13.373   7.505   2.465  0.0116 -0.0302  0.1621
11269W        W28793  18.052  15.431   1.346  0.2362 -0.0058  0.0623
11270W        W28794  11.270   6.465   4.114  0.2064  0.1490  0.0134
11271W        W28795  13.125   2.769  12.579 -0.0126  0.0218  0.1568
11272W        W28796   8.622   4.765  11.478 -0.4166 -0.0409  0.0025
11273W        W28797  14.187   6.076   0.377 -0.2394  0.1614 -0.2500
11274W        W28798  15.330  13.922  12.510  0.1868  0.1767  0.1218
11275W        W28799   4.418  13.525  12.310  0.5054  0.0403  0.2002
11276W        W28800   6.128   5.485   0.935 -0.0448 -0.0938  0.2067
11277W        W28801  14.000  15.042  14.299 -0.4945 -0.1164 -0.0231
11278W        W28802  13.391  10.084  14.399 -0.0409  0.2198  0.0435
11279W        W28803  15.057  12.444   5.352  0.0797 -0.0914 -0.3052
11280W        W28804  17.941   5.591  12.153 -0.1876  0.0862 -0.0094
11281W        W28805  11.276   6.715   1.613 -0.0118  0.0063  0.0276
11282W        W28806  15.238  14.263  13.546 -0.1835 -0.0132  0.1525
11283W        W28807  16.989  10.631  12.596 -0.3753  0.1960  0.1029
11284W        W28808  14.539  11.029  14.271 -0.1338 -0.0542 -0.2260
11285W        W28809   0.385  16.670  11.522 -0.2601  0.2291 -0.0109
11286W        W28810   3.090   3.510   1.167 -0.1855  0.2962 -0.4643
11287W        W28811  17.957  14.746  10.592 -0.2644  0.0309 -0.1544
11288W        W28812  16.416   2.075  12.906 -0.1941  0.0711 -0.0339
11289W        W28813   5.925  12.913   4.841 -0.1139 -0.1636  0.1127
11290W        W28814   0.751   6.549  12.257  0.0804 -0.0507 -0.1024
11291W        W28815   6.111  11.739  10.896 -0.0431  0.1485 -0.2093
11292W        W28816   8.483   0.681   3.468  0.2145  0.0062 -0.1747
11293W        W28817   4.008  11.279  12.967 -0.2456  0.2876  0.2831
11294W        W28818  13.607   3.848  11.216  0.1055 -0.3670  0.2268
11295W        W28819  17.547  16.794  13.506 -0.0927  0.1018  0.0716
11296W        W28820  16.400  13.059  15.607  0.0002  0.3351 -0.0157
11297W        W28821   5.415  15.400   1.804 -0.2020  0.1718  0.2460
11298W        W28822  15.697  13.891  15.667  0.1292  0.1349 -0.1533
11299W        W28823  10.654  11.952  15.593  0.2880  0.1771  0.0150
11300W        W28824  17.114  13.472  15.860  0.0380 -0.2134  0.1193
11301W        W28825   5.430   9.195  13.978 -0.2220  0.1319  0.0102
11302W        W28826   6.722  13.529  13.145  0.0094  0.3346 -0.0459
11303W        W28827  17.977  14.757  11.846  0.1306 -0.1707 -0.1011
11304W        W28828   3.239   5.830  15.694 -0.2201  0.1451  0.3805
11305W        W28829  15.077  15.962   2.171 -0.0360 -0.2019 -0.2614
11306W        W28830   4.824   1.403  11.896  0.1684  0.0441  0.0083
11307W        W28831   3.912   5.756   0.834  0.1287 -0.0678 -0.0346
11308W        W28832   1.691   2.033   0.737  0.0411  0.1378  0.1943
11309W        W28833   8.047  11.233   4.003 -0.1849 -0.1810 -0.0860
11310W        W28834   0.644  14.251  12.720 -0.1936  0.2151 -0.1483
11311W        W28835   0.044  16.061  14.430  0.0079  0.1912  0.1379
11312W        W28836   0.262  15.992  11.737 -0.2706  0.2120  0.1760
11313W        W28837  10.172  14.363  15.774 -0.2003 -0.4144  0.1839
11314W        W28838   3.222   9.418   1.457  0.1930 -0.1643 -0.1296
11315W        W28839  16.638   7.093   2.631  0.2245 -0.3808 -0.3515
11316W        W28840   5.078   7.142  12.657 -0.1483 -0.0464  0.0162
11317W        W28841  16.411   8.439  14.708 -0.1661  0.0446 -0.1910
11318W        W28842   0.833  17.717  11.874  0.0291  0.0846 -0.2232
11319W        W28843  17.784   9.371   2.073  0.1617  0.1821  0.1463
11320W        W28844   8.274  17.911  13.698  0.1467 -0.1156 -0.2911
11321W        W28845  13.119   8.062  13.442 -0.0493  0.2377 -0.2459
11322W        W28846  10.996  12.055  15.249  0.0774 -0.1919  0.1909
11323W        W28847  12.422  13.631   2.406 -0.2269  0.0678  0.0385
11324W        W28848   4.394   4.050   4.344  0.3553  0.0956  0.3243
11325W        W28849   1.321  15.568  12.349  0.0720 -0.1812  0.1358
11326W        W28850   0.871  15.628   0.546 -0.2770  0.0817  0.0437
11327W        W28851  14.161  12.065  10.645  0.1129 -0.0871 -0.0814
11328W        W28852   4.174  17.699   0.185  0.1267 -0.2563  0.1023
11329W        W28853  16.739   2.241  15.783  0.1403  0.1441 -0.0889
11330W        W28854  10.422   3.109  14.295  0.0563  0.2261 -0.1391
11331W        W28855  11.007  11.221  13.967 -0.0902 -0.1314  0.0667
11332W        W28856   2.334  15.775  14.681  0.0687  0.2451 -0.1257
11333W        W28857   1.522   0.544   5.461 -0.0472 -0.1880 -0.0950
11334W        W28858  10.559   2.498  14.372 -0.0995 -0.1738  0.1060
11335W        W28859  13.480  14.779   1.473 -0.0295  0.0808  0.0708
11336W        W28860  17.628   8.822   2.890 -0.0339  0.1639  0.0166
11337W        W28861   6.812   1.115  13.852  0.1728  0.0638  0.0876
11338W        W28862   0.549   9.754  12.769  0.2710  0.0158 -0.1284
11339W        W28863   6.626  17.068   2.355  0.1724  0.1205  0.2983
11340W        W28864  17.129   7.576   3.704  0.0926 -0.1148  0.1504
11341W        W28865   1.395   9.902   5.743  0.0950 -0.3028  0.0198
11342W        W28866   3.859   0.527  12.559 -0.1597  0.0042 -0.0351
11343W        W28867  13.954   3.808  13.624  0.0234  0.1444 -0.0297
11344W        W28868   3.620  14.125  15.970  0.2266 -0.0712  0.1268
11345W        W28869   4.990  16.191  15.456 -0.0563 -0.2538  0.3038
11346W        W28870  17.651   8.021   4.506  0.0561  0.1726  0.3675
11347W        W28871  14.742   8.631   3.694 -0.0018  0.2198  0.3939
11348W        W28872  13.184   0.963  12.030 -0.2686  0.2535 -0.1221
11349W        W28873  10.783  15.354  14.937  0.2467 -0.0397  0.1941
11350W        W28874   3.919   3.002  14.857 -0.0279 -0.2682  0.1181
11351W        W28875   8.881   3.357  15.188  0.4508  0.1049 -0.1667
11352W        W28876   7.057  15.383  12.047  0.2055 -0.4171 -0.2971
11353W        W28877   8.348  13.845  10.904 -0.3631  0.0509 -0.1102
11354W        W28878   9.043   5.635  14.109 -0.0590 -0.0199 -0.2939
11355W        W28879   7.842   4.097  15.837  0.0403 -0.1462 -0.1519
11356W        W28880   6.240   7.323   1.085  0.0660  0.0443  0.0105
11357W        W28881   1.161  17.286  14.898 -0.0128 -0.2444 -0.1266
11358W        W28882   1.931  17.282  12.494 -0.1062 -0.0490  0.2487
11359W        W28883   1.379  16.137   2.363 -0.1774 -0.0172  0.3817
11360W        W28884   2.605   8.278  15.685 -0.0377 -0.1591 -0.1479
11361W        W28885   2.443   5.792   4.223  0.0863  0.1373  0.1840
11362W        W28886   7.618  15.316   3.051  0.0704  0.1426 -0.4026
11363W        W28887  11.222   5.919   4.164  0.2047  0.4226  0.1639
11364W        W28888   5.313   0.132   2.385  0.1491  0.1450 -0.2448
11365W        W28889   9.187   3.790  13.440 -0.2250  0.2307 -0.0428
11366W        W28890  10.589  11.866   0.834 -0.0351  0.0640  0.1518
11367W        W28891   1.819  16.415  15.673 -0.4339 -0.0463  0.0676
11368W        W28892  15.935  13.598  12.892  0.0672  0.2154 -0.1910
11369W        W28893  13.172   1.016  13.257  0.0383  0.1171  0.1607
11370W        W28894   3.187   7.643   4.282 -0.2562  0.0690  0.1819
11371W        W28895   0.218  15.392  15.544 -0.4769 -0.0294 -0.1046
11372W        W28896   2.074  15.527  13.351  0.0112  0.0928  0.2625
11373W        W28897   8.039   0.598  13.995  0.1277 -0.4671 -0.0636
11374W        W28898  13.916  11.684   1.740 -0.1425  0.2338  0.0020
11375W        W28899  15.126  16.780  13.470  0.0442 -0.2134  0.0019
11376W        W28900  14.679  15.128  14.853 -0.0914 -0.1941  0.1213
11377W        W28901  13.942  13.030  13.611  0.0104 -0.0042  0.2666
11378W        W28902   9.316   6.335  15.584  0.0090 -0.1310 -0.2320
11379W        W28903   4.090   0.723  12.969  0.3957  0.1221 -0.1097
11380W        W28904  17.535   9.338   1.212  0.0922 -0.1817  0.0945
11381W        W28905   6.274  11.692   2.988 -0.1819 -0.1280  0.1215
11382W        W28906   8.211   8.006  12.244 -0.0141 -0.1533  0.0505
11383W        W28907  17.506  17.845  11.801  0.0872  0.0563 -0.3992
11384W        W28908  17.133  13.428   3.325  0.4577 -0.1094  0.4701
11385W        W28909   4.055  10.965   3.429  0.0123 -0.2752 -0.0593
11386W        W28910  12.353   3.736  11.920  0.1025  0.1531  0.0366
11387W        W28911   8.027  17.632   1.029 -0.1203  0.0550  0.1535
11388W        W28912  10.426   5.823   2.963  0.1403  0.0590 -0.0325
11389W        W28913  15.269   0.813  12.118  0.2269 -0.2355  0.1496
11390W        W28914   4.378  12.515  15.620  0.0014 -0.0927 -0.2541
11391W        W28915  16.162  15.215  10.659 -0.1611  0.1287  0.0904
11392W        W28916  14.749  12.680   5.032 -0.0094 -0.0515  0.0917
11393W        W28917  10.615   1.285  11.510 -0.1644 -0.0226  0.1412
11394W        W28918   8.694   6.906   3.630  0.3054 -0.1380  0.3116
11395W        W28919   6.376  14.479   9.831  0.0757  0.0393  0.1517
11396W        W28920   7.193   0.585  14.350 -0.0502  0.0950  0.1706
11397W        W28921  18.068   3.175   3.577 -0.0816  0.0158 -0.2520
11398W        W28922   0.505  17.686   2.707  0.0821  0.0463  0.0575
11399W        W28923  10.452   6.488   0.408  0.1073 -0.0583  0.1211
11400W        W28924   0.740  15.523  13.039 -0.1684  0.0628  0.1253
11401W        W28925   5.776  11.179  11.600  0.1392  0.0499 -0.0463
11402W        W28926  10.465   7.586  14.741 -0.0584 -0.0928  0.3568
11403W        W28927  13.962  17.046   1.001  0.1681  0.4169 -0.1482
11404W        W28928  14.380   8.981   3.573  0.2522 -0.0487  0.1140
11405W        W28929   9.365   3.432   2.907 -0.0409 -0.2159  0.0741
11406W        W28930  10.523  10.739   5.288  0.2635 -0.2287 -0.1165
11407W        W28931   3.518   0.615  12.960  0.1253  0.2676  0.0662
11408W        W28932  16.151  10.303  14.999 -0.2099 -0.0599  0.0096
11409W        W28933   4.507  10.936   0.412  0.1567  0.0732  0.4223
11410W        W28934   5.492   4.701   4.147 -0.1392  0.1133 -0.0648
11411W        W28935   8.164   2.037  11.344  0.1225  0.0832 -0.1941
11412W        W28936  14.051  15.347  11.795 -0.2497  0.1862  0.1763
11413W        W28937   7.956  12.964   1.596 -0.0044  0.0105  0.0869
11414W        W28938   3.072   1.666  11.606  0.0697 -0.0208 -0.1472
11415W        W28939  18.104   2.295   4.713  0.2057 -0.0795  0.0616
11416W        W28940   7.336  10.966  12.615 -0.1169  0.1371 -0.4002
11417W        W28941   8.696   2.130  14.264 -0.1230  0.0594 -0.0522
11418W        W28942  11.024  12.389   1.886  0.1602  0.0202 -0.3569
11419W        W28943   6.623   2.876   0.147 -0.3362  0.2093  0.0238
11420W        W28944   9.109  17.020   3.064 -0.0813  0.1530 -0.3187
11421W        W28945  11.900  15.849  10.529  0.2979 -0.1209 -0.3471
11422W        W28946   2.508  16.850   2.334  0.2334  0.0093  0.1431
11423W        W28947   5.941   9.035   1.650 -0.0086  0.2261  0.0694
11424W        W28948   1.066  11.795   1.535  0.0881  0.2289  0.0237
11425W        W28949   6.991  11.068  10.315 -0.0866 -0.6309 -0.1053
11426W        W28950  10.368  16.037   3.052 -0.2269 -0.0909  0.3233
11427W        W28951   5.452  16.209  10.116  0.2958  0.3098  0.3553
11428W        W28952  17.781  12.808  13.961 -0.1719  0.0868 -0.0155
11429W        W28953   2.443   1.097   1.898  0.5236  0.0647  0.0735
11430W        W28954  14.270   9.819  14.086  0.0261  0.1844  0.1160
11431W        W28955  13.535  10.214   0.144 -0.0230 -0.2262  0.1690
11432W        W28956   6.057   6.394   1.353 -0.1136 -0.0721 -0.0076
11433W        W28957   7.683   8.530  13.698 -0.0718 -0.0271  0.2681
11434W        W28958  16.163  10.973  10.248 -0.3712  0.0028 -0.2078
11435W        W28959  13.554   9.753  13.351 -0.0146  0.0813 -0.0058
11436W        W28960   8.154  13.141   1.064  0.0934 -0.2448  0.1240
11437W        W28961   8.737  11.163   1.194 -0.0119  0.1893  0.1418
11438W        W28962   0.648   7.078   0.745  0.0768 -0.1326 -0.1419
11439W        W28963   7.109   9.903  12.078 -0.1206 -0.1314 -0.0315
11440W        W28964  17.056  10.855   0.894  0.3856 -0.0847  0.0216
11441W        W28965   1.522  14.791   1.253  0.0705  0.0583 -0.1290
11442W        W28966  17.830   8.655  12.229 -0.2327 -0.0074 -0.1066
11443W        W28967  10.400   6.991   0.519  0.0467 -0.0264  0.0909
11444W        W28968  16.059  13.403   3.458 -0.2254 -0.0119  0.2449
11445W        W28969   1.439   1.730  12.030 -0.2767 -0.2092  0.1163
11446W        W28970  18.020   9.794   4.561 -0.0200  0.0867 -0.0864
11447W        W28971   2.825   6.076  12.219  0.2397 -0.1747 -0.3044
11448W        W28972  10.682   0.301  15.154  0.0721  0.2317  0.0891
11449W        W28973  15.781  11.231  13.120  0.2926 -0.0886 -0.1046
11450W        W28974   2.952  10.557  15.782  0.0649  0.1178 -0.1660
11451W        W28975   7.986   7.072  14.628 -0.1432  0.1448  0.4161
11452W        W28976  10.886  11.319  14.657  0.1040  0.0390 -0.2172
11453W        W28977   0.681  13.761   2.535  0.0247 -0.0441 -0.0671
11454W        W28978   3.549  16.170  12.114 -0.0700  0.1295 -0.0907
11455W        W28979   4.368  15.700  14.191 -0.4058 -0.2199 -0.2337
11456W        W28980   7.077   7.039   1.042 -0.1204 -0.1805  0.0656
11457W        W28981   0.707   2.729   3.323  0.1190 -0.0994  0.0279
11458W        W28982  15.384  17.963   4.279  0.1385  0.1936  0.0703
11459W        W28983  10.508  16.594  12.763 -0.0730 -0.3123 -0.0170
11460W        W28984   4.654  13.743  13.658 -0.3732  0.1742 -0.2236
11461W        W28985   3.155  17.578   3.846 -0.1909 -0.0168  0.1270
11462W        W28986  16.720   7.478  13.849  0.2035  0.0906 -0.2158
11463W        W28987   0.352   0.141   4.674  0.0971 -0.1962  0.1962
11464W        W28988  17.879  16.108  12.509  0.0788  0.3362 -0.2261
11465W        W28989  14.053  14.410  13.160  0.1166 -0.0074 -0.1132
11466W        W28990  15.308  16.413  15.315  0.1330  0.0346 -0.0215
11467W        W28991   1.778   2.491  14.619  0.1654 -0.1167 -0.0634
11468W        W28992   3.815  14.747   9.944 -0.0263 -0.1770  0.0963
11469W        W28993   4.525   1.898   3.344  0.0390 -0.1609 -0.1135
11470W        W28994  13.862   2.730  13.917 -0.1484 -0.2845 -0.0407
11471W        W28995   3.513  12.111   3.263  0.0663  0.4267  0.0605
11472W        W28996  17.292   3.165   2.069 -0.3812  0.2183  0.1435
11473W        W28997   2.928   2.940   2.824 -0.1766  0.2423  0.1667
11474W        W28998  16.669   9.803   4.674  0.2423 -0.2657 -0.2195
11475W        W28999  11.832  15.078   3.233  0.0031  0.1987 -0.2916
11476W        W29000  12.549  13.983   5.044 -0.1083  0.5315 -0.0504
11477W        W29001   3.908  16.335   1.057 -0.1329  0.0457  0.2199
11478W        W29002  10.561  10.081  12.584  0.0997 -0.1204  0.1666
11479W        W29003   0.090  15.613  14.765 -0.2228  0.0638  0.0086
11480W        W29004  13.656  15.723   5.371 -0.0385  0.0369 -0.1071
11481W        W29005   0.728   2.043  12.169 -0.2892  0.5850 -0.0302
11482W        W29006  10.392  14.015   4.315 -0.5557  0.5386 -0.0586
11483W        W29007   8.491  10.335   5.806 -0.3113  0.1024  0.1464
11484W        W29008  11.723  10.432   4.004 -0.2297  0.0878  0.1238
11485W        W29009   8.491   1.357   0.173 -0.1843  0.0292 -0.0451
11486W        W29010   9.364   1.451  15.911  0.2198 -0.0791 -0.0453
11487W        W29011   9.087  14.752  13.086 -0.1893 -0.0578 -0.2757
11488W        W29012   4.104   9.742  15.193  0.0186 -0.1340 -0.1397
11489W        W29013   5.805  13.260  11.791  0.1629  0.1348  0.0629
11490W        W29014   8.762   7.076   2.723  0.0773 -0.1038  0.3503
11491W        W29015   8.871   0.926   3.782  0.1154  0.1192 -0.0027
11492W        W29016   9.578   0.657  13.143 -0.0739  0.0842 -0.0970
11493W        W29017   4.279   2.397  13.815  0.2694 -0.1783  0.2935
11494W        W29018   7.556   1.061   0.503  0.4720  0.0647  0.0893
11495W        W29019   9.848   0.902   4.944 -0.2951 -0.2138  0.0954
11496W        W29020   9.845  11.792  14.973 -0.0012  0.0646 -0.1025
11497W        W29021   5.835   3.158  11.265 -0.4865 -0.1791  0.1744
11498W        W29022  13.267   5.255  15.804  0.1531 -0.0333  0.0178
11499W        W29023   8.945   3.259  12.315  0.0988 -0.1051  0.1210
11500W        W29024   1.640   5.013  15.215 -0.1104 -0.1603 -0.1503
11501W        W29025   8.632   0.547   2.770 -0.3000  0.0715  0.0683
11502W        W29026   1.338  10.377  11.713 -0.0881 -0.0684  0.3507
11503W        W29027   7.248  15.249  13.124  0.0610 -0.0203  0.0669
11504W        W29028  14.628  10.652   3.227 -0.0397 -0.0143  0.0043
11505W        W29029  13.485   1.351   1.950  0.0468 -0.2244  0.1178
11506W        W29030  14.721   2.666   4.107 -0.0087  0.1159 -0.0224
11507W        W29031  12.089   6.200   3.292 -0.1596  0.2852  0.0176
11508W        W29032  14.118   4.875   4.788  0.3787  0.1659  0.3221
11509W        W29033   9.776   0.536   1.705  0.0040 -0.1070 -0.1145
11510W        W29034  15.534   7.589  14.319 -0.0061 -0.1298 -0.0728
11511W        W29035  14.635   2.051   4.451  0.0746  0.2748 -0.0714
11512W        W29036   8.350  15.702   3.724  0.2782 -0.1208  0.2084
11513W        W29037   2.884   5.007  10.640  0.2052 -0.0958 -0.2457
11514W        W29038   4.143  13.909   3.866  0.3476  0.0896  0.2381
11515W        W29039   8.933   1.136  14.499 -0.0391  0.1068  0.0158
11516W        W29040  10.135   8.297   3.380 -0.0054  0.4880  0.1440
11517W        W29041   1.418  16.441   4.101  0.1073 -0.0531  0.2767
11518W        W29042   3.269   4.584   2.110 -0.2697 -0.2081 -0.0091
11519W        W29043   7.069  17.813   0.817  0.0749 -0.1111 -0.1053
11520W        W29044   3.658   7.874  11.653 -0.4115 -0.0919 -0.4528
11521W        W29045  13.307  16.805   0.449  0.2130  0.2181  0.0456
11522W        W29046   7.359   9.629  15.687  0.0744 -0.0365  0.3684
11523W        W29047  17.026   3.391  14.705  0.4446 -0.1008 -0.2432
11524W        W29048  14.296  12.321   1.206 -0.2379  0.0483  0.4557
11525W        W29049  13.742  17.792   4.690 -0.0578  0.3539  0.0927
11526W        W29050   0.309   1.996   3.955  0.0181 -0.2640 -0.4037
11527W        W29051  14.728  15.985  13.044 -0.0045  0.1013 -0.2228
11528W        W29052  16.700   7.847  11.439 -0.4096  0.2166  0.0583
11529W        W29053   2.397  16.835   1.758  0.0156 -0.1745 -0.0641
11530W        W29054   9.305  14.088   5.280  0.3982 -0.2536  0.2325
11531W        W29055   6.559   3.010   4.821  0.0616  0.3156 -0.0359
11532W        W29056  11.810  11.267  15.379  0.0506  0.1304  0.0511
11533W        W29057   4.355  17.829  11.411  0.0700  0.0602  0.1483
11534W        W29058   6.265   7.194  15.447 -0.1854  0.0988  0.2577
11535W        W29059   5.696  11.256   4.091 -0.0165 -0.0976  0.1776
11536W        W29060   0.829  13.938   6.056  0.0097 -0.1663  0.2324
11537W        W29061   0.157  16.312  11.202  0.1307 -0.1169  0.2304
11538W        W29062  14.034   2.314  12.112 -0.0439 -0.1839  0.2634
11539W        W29063   1.375   9.664  15.959 -0.0255  0.1395 -0.4497
11540W        W29064  15.175  14.214   1.761  0.1304 -0.1508  0.3387
11541W        W29065   6.827  13.023  13.214 -0.2625  0.0353 -0.1745
11542W        W29066  12.084   7.015   1.494  0.1539 -0.1341  0.3437
11543W        W29067  16.926  11.830   2.757 -0.2064 -0.1306 -0.3569
11544W        W29068   7.083  13.379  10.934 -0.1733 -0.1303  0.1000
11545W        W29069   8.081   5.733  11.212  0.0931  0.2836 -0.0467
11546W        W29070   0.676   8.094  14.182 -0.0487 -0.0445 -0.1260
11547W        W29071   7.318  13.282   4.467  0.5452 -0.0150  0.0855
11548W        W29072  16.375  10.869  14.902 -0.2210 -0.1531  0.0575
11549W        W29073   0.912   8.880  12.507 -0.0848 -0.0525 -0.3556
11550W        W29074   9.737  17.289  14.709  0.2300  0.6081  0.0092
11551W        W29075   4.690  11.573   5.088 -0.3147  0.0803 -0.0349
11552W        W29076   4.463   2.317   3.054  0.1668  0.2423  0.2107
11553W        W29077   5.253   0.286   1.344  0.0352  0.0818  0.0046
11554W        W29078   3.515   7.784  12.738 -0.2622 -0.3245  0.0890
11555W        W29079   4.720  17.092   2.029  0.0433 -0.0288 -0.1497
11556W        W29080   2.464  11.210   4.291 -0.0490 -0.0572 -0.0566
11557W        W29081   6.701   0.129   1.597 -0.1152 -0.2535  0.2380
11558W        W29082  12.303   3.214  13.194  0.2678 -0.1407 -0.0957
11559W        W29083   9.769   4.847   3.479  0.1650 -0.1973  0.0474
11560W        W29084   7.149  10.701  14.442 -0.2207 -0.0179 -0.0122
11561W        W29085  11.769   0.130  14.125  0.1319  0.0415  0.0634
11562W        W29086  16.654  15.525   0.895  0.2632  0.2443  0.1814
11563W        W29087  11.746  15.983  10.957  0.0945 -0.0293 -0.0581
11564W        W29088   6.956  10.007  10.276  0.0076  0.2111 -0.0446
11565W        W29089  12.117  12.205   1.907  0.1146 -0.0543  0.0759
11566W        W29090  15.624   3.055   1.290 -0.1825  0.1087 -0.2022
11567W        W29091   4.738   2.502   0.916  0.1637 -0.0141 -0.1427
11568W        W29092   4.879  11.684  12.094  0.2685 -0.0421 -0.1143
11569W        W29093  15.726  14.157   2.565 -0.3780 -0.1715  0.3069
11570W        W29094  10.060   3.845  15.496  0.1141  0.0335  0.0299
11571W        W29095   1.038   1.859   1.572 -0.3237  0.1520  0.1192
11572W        W29096   1.694   8.778   2.984  0.1438  0.2372  0.1468
11573W        W29097   8.582   1.566   2.575 -0.3554 -0.1091  0.1201
11574W        W29098  12.488  15.546   3.674  0.0870 -0.1590 -0.1185
11575W        W29099   1.012   7.872  10.954  0.0833  0.0307  0.1117
11576W        W29100  13.058   5.981   2.408 -0.1370  0.4554 -0.0360
11577W        W29101  10.785   4.256   5.398  0.2190  0.1480  0.2269
11578W        W29102   2.135  14.825   1.775 -0.0460  0.1292  0.0474
11579W        W29103  15.230  11.425   0.590  0.1223  0.1215  0.1111
11580W        W29104   2.940  12.471   4.094  0.1150 -0.1722  0.0372
11581W        W29105   2.634  15.402  13.907 -0.0583  0.0068 -0.0549
11582W        W29106   8.608   5.727  11.611 -0.1530  0.2360 -0.0137
11583W        W29107   3.930   4.144  12.926 -0.0898  0.0512  0.2342
11584W        W29108  14.698   9.558  14.208  0.2890  0.2792  0.0801
11585W        W29109   6.512   7.962  11.381 -0.4373  0.0875 -0.1190
11586W        W29110   2.046   2.202  11.622  0.0059 -0.2673  0.3043
11587W        W29111   8.202  14.938   1.013 -0.1650 -0.1573  0.0438
11588W        W29112   1.818  16.100   4.398  0.0107  0.2188  0.1548
11589W        W29113   4.363   8.359   2.394 -0.1836 -0.0463 -0.1249
11590W        W29114   5.968   4.369   5.641  0.1320  0.1499  0.3551
11591W        W29115  17.253   7.834   3.018 -0.1041  0.2534  0.2908
11592W        W29116  11.311  11.491   4.497 -0.1271  0.2545  0.1399
11593W        W29117  11.429  11.066   5.467 -0.0256 -0.1662 -0.1354
11594W        W29118  10.121   3.237  11.482 -0.2719  0.0283  0.4146
11595W        W29119   9.278   9.695   0.305 -0.0977  0.0958 -0.0595
11596W        W29120   7.205   0.186  12.331 -0.0284  0.1279 -0.1224
11597W        W29121   7.911   3.376  10.359  0.4310 -0.1863 -0.0303
11598W        W29122  10.303  15.449  11.511  0.0654 -0.3630  0.0859
11599W        W29123  10.138   5.189   2.120  0.0075 -0.0930  0.0253
11600W        W29124   6.877  12.295  13.407 -0.0907  0.3378 -0.1404
11601W        W29125   7.363  12.249   1.670  0.1251 -0.1741 -0.1003
11602W        W29126  14.778   7.757  12.863  0.2110 -0.4700 -0.1877
11603W        W29127   4.498   6.436  11.667 -0.3400 -0.2779  0.1058
11604W        W29128   5.584  11.190   2.676  0.1477  0.1107 -0.3543
11605W        W29129   6.708  11.902   5.449  0.1255 -0.1467 -0.1058
11606W        W29130  17.084  11.389   0.809 -0.0262  0.0276  0.1141
11607W        W29131   9.895  14.596  12.164  0.0564  0.0247 -0.0381
11608W        W29132   8.234   2.328  14.259 -0.3667 -0.1692 -0.1974
11609W        W29133   8.893   3.111   3.623  0.0194 -0.0047  0.0583
11610W        W29134   1.340  11.369  13.046 -0.2433  0.2479  0.0590
11611W        W29135  16.177  14.026  11.962  0.1240  0.0326 -0.0171
11612W        W29136   8.828  16.239   0.573 -0.1793 -0.1331  0.0336
11613W        W29137   2.379  11.160  16.030 -0.0377 -0.2846  0.2584
11614W        W29138  13.418  17.207  10.989 -0.0811  0.0958 -0.2500
11615W        W29139   9.154  17.570  10.918 -0.1454  0.0456 -0.2156
11616W        W29140  10.592   3.687  15.374 -0.1935 -0.4688  0.1343
11617W        W29141   2.204   9.895   0.432 -0.1960  0.0538  0.2130
11618W        W29142   7.904  13.071  14.015  0.1318 -0.0155 -0.3091
11619W        W29143   8.082   0.913  12.133  0.1469  0.0416  0.0937
11620W        W29144   5.376  17.033   3.309 -0.0143  0.3241 -0.1788
11621W        W29145  14.495   9.193   4.876 -0.1509 -0.0322  0.2770
11622W        W29146   7.075   6.181   5.239  0.1422  0.0965 -0.0813
11623W        W29147   8.444  16.047  14.196 -0.2106  0.5677 -0.2099
11624W        W29148   0.813   8.536  14.496  0.0121  0.1345 -0.1435
11625W        W29149   4.837   7.580  12.727  0.1105 -0.0905  0.1439
11626W        W29150   8.957   7.841   4.106  0.1311  0.2605 -0.2113
11627W        W29151   0.942   9.561   4.087  0.0035 -0.0272  0.3232
11628W        W29152   9.698  11.061  14.914  0.2612  0.0681 -0.2597
11629W        W29153   8.046   1.765   3.889 -0.0457 -0.0243  0.2655
11630W        W29154   3.691  11.327   3.584 -0.0340 -0.0763  0.0093
11631W        W29155   0.568   7.064  14.697  0.0040  0.1758  0.0854
11632W        W29156  12.826  16.733  13.815  0.0245 -0.1994  0.1733
11633W        W29157  13.623  10.655  12.319  0.0624 -0.1141  0.0088
11634W        W29158  12.835  12.063  15.650  0.1032 -0.1880 -0.0516
11635W        W29159  12.962   5.503   4.294  0.0312 -0.0458  0.1783
11636W        W29160  13.815  11.456  13.054  0.0119  0.1259  0.0716
11637W        W29161  17.770   9.662   2.558 -0.0825 -0.4098  0.3171
11638W        W29162   3.802   4.888  11.335 -0.0923  0.0446 -0.0309
11639W        W29163  11.308  13.375   2.901 -0.0841  0.1690 -0.0796
11640W        W29164   7.511  12.130  12.982 -0.2573  0.0546 -0.1383
11641W        W29165   4.212  11.941   0.677 -0.0611 -0.3254 -0.1823
11642W        W29166   4.006   5.868   3.562 -0.1528 -0.1061 -0.0781
11643W        W29167  18.103   8.751   5.934 -0.0268 -0.0582 -0.3001
11644W        W29168   1.185   4.239   5.303  0.0973  0.0489  0.2975
11645W        W29169   7.185  13.734  15.693  0.1691 -0.0330 -0.0819
11646W        W29170  10.940   3.910   5.762  0.1745 -0.0861 -0.0006
11647W        W29171   0.204   9.279   2.001  0.1090  0.3552  0.2038
11648W        W29172   7.805  17.585  11.096  0.0302 -0.1537 -0.0760
11649W        W29173  17.595  14.566   2.013  0.2001 -0.0983  0.3132
11650W        W29174  18.037  13.739  15.429 -0.3332  0.3446 -0.0279
11651W        W29175  15.754   2.453   3.403 -0.1332 -0.1459 -0.2056
11652W        W29176  15.888   1.968  12.051  0.3669 -0.2119 -0.1112
11653W        W29177   6.939   1.230   1.135 -0.0090  0.0164 -0.2223
11654W        W29178   5.922  11.753   5.017  0.0674 -0.1311  0.1671
11655W        W29179  18.017   8.470  11.530 -0.1298 -0.0859  0.0924
11656W        W29180   8.571  14.323  14.090 -0.0632 -0.1385  0.2316
11657W        W29181  14.414   1.068  13.534  0.1913 -0.0339 -0.0627
11658W        W29182   2.947  16.219  15.258 -0.0772 -0.0560  0.3027
11659W        W29183   2.096  15.983   0.707  0.1489  0.0835  0.0874
11660W        W29184   0.153   0.022  10.350 -0.2441 -0.1681 -0.1475
11661W        W29185   8.674   5.152  13.543 -0.0488 -0.1214 -0.1016
11662W        W29186  17.210  11.519   0.295  0.0929 -0.0634  0.1012
11663W        W29187   4.663  12.179  10.110  0.1828  0.0784 -0.0643
11664W        W29188   4.821  10.755  12.930  0.0962  0.1504 -0.0967
11665W        W29189   4.668  15.531  13.386 -0.2682  0.2124  0.1471
11666W        W29190   4.777  11.494  12.567 -0.3736 -0.0393 -0.0224
11667W        W29191  13.846   5.735   0.552  0.1312  0.0530 -0.0916
11668W        W29192   2.295   9.251   2.389 -0.0527  0.2203 -0.2704
11669W        W29193   1.269  10.997  14.768 -0.0337  0.1462 -0.3419
11670W        W29194  10.836  13.750  12.222 -0.3039 -0.0291  0.2993
11671W        W29195  11.266   0.792   2.671  0.0987 -0.0814  0.1282
11672W        W29196   1.339   5.887   2.574 -0.1540 -0.0118  0.2188
11673W        W29197   7.720   1.534  13.907  0.2408  0.2678  0.0567
11674W        W29198   4.235  12.593   2.850  0.0899  0.1686 -0.2564
11675W        W29199   2.369   7.801   1.668  0.0146  0.1870  0.1081
11676W        W29200   5.875  16.655   1.574 -0.0628  0.2631  0.2921
11677W        W29201   6.584   8.046   3.270  0.0772 -0.0821  0.4007
11678W        W29202   2.432  11.526  13.910  0.0513  0.0426  0.1597
11679W        W29203  17.019   1.253  13.466  0.0414  0.2408  0.2045
11680W        W29204   2.914  14.485  15.757 -0.3319 -0.1622  0.0880
11681W        W29205  17.847  16.472  12.817  0.0169  0.2118 -0.1465
11682W        W29206   5.432   6.596   4.653  0.1991  0.1192 -0.0964
11683W        W29207   0.174  14.279   4.582 -0.0190  0.0868  0.1689
11684W        W29208  10.678  12.175   4.995 -0.1391  0.0575 -0.1521
11685W        W29209   9.302   0.898   1.423 -0.0886 -0.0914 -0.0537
11686W        W29210  14.184   3.437  12.812  0.0629 -0.0108 -0.0655
11687W        W29211  15.221   8.729  15.593  0.2613  0.0366 -0.2110
11688W        W29212   0.049  12.263  15.612 -0.1150 -0.1496 -0.3401
11689W        W29213  15.305   7.224  13.533 -0.2901 -0.3088  0.0455
11690W        W29214   6.608  11.898   1.590 -0.0782  0.3130 -0.1010
11691W        W29215   0.876   6.699  13.990 -0.3434 -0.1739  0.0479
11692W        W29216   9.693   0.085  15.159 -0.2997 -0.0399 -0.5064
11693W        W29217  17.948  15.761   4.081 -0.3229  0.3967 -0.0901
11694W        W29218  16.945   1.552   1.946  0.1429 -0.1415 -0.3608
11695W        W29219   8.034   6.901   4.673  0.1306  0.0838 -0.1409
11696W        W29220   6.329   1.635   3.883  0.0940  0.0242 -0.0138
11697W        W29221  16.405  14.667   0.563 -0.2018 -0.1095  0.0492
11698W        W29222   7.814   3.606   0.140  0.0583  0.3246 -0.0596
11699W        W29223   4.005  11.160   1.065 -0.3868 -0.2580  0.0911
11700W        W29224  15.541  16.498  13.476 -0.1303  0.0977  0.0329
11701W        W29225   6.702  10.938  13.780 -0.0461  0.0673  0.0256
11702W        W29226  10.952   1.381   1.352 -0.0047 -0.1653  0.2653
11703W        W29227   4.021  13.757  12.514  0.0677  0.0454 -0.0368
11704W        W29228   5.101   2.573   3.322 -0.1925  0.1393 -0.2585
11705W        W29229   0.648   9.310   5.761  0.0217 -0.1925  0.1735
11706W        W29230  11.855  17.214  14.892 -0.1483 -0.1420 -0.0247
11707W        W29231  11.771  13.133  14.175 -0.0828 -0.1577  0.0928
11708W        W29232  16.884   8.248   4.153 -0.0064 -0.0279  0.1861
11709W        W29233   3.979   9.902   4.885  0.1659 -0.3770 -0.2588
11710W        W29234  15.835   6.661  16.013  0.0850  0.3835  0.1516
11711W        W29235  14.143  16.412   2.261 -0.0050 -0.3114  0.1804
11712W        W29236   7.029  10.426   5.933 -0.1025 -0.2685 -0.0848
11713W        W29237   3.395  16.927  12.083 -0.0682 -0.4421  0.1816
11714W        W29238  17.728   4.841   3.140 -0.1136  0.3689  0.2519
11715W        W29239   5.397  14.444  12.180 -0.2018 -0.1591  0.1482
11716W        W29240  14.029   3.630  11.204  0.0895  0.3714 -0.1073
11717W        W29241  16.596  13.712   1.379 -0.1139  0.0623 -0.0712
11718W        W29242   4.667  16.487   3.700 -0.2374  0.1667 -0.0292
11719W        W29243  15.581   5.755   4.329 -0.0731 -0.0746  0.0759
11720W        W29244  13.867  15.928  13.057 -0.0622  0.0820  0.0523
11721W        W29245  17.407   2.653  12.556  0.0483 -0.0316 -0.0134
11722W        W29246  11.087   5.217  12.084 -0.2778  0.0932  0.0348
11723W        W29247   2.856  10.302   3.830 -0.4975 -0.1578  0.0949
11724W        W29248   7.505   5.636   3.783 -0.3630  0.2314 -0.1410
11725W        W29249   1.674  16.384  14.910  0.1317 -0.0855  0.1276
11726W        W29250   5.683   8.999   2.413  0.1014  0.0823  0.0907
11727W        W29251   7.482   3.303  11.875 -0.0787 -0.0710 -0.2091
11728W        W29252  11.629  16.722  14.852 -0.2029  0.2278  0.1400
11729W        W29253   9.032  14.202   2.118  0.1557 -0.4336  0.0289
11730W        W29254  12.793   6.861  11.619  0.0242 -0.1197  0.1723
11731W        W29255  16.320  17.273  12.867  0.0777  0.1023 -0.1830
11732W        W29256   7.365  14.373  13.908 -0.1821 -0.3871  0.0812
11733W        W29257   9.245   4.112  12.078  0.2245  0.2116  0.0336
11734W        W29258  17.479  10.264   0.100  0.0225  0.3701 -0.0617
11735W        W29259  11.899   0.873   5.001  0.0710  0.1059 -0.0923
11736W        W29260   3.939   3.469  12.371 -0.2255 -0.0608 -0.2112
11737W        W29261   7.908   8.156  15.278 -0.1094  0.1606  0.0799
11738W        W29262  14.231   6.065  11.106  0.0738 -0.0184  0.0482
11739W        W29263   3.573  18.043  14.096 -0.1940 -0.0953 -0.0819
11740W        W29264   1.340  14.668   4.747  0.0466 -0.0417  0.3711
11741W        W29265   5.421   4.184  12.843 -0.1095 -0.0018 -0.0018
11742W        W29266  14.937  13.154  14.756  0.2031 -0.2725  0.2308
11743W        W29267   2.734  13.774  11.797 -0.1409 -0.3386  0.0542
11744W        W29268  14.788  11.369  15.260 -0.0541  0.3896 -0.0831
11745W        W29269   6.130   4.394  15.444  0.0459 -0.1881 -0.1630
11746W        W29270  12.697   9.212  12.414 -0.0459  0.4186  0.1649
11747W        W29271   2.728   5.405   4.429 -0.2793 -0.1191 -0.0016
11748W        W29272  17.696  15.742   4.997  0.0744 -0.0190 -0.0490
11749W        W29273   6.765   2.781  15.047 -0.1458  0.3950  0.0919
11750W        W29274   2.269   3.002  14.058  0.0710  0.1435  0.2590
11751W        W29275   8.940  10.832   1.541 -0.4563  0.2539 -0.1951
11752W        W29276   1.284   1.232   3.227  0.1496 -0.1168 -0.1298
11753W        W29277  16.494   9.999  15.189  0.0566 -0.3171 -0.0181
11754W        W29278  10.392   1.008  13.903  0.4052 -0.4984 -0.0441
11755W        W29279  13.339  16.958  14.899 -0.4575  0.0011 -0.1284
11756W        W29280  14.627  11.050   3.624  0.4227 -0.1261 -0.1479
11757W        W29281   0.969  12.660   0.035 -0.0063  0.2929 -0.1410
11758W        W29282  12.041  12.745   2.126 -0.1615  0.0482  0.2588
11759W        W29283   2.901   0.781  15.895  0.5010  0.3750 -0.1777
11760W        W29284  17.332   6.221   4.113  0.1051 -0.1341  0.1038
11761W        W29285   0.004  13.382   0.444 -0.0431 -0.0997  0.3039
11762W        W29286   4.149   6.446   2.698  0.1011  0.1463  0.0837
11763W        W29287   1.014  17.125   1.580 -0.2653 -0.0146 -0.3386
11764W        W29288  12.960   5.232  15.320  0.1703  0.2205  0.2906
11765W        W29289  10.791  15.403   1.398 -0.0925  0.1857 -0.0729
11766W        W29290   3.639  14.714  10.917 -0.0899 -0.1945  0.0223
11767W        W29291  16.765   1.484  14.042 -0.0665  0.0185  0.0395
11768W        W29292   3.140   6.841   4.811  0.0774  0.1667  0.2354
11769W        W29293  17.606   7.100   1.286  0.1274 -0.0979 -0.1022
11770W        W29294   4.676   6.548   4.326  0.1111  0.0794  0.0460
11771W        W29295  12.395   1.202   3.297 -0.1258 -0.1573 -0.0357
11772W        W29296  17.218   0.436  15.363  0.0044  0.1622  0.2346
11773W        W29297  16.283   1.787   3.767  0.2164 -0.0679  0.3030
11774W        W29298   0.324  13.532  14.741  0.0225 -0.2076  0.2891
11775W        W29299  13.741   2.609  12.515  0.2160 -0.2498  0.3477
11776W        W29300   8.898  15.515  14.636 -0.1349  0.2105  0.3313
11777W        W29301  16.846   7.387  14.391 -0.0303 -0.2374 -0.2782
11778W        W29302  13.199  11.464   4.371 -0.5011 -0.1889  0.2868
11779W        W29303   4.890  15.850   3.696 -0.0510  0.1283 -0.1581
11780W        W29304   2.123  17.433   3.486 -0.1628  0.2860 -0.0219
11781W        W29305   8.768  11.124   0.347  0.1982  0.1457  0.2198
11782W        W29306   9.100  13.133  15.127 -0.1892 -0.0948 -0.1496
11783W        W29307  16.477   3.256   1.808  0.0451  0.3340  0.3279
11784W        W29308  14.472   7.885   4.506 -0.1274  0.1784  0.0662
11785W        W29309   5.422   8.031   0.236  0.0362  0.0386  0.0430
11786W        W29310  18.011  16.067  13.053  0.0296 -0.2687 -0.1704
11787W        W29311   6.954   9.844  12.815  0.2442 -0.0009  0.1119
11788W        W29312  16.686   2.553  13.680  0.0009  0.0666 -0.1401
11789W        W29313  17.836   1.218  15.061  0.0709  0.3506 -0.0590
11790W        W29314  18.084   9.285  15.340 -0.0946 -0.0565  0.0135
11791W        W29315  15.699  16.708  12.544 -0.0179 -0.3297 -0.0962
11792W        W29316   9.426  17.694  12.491 -0.2717  0.2327  0.0368
11793W        W29317   7.409  15.411   2.101 -0.0599 -0.0865 -0.0566
11794W        W29318  12.879   1.837   3.789  0.0051  0.1324 -0.2236
11795W        W29319  12.673   1.046   4.443 -0.0347  0.0856 -0.0673
11796W        W29320  15.764   0.591   3.800  0.0830  0.1599  0.1399
11797W        W29321   9.528  11.077   0.785 -0.1653  0.0044  0.0431
11798W        W29322  14.849   2.608   1.570 -0.4340 -0.0507  0.1902
11799W        W29323   2.422  11.936  13.532  0.1162  0.2270 -0.2120
11800W        W29324   2.649  10.107  11.349  0.1503 -0.2784  0.0048
11801W        W29325  12.956  15.130   0.255 -0.0746  0.0885  0.1575
11802W        W29326  16.850  13.931   4.562  0.0302 -0.0035  0.2328
11803W        W29327   4.844  18.114   2.092 -0.0492  0.1178 -0.0610
11804W        W29328  12.235  11.601  15.843 -0.0737  0.0902  0.0978
11805W        W29329   2.300   6.061  13.136  0.0688  0.0975 -0.2490
11806W        W29330   2.113   6.505   3.455  0.0970 -0.0163  0.0902
11807W        W29331   2.508   0.054   1.954 -0.0095 -0.0885 -0.1058
11808W        W29332  16.612   2.082  12.297  0.1812 -0.1589 -0.0241
11809W        W29333   8.066  10.492   1.045 -0.2160 -0.1301  0.4005
11810W        W29334   1.791   9.492  15.583 -0.2247  0.0331  0.1049
11811W        W29335  11.795  10.064  13.581  0.2650  0.0312  0.0642
11812W        W29336   6.999   3.725  14.087  0.0412 -0.1943  0.1638
11813W        W29337  14.282  11.533   0.699 -0.0925  0.2018  0.0487
11814W        W29338   8.268   9.681  13.565 -0.2321 -0.0925  0.1952
11815W        W29339   5.698   1.431  15.026  0.1064 -0.1853  0.3346
11816W        W29340   4.000  17.852   2.308  0.2962 -0.2951 -0.1532
11817W        W29341   4.692  14.830   2.798  0.0455  0.0523  0.0776
11818W        W29342  12.495   9.241  14.880 -0.1262  0.4505  0.0500
11819W        W29343   2.700   5.686   2.671  0.0235  0.1004  0.0378
11820W        W29344   2.715  13.294  11.820 -0.0003  0.1926  0.1278
11821W        W29345  11.474  17.458   4.728  0.0628 -0.1345 -0.0646
11822W        W29346  15.311   4.679  10.388  0.0702  0.2378 -0.0582
11823W        W29347   2.749   0.592  13.513  0.1496 -0.0650 -0.0797
11824W        W29348   5.764  12.423  11.115 -0.0442 -0.0158  0.0195
11825W        W29349   8.619   8.485  10.679  0.1107 -0.1385 -0.0200
11826W        W29350   2.351   7.567   2.754 -0.2242 -0.4707 -0.4138
11827W        W29351   8.324   4.870   2.804  0.1421 -0.0051  0.2555
11828W        W29352  16.654  12.521  14.807  0.1495 -0.1897  0.1150
11829W        W29353  11.963   0.825  13.117  0.0669  0.2248  0.0616
11830W        W29354   8.722   9.388   3.881  0.2191  0.1509 -0.1899
11831W        W29355  13.890   9.430   0.065 -0.0525  0.2211 -0.1247
11832W        W29356  14.141  12.466   4.581  0.1114  0.0105 -0.0794
11833W        W29357  16.270   8.694   3.685  0.2603 -0.2279  0.2079
11834W        W29358  10.227   0.723   1.226 -0.0691  0.3254  0.0852
11835W        W29359   6.519  17.631   2.847 -0.3323  0.0876 -0.1476
11836W        W29360  14.754  10.555  14.225  0.2349 -0.0268 -0.0762
11837W        W29361   5.463   4.569   2.206 -0.3408 -0.1405 -0.0318
11838W        W29362   3.188   8.175  14.040 -0.1792 -0.1508 -0.1206
11839W        W29363  18.124   5.800   5.167 -0.1824  0.3517 -0.0084
11840W        W29364  17.380   8.493  11.967  0.0531  0.2485  0.2559
11841W        W29365  13.593   6.548   3.711 -0.1635  0.1361 -0.2218
11842W        W29366   3.539   8.762   1.792 -0.3072 -0.0367 -0.1240
11843W        W29367   9.238   6.823   2.799 -0.3106  0.1509  0.0130
11844W        W29368   5.922  17.050   3.387 -0.3623 -0.0151 -0.0302
11845W        W29369  15.192   4.664   0.010 -0.2984  0.2163 -0.0466
11846W        W29370   7.716   5.786  10.739 -0.1869 -0.0870 -0.1529
11847W        W29371  14.517   3.494   0.156  0.1297  0.0347 -0.1222
11848W        W29372  15.602   4.146  11.762 -0.0064 -0.4363 -0.0493
11849W        W29373   6.366  17.830  12.969 -0.0495 -0.1351  0.4143
11850W        W29374  14.439   2.341   1.691  0.0070 -0.0607 -0.1070
11851W        W29375   6.120   2.206  13.502 -0.0900 -0.2918 -0.0575
11852W        W29376   1.438   0.867  15.804 -0.3293  0.0635 -0.1101
11853W        W29377   5.701   6.368   2.357 -0.1838  0.2825  0.1708
11854W        W29378  16.392   8.772  13.256  0.1431  0.0442 -0.0954
11855W        W29379   0.692   9.036   1.589  0.1013  0.1520  0.1006
11856W        W29380   7.262  12.689   2.751  0.0400  0.0967  0.2282
11857W        W29381  13.844   2.873  15.547 -0.1492 -0.1646  0.0857
11858W        W29382  11.106  10.924   2.779 -0.0539  0.2043 -0.3094
11859W        W29383  16.602   5.500  14.739 -0.1820 -0.0723 -0.1596
11860W        W29384   6.527   9.110  12.432  0.3113 -0.0369  0.4202
11861W        W29385  16.737  14.352  13.012  0.2292 -0.4077 -0.0956
11862W        W29386  10.352  16.895  11.053 -0.0134  0.2127 -0.0757
11863W        W29387   2.032   9.426   0.536 -0.0204 -0.0487  0.1707
11864W        W29388  17.330   0.113  14.881 -0.1033 -0.0738 -0.0888
11865W        W29389  11.115   1.990  11.609 -0.3092  0.1450  0.0624
11866W        W29390  12.365  15.086  13.752  0.2524 -0.1184  0.0046
11867W        W29391  17.699   9.833  14.473 -0.4333  0.4386 -0.1830
11868W        W29392  11.235  16.101   4.045 -0.3368  0.2202  0.0534
11869W        W29393   5.010  11.937  15.500  0.2323 -0.1854  0.0555
11870W        W29394   9.686  17.417  14.145  0.0867  0.2423 -0.0889
11871W        W29395   7.192   0.251  12.799 -0.0045 -0.3207 -0.1190
11872W        W29396   6.116  15.422  13.116  0.3244 -0.0014 -0.0438
11873W        W29397  15.921   6.832   1.619 -0.0925 -0.1289 -0.3550
11874W        W29398   3.091   9.186  12.900  0.1742 -0.1046 -0.3134
11875W        W29399   8.647  16.363   1.741 -0.2599 -0.0270  0.2675
11876W        W29400  15.742   6.009   3.857 -0.0168 -0.3264  0.0826
11877W        W29401   7.193  16.119   0.284  0.0180 -0.1947 -0.0187
11878W        W29402   7.380  16.432  14.596  0.1513  0.2686  0.0642
11879W        W29403  16.421   8.132   3.125 -0.0450  0.0572  0.1250
11880W        W29404  13.657   2.028   4.433  0.1869  0.5770 -0.2671
11881W        W29405  10.934   4.908   3.969  0.0154 -0.0625 -0.2634
11882W        W29406  16.652   9.182  10.609  0.2245  0.0884 -0.2791
11883W        W29407  10.489   1.026   0.663  0.0631  0.2086  0.1600
11884W        W29408   1.799   5.567  13.615 -0.1256 -0.4431  0.2855
11885W        W29409  15.964  16.486   1.767 -0.0167 -0.1258 -0.1239
11886W        W29410  10.477  13.276  15.083  0.1579 -0.2159 -0.3320
11887W        W29411   8.985   7.224  14.775  0.0387 -0.1002  0.0805
11888W        W29412  14.879   0.608   2.458 -0.1597  0.3975 -0.3720
11889W        W29413  12.417  14.851   2.470  0.0765 -0.0367  0.2724
11890W        W29414   6.121  14.911  13.072 -0.3444 -0.0763 -0.1730
11891W        W29415   2.412  14.837  11.729 -0.1197 -0.0208  0.1102
11892W        W29416   9.359   3.209   3.371 -0.1116  0.1972 -0.0985
11893W        W29417  12.701   6.264  11.580  0.0511 -0.0276 -0.0726
11894W        W29418   0.815   5.816  13.589  0.0053  0.2512  0.0040
11895W        W29419   6.174  13.823  15.010  0.0982 -0.0289 -0.2772
11896W        W29420  11.868   0.449  13.381 -0.1797  0.2250  0.2425
11897W        W29421   4.715  17.694  13.247  0.1087  0.0358  0.1368
11898W        W29422   1.591   3.502   2.011 -0.2209  0.1963 -0.3290
11899W        W29423  10.069   6.241   4.892 -0.2494  0.1536 -0.2499
11900W        W29424   7.685  14.211  15.064 -0.0862 -0.2354 -0.0049
11901W        W29425   9.498  11.561  12.556  0.1109  0.0550 -0.0249
11902W        W29426  18.110  13.200  13.408  0.0868 -0.0346 -0.1774
11903W        W29427   2.267  10.250   1.645 -0.0114  0.0472 -0.3987
11904W        W29428  12.848   0.256  11.590 -0.0592  0.2440 -0.3798
11905W        W29429  13.801  17.923  13.026 -0.3331  0.0835 -0.2256
11906W        W29430   8.504   1.096  14.205 -0.0830  0.2337  0.1943
11907W        W29431   5.321  14.125   2.938 -0.0080  0.0359  0.0503
11908W        W29432  15.943  12.527   3.957 -0.0908  0.1539 -0.0762
11909W        W29433   2.217  10.874   0.366 -0.0714  0.3043  0.0131
11910W        W29434  17.796  15.062   2.159 -0.2113  0.0972  0.3704
11911W        W29435  13.350  15.477   5.624 -0.2525 -0.1919 -0.1395
11912W        W29436   8.548  17.841   3.454  0.2763 -0.0011  0.3050
11913W        W29437   5.458  11.473   3.273  0.5006  0.0724  0.1611
11914W        W29438   1.398  15.170   2.157 -0.1139  0.1435 -0.1269
11915W        W29439  12.943  15.646  12.618 -0.2727 -0.2729  0.0706
11916W        W29440  17.275   0.173  14.411 -0.1174 -0.0949  0.0770
11917W        W29441  17.351  13.754   1.282 -0.0786  0.2797 -0.2523
11918W        W29442  14.812   1.558   4.543 -0.3153 -0.2856  0.2502
11919W        W29443   0.891   0.123  12.630  0.0664 -0.0258 -0.1712
11920W        W29444  17.591   2.232   4.011  0.1368  0.1761  0.3340
11921W        W29445   9.640  15.591   2.104  0.0591 -0.0037  0.1717
11922W        W29446   6.758   8.126   0.129  0.1023 -0.1951  0.0637
11923W        W29447   0.929  12.371  15.085  0.0646 -0.1900 -0.0077
11924W        W29448   6.632   1.282  13.432 -0.1086 -0.0020 -0.0652
11925W        W29449   8.972  17.482  15.951  0.0413 -0.0581 -0.3418
11926W        W29450   4.810   9.989   4.549  0.1975  0.2258 -0.0268
11927W        W29451  14.625  11.143  13.791  0.0751 -0.0110  0.2961
11928W        W29452   4.820   0.993   3.288 -0.0039  0.1008 -0.4234
11929W        W29453   5.514  12.821   0.656  0.0897  0.1897  0.0825
11930W        W29454  15.260  13.382   0.116 -0.0205  0.1454  0.1651
11931W        W29455  13.962  15.356   3.329 -0.2238  0.3110 -0.2151
11932W        W29456  16.344   2.794   0.858 -0.1728  0.3414 -0.0986
11933W        W29457  13.194  11.340   3.478  0.0504 -0.0485  0.0454
11934W        W29458  16.733   1.472   3.261 -0.0729  0.2713 -0.0715
11935W        W29459   5.633  12.849  14.293  0.0452  0.1280 -0.1889
11936W        W29460   4.741   5.752  14.234  0.1215 -0.0172  0.0279
11937W        W29461  13.672   4.561   0.579  0.0599  0.2655 -0.2681
11938W        W29462  17.195  13.474  13.644 -0.1838  0.2769  0.0980
11939W        W29463  15.246  11.984  11.511  0.2279 -0.1313 -0.0690
11940W        W29464   4.967   2.357  15.096  0.2371 -0.0741 -0.0540
11941W        W29465  13.281   9.981  12.760 -0.3098 -0.2094  0.0216
11942W        W29466  16.079   2.068   5.030  0.1780 -0.1900  0.2357
11943W        W29467  17.572  10.935  10.427  0.2163 -0.1394 -0.1896
11944W        W29468   7.564  13.664   2.655  0.0316 -0.1355 -0.0122
11945W        W29469  13.932  16.834   2.547 -0.2476  0.3048  0.1583
11946W        W29470   5.172   9.999   0.746 -0.1428  0.0128 -0.2022
11947W        W29471  14.332  16.435   4.423  0.0301  0.0454  0.0921
11948W        W29472  14.410   2.059   0.895 -0.0694  0.1950 -0.2173
11949W        W29473  18.046  10.014  11.978 -0.1749 -0.2416 -0.0809
11950W        W29474   8.257   4.092  14.655  0.1332  0.0209  0.1822
11951W        W29475   4.763  12.762   0.422  0.1566  0.0010  0.3368
11952W        W29476  10.590  16.396   3.309 -0.1009 -0.1775 -0.1511
11953W        W29477   1.272   7.002  13.866  0.1073 -0.1183 -0.3805
11954W        W29478  13.955  13.522   3.493  0.0960 -0.2494 -0.3459
11955W        W29479  12.770   5.476   3.656  0.0710 -0.1689  0.0723
11956W        W29480   7.819  15.384   2.393 -0.1009  0.1637 -0.0973
11957W        W29481   2.635  12.846  14.202  0.2178  0.2703 -0.0603
11958W        W29482  16.300  11.038  14.437 -0.5358 -0.2624 -0.1054
11959W        W29483   3.616   1.445  12.585 -0.0240  0.1799  0.0225
11960W        W29484   7.682   0.725  10.277  0.1676  0.1861  0.0191
11961W        W29485   1.908  12.808  12.109 -0.1939 -0.0970  0.2929
11962W        W29486  17.284   7.491   1.397 -0.1316 -0.3338 -0.0995
11963W        W29487  16.131   9.902  13.234 -0.0776 -0.0392 -0.0954
11964W        W29488   6.890   8.599   2.505 -0.1339 -0.0588 -0.1072
11965W        W29489   2.688   8.794  11.325  0.2283  0.0747 -0.1318
11966W        W29490  10.621  17.148  15.638 -0.0938 -0.0509  0.2004
11967W        W29491  15.758  12.120   0.518  0.0395  0.1457 -0.1229
11968W        W29492  10.846   1.170  13.876  0.1480 -0.1739 -0.2252
11969W        W29493  12.078  17.104   1.854  0.1565  0.2066 -0.2179
11970W        W29494   1.023   4.342   2.329 -0.0191  0.3964 -0.3120
11971W        W29495  11.788   0.048  13.651 -0.1550  0.0720 -0.0232
11972W        W29496  12.674  16.083   5.219 -0.1304 -0.2754 -0.0606
11973W        W29497   8.834   5.267  11.551  0.4180 -0.1196 -0.1395
11974W        W29498   6.411   0.869   4.017 -0.2033  0.0478 -0.0265
11975W        W29499   5.234   6.708  10.616 -0.0108 -0.4505  0.0351
11976W        W29500  16.207   0.430  15.271  0.2055 -0.1248  0.2632
11977W        W29501   0.654   2.976  13.260  0.1853  0.1039 -0.2886
11978W        W29502   9.182   9.406   3.578  0.0545 -0.0582  0.3426
11979W        W29503  12.932  12.385   2.254 -0.0448  0.0795 -0.1352
11980W        W29504  14.607   9.940  15.564  0.0442  0.3020 -0.2348
11981W        W29505  13.723   1.999  12.496  0.0845  0.1269  0.2627
11982W        W29506   4.679  12.136  15.075 -0.0758  0.2887 -0.0220
11983W        W29507   1.728   6.366  11.754  0.5872 -0.1495 -0.0811
11984W        W29508  11.306  12.874   4.091 -0.0933 -0.2236  0.2640
11985W        W29509   7.641  11.072  13.223 -0.0001 -0.1997 -0.1771
11986W        W29510  15.628  15.315   1.204  0.0585  0.2037 -0.5370
11987W        W29511  11.725  10.950  15.782  0.0482 -0.2265 -0.1867
11988W        W29512   1.035   5.441  12.045 -0.1090  0.0346 -0.2205
11989W        W29513   7.347  11.981   4.472 -0.1399  0.2352 -0.4093
11990W        W29514   6.844   2.425   0.446 -0.0335 -0.0866  0.3221
11991W        W29515  17.194  17.884   5.185  0.1840  0.1452 -0.0571
11992W        W29516   1.309   8.206  15.423  0.0218  0.0560 -0.3492
11993W        W29517   4.199   7.203  12.215  0.2101  0.0037 -0.1497
11994W        W29518  14.030  13.101   5.240 -0.1045  0.2129 -0.1415
11995W        W29519   9.045  16.488   3.089 -0.0690 -0.1609  0.0630
11996W        W29520  15.051  14.376  14.086  0.0017 -0.0566  0.0873
11997W        W29521  11.625   4.083  10.468 -0.2894  0.0981 -0.1984
11998W        W29522   1.241   3.396  11.573 -0.2810  0.0096 -0.0955
11999W        W29523  15.950   4.750   0.910 -0.1607 -0.1171 -0.0815
12000W        W29524   1.313  10.128  15.870  0.2682 -0.0402  0.1667
12001W        W29525  10.574   8.533   3.557  0.0402 -0.0269 -0.1171
12002W        W29526   3.270   6.635   2.960 -0.2522  0.2869 -0.1011
12003W        W29527  18.057  11.987  14.879  0.1987  0.0731  0.0418
12004W        W29528   1.176  17.304  13.620  0.1293  0.1973 -0.0795
12005W        W29529   5.036  16.480  11.829 -0.0842 -0.0762  0.3137
12006W        W29530   2.791   3.225   0.919 -0.0712  0.1596 -0.1255
12007W        W29531   8.823  17.100   0.257  0.1302  0.0444  0.0179
12008W        W29532   9.648  11.638   0.682  0.1677  0.1462  0.0807
12009W        W29533  10.310  16.702   3.507  0.1529  0.0662 -0.2586
12010W        W29534   5.204   9.600   4.384 -0.0093  0.2767 -0.3175
12011W        W29535   4.631   5.534  13.268  0.4480  0.2144 -0.2604
12012W        W29536  11.113   0.162  14.723  0.1998  0.1417  0.2888
12013W        W29537   1.837   6.526   0.411 -0.1864 -0.0830 -0.2387
12014W        W29538   0.622  12.911   2.763  0.0283 -0.0803  0.2322
12015W        W29539   9.640  14.769   3.676  0.0588  0.1488  0.4650
12016W        W29540  16.600   5.255   2.179 -0.2231 -0.0256 -0.2562
12017W        W29541   7.824   9.771  14.734 -0.2690  0.2888  0.1614
12018W        W29542  15.246   8.330  14.341 -0.0522  0.0163 -0.1316
12019W        W29543  12.259   8.226  15.615 -0.2605 -0.1767  0.1246
12020W        W29544  15.051  14.822   2.882  0.1596 -0.0390 -0.1259
12021W        W29545   5.676   2.406  14.439 -0.3051 -0.1873  0.2006
12022W        W29546  17.780  10.907   2.931  0.1552  0.1431 -0.0856
12023W        W29547   0.959   9.574   5.487  0.1280 -0.1418  0.2146
12024W        W29548   0.236   2.608  13.202 -0.0486 -0.0763 -0.1801
12025W        W29549  10.468  10.865  13.230 -0.1428 -0.0183 -0.0243
12026W        W29550  17.012   9.642  12.612  0.0529  0.0008 -0.2202
12027W        W29551  10.228  13.559   1.623 -0.2202 -0.2111 -0.0362
12028W        W29552   2.226   3.940  15.988 -0.1918 -0.1177  0.0408
12029W        W29553   8.840   6.304  10.964  0.0735 -0.0309 -0.1188
12030W        W29554   5.557   8.582   4.322  0.0587  0.0181  0.0669
12031W        W29555  17.342   9.180  13.563  0.0690  0.1606  0.1665
12032W        W29556  16.979   3.287  12.097  0.1264 -0.1460  0.1344
12033W        W29557  15.172   9.331   0.247  0.0290 -0.1228 -0.2519
12034W        W29558  15.067   8.566  12.906  0.0014  0.2282  0.2688
12035W        W29559   7.268  10.756   2.113 -0.0862 -0.2835 -0.1303
12036W        W29560  11.641  12.357  12.234  0.2158 -0.0237 -0.1455
12037W        W29561   1.555  12.059  13.652 -0.0453  0.1301 -0.0886
12038W        W29562  14.045  11.747  15.207 -0.1101  0.2004 -0.0302
12039W        W29563  15.761  11.016  13.590  0.3149 -0.1153 -0.1779
12040W        W29564  14.140   6.086   3.171  0.5020  0.1269  0.1266
12041W        W29565   6.696  16.357   1.603  0.0066  0.1762 -0.0514
12042W        W29566   2.945   7.832   0.478  0.0805 -0.1823  0.1126
12043W        W29567   6.229   6.069  10.930  0.2318  0.0826  0.0306
12044W        W29568  10.555  10.307   0.077 -0.1027  0.1329  0.0777
12045W        W29569  15.443   4.622   0.951 -0.3864 -0.1456  0.1589
12046W        W29570   1.136   8.403  12.750 -0.1325  0.0519 -0.0167
12047W        W29571  11.014  13.517   4.404  0.1142 -0.0165 -0.1159
12048W        W29572   8.776  12.787   3.529 -0.2563 -0.0088 -0.1146
12049W        W29573   5.818   0.057   2.687 -0.2678  0.1822 -0.0920
12050W        W29574   6.893   0.503   3.212  0.2823  0.0618  0.1539
12051W        W29575   7.281   6.715   4.166  0.2090  0.2484  0.1127
12052W        W29576  17.702  17.272  15.026 -0.0596 -0.1846 -0.0296
12053W        W29577  11.087  14.259  15.759  0.1565 -0.2051  0.2836
12054W        W29578   3.806   8.979  14.014  0.0609 -0.0207  0.0313
12055W        W29579   7.631  11.483   4.224  0.1135  0.1451  0.2394
12056W        W29580   6.278  11.145  15.582  0.0171  0.1213 -0.1071
12057W        W29581   6.531   1.362   0.814 -0.0009 -0.0905  0.2425
12058W        W29582  11.320   3.341  13.935  0.1276 -0.3205 -0.1597
12059W        W29583   5.862   2.728   1.515 -0.0880  0.2256 -0.0278
12060W        W29584   8.584   7.100  13.883 -0.2040 -0.0691  0.1836
12061W        W29585   2.821   0.903   1.607  0.0451  0.1633  0.3751
12062W        W29586  10.783  13.422   4.874  0.1089 -0.2086  0.1239
12063W        W29587  10.602  11.515   2.721 -0.1601  0.1152 -0.0094
12064W        W29588  16.717   9.534  11.700 -0.3556 -0.1723 -0.1472
12065W        W29589   4.877  11.853   1.681 -0.1985 -0.1197 -0.2712
12066W        W29590   9.853  14.772   3.174  0.1700 -0.2187  0.2327
12067W        W29591  17.512   9.908   2.992 -0.0089  0.0675  0.2121
12068W        W29592  18.067   3.505  11.233 -0.2334 -0.0811  0.1464
12069W        W29593   0.561   0.829  15.253  0.1016 -0.1174 -0.1645
12070W        W29594   9.417   1.439   2.139 -0.0389  0.0408  0.0975
12071W        W29595   7.436   9.361   3.442  0.2153 -0.1837 -0.5545
12072W        W29596   8.969  13.445   0.937 -0.0143 -0.2844  0.0218
12073W        W29597  17.965   5.183  14.995 -0.0087 -0.1375  0.1566
12074W        W29598  11.000  17.540  14.826  0.1837 -0.1094 -0.0109
12075W        W29599   8.052  12.157  14.285  0.2479 -0.1187 -0.1773
12076W        W29600  15.994  13.397  15.565 -0.1163 -0.0608 -0.0031
12077W        W29601  15.134  13.366   1.067  0.1951 -0.1263  0.1769
12078W        W29602  18.027   5.712  13.563  0.2855  0.1747 -0.0228
12079W        W29603  11.184   6.327  13.537  0.0811  0.0577  0.0779
12080W        W29604   1.384  13.869   1.548 -0.0380  0.0872 -0.0495
12081W        W29605  12.777  12.268   1.254 -0.0478 -0.2121  0.1515
12082W        W29606   5.693   7.149   0.997 -0.0771 -0.1761  0.0538
12083W        W29607   0.937  13.910   3.930  0.1237 -0.0709  0.4348
12084W        W29608   5.367  12.718   2.378  0.1767  0.1426  0.1255
12085W        W29609   1.957   2.360   4.633  0.0803 -0.1841  0.1917
12086W        W29610   4.118  13.298  15.223 -0.1699  0.1788  0.1337
12087W        W29611   4.669  17.731   0.355  0.0678 -0.1966 -0.1647
12088W        W29612  12.649  16.788   4.565 -0.0820  0.2397 -0.3554
12089W        W29613  16.490  13.666  11.591  0.1935 -0.0102 -0.0453
12090W        W29614  11.040  11.663  13.733 -0.3130 -0.3018  0.0008
12091W        W29615   8.885   8.012   4.569 -0.1457 -0.1425  0.1222
12092W        W29616   5.208   1.220  12.595  0.0352 -0.0070  0.2415
12093W        W29617   7.625  12.187  12.422  0.0097  0.0956 -0.0571
12094W        W29618  14.155   5.188  14.248 -0.0380 -0.2739  0.0777
12095W        W29619  16.453  12.898  11.947  0.1204 -0.0073 -0.4367
12096W        W29620  14.943   3.324  13.324 -0.1071 -0.1599  0.2609
12097W        W29621   8.276  11.285  12.748 -0.1550  0.0598 -0.2559
12098W        W29622   2.300  11.005   2.076 -0.1013  0.1520  0.1176
12099W        W29623  11.874   3.942  14.388  0.0389  0.1784 -0.1049
12100W        W29624  14.643   1.639  14.141  0.1971  0.1793  0.2659
12101W        W29625   2.953   8.090  12.435  0.0494 -0.1661  0.4036
12102W        W29626  11.161  15.308  13.168  0.0880  0.1142 -0.1910
12103W        W29627   1.231   5.475  13.919  0.0372 -0.4245 -0.1881
12104W        W29628  10.701   7.887   4.236  0.2576  0.1354 -0.0546
12105W        W29629   3.395  12.694   4.839  0.0417  0.1925 -0.1059
12106W        W29630   6.881   4.313  11.790  0.1997 -0.0716 -0.0498
12107W        W29631  17.464   6.920   0.604 -0.0707 -0.0813 -0.1180
12108W        W29632  11.154  12.338   5.429  0.3375 -0.2368  0.1071
12109W        W29633  10.738  12.820  14.304  0.2082 -0.0977  0.0461
12110W        W29634   7.477  15.298  10.349  0.2609  0.1078 -0.0677
12111W        W29635   8.278   1.110   1.870  0.0272 -0.0675 -0.1364
12112W        W29636   0.652  12.320   1.038  0.0960  0.1783  0.0879
12113W        W29637   6.130   2.409   1.201  0.0440 -0.0511 -0.1940
12114W        W29638   1.999   4.738  11.488  0.1570 -0.2626  0.0921
12115W        W29639   8.469   4.568  14.714  0.3473 -0.0325  0.1336
12116W        W29640  16.422   9.156  11.525 -0.0704  0.1061 -0.1785
12117W        W29641  15.136   0.610   1.547 -0.2905  0.2520  0.0922
12118W        W29642  10.119   1.568  12.311  0.1123  0.0707 -0.1775
12119W        W29643   0.281  10.669  12.583  0.1779 -0.1552 -0.0621
12120W        W29644  13.851   6.864   5.865 -0.1651 -0.2259 -0.1345
12121W        W29645   4.223   4.122   0.867  0.0262  0.0970  0.0510
12122W        W29646  16.122  14.526  11.434 -0.1479 -0.1542  0.1406
12123W        W29647   2.144   4.769   2.879  0.2651  0.2503 -0.1737
12124W        W29648   2.072   2.294   3.713 -0.0534  0.3227  0.1893
12125W        W29649   4.423  12.844   2.439  0.2001 -0.2426 -0.0511
12126W        W29650   7.552   5.122   3.586  0.1215  0.3453 -0.0247
12127W        W29651  15.719   9.795   3.226  0.1820 -0.1633  0.1777
12128W        W29652  17.391   6.403   2.211 -0.0423  0.0930 -0.0806
12129W        W29653  17.247  11.249   2.205 -0.0273 -0.2675 -0.0184
12130W        W29654   2.494   8.665  14.728  0.1563 -0.0882  0.0063
12131W        W29655   2.830  11.891   3.177  0.2602  0.1133 -0.0642
12132W        W29656  10.965   2.816  11.329  0.1101  0.0570 -0.0522
12133W        W29657  14.740   7.487  13.702  0.0628 -0.2941 -0.3442
12134W        W29658   8.498  16.545  12.227  0.0206 -0.0505 -0.0483
12135W        W29659  15.487  15.993   4.237  0.0697 -0.0452  0.2846
12136W        W29660   9.750  11.163  13.723 -0.1354  0.2008  0.4167
12137W        W29661   6.212  14.728   5.109  0.0954  0.0812  0.2757
12138W        W29662  14.615  14.678   3.129 -0.0037 -0.0256  0.3022
12139W        W29663  11.526   9.894   1.026  0.1530 -0.0491 -0.0499
12140W        W29664   1.831   4.140   1.207  0.0238  0.0362 -0.2335
12141W        W29665   1.618   5.895  11.815  0.3566 -0.3033 -0.3480
12142W        W29666   2.790   7.431   1.612  0.1597  0.1258 -0.3680
12143W        W29667   0.395   6.708  14.267 -0.2254 -0.0595  0.2558
12144W        W29668   3.732   5.301   0.681 -0.0385 -0.1340 -0.1383
12145W        W29669   1.278  15.509   0.884  0.1381  0.0340  0.1445
12146W        W29670  13.548  15.701  14.698 -0.2245 -0.0607 -0.2994
12147W        W29671  15.221  16.305   1.801  0.0789 -0.0525 -0.1119
12148W        W29672   6.622  13.515  10.849 -0.3620 -0.1295 -0.1095
12149W        W29673   5.282   1.647   0.526 -0.3154 -0.0580 -0.1300
12150W        W29674  14.427   9.749   0.370 -0.1428  0.2498 -0.2463
12151W        W29675   0.846  14.477   3.822 -0.1662  0.0138  0.0856
12152W        W29676  16.065   9.471   4.462 -0.1638 -0.2021  0.0280
12153W        W29677   3.193   0.838  13.298 -0.0622  0.0988  0.1516
12154W        W29678   5.186   6.184   1.689 -0.1676 -0.1956  0.0409
12155W        W29679   8.098   6.271  12.258  0.0411 -0.1137 -0.0696
12156W        W29680   8.829   1.587  12.969  0.4237 -0.0689 -0.1406
12157W        W29681   6.854   9.115  15.283  0.2467 -0.0115 -0.0437
12158W        W29682   2.553   9.895   1.910  0.0152  0.0595 -0.0148
12159W        W29683   0.959  10.115  15.398  0.0987  0.0677  0.0008
12160W        W29684  16.665   7.541  14.837 -0.5497 -0.0310  0.2190
12161W        W29685  10.234  16.995  12.621 -0.4894  0.0768  0.0543
12162W        W29686   7.396   9.866   0.455  0.1150 -0.0739  0.0223
12163W        W29687   0.875   7.653   0.651  0.1977 -0.2371 -0.1077
12164W        W29688   1.669   6.713   3.656  0.3294  0.0680  0.1102
12165W        W29689  14.336  16.192  15.561 -0.0716 -0.2215  0.1496
12166W        W29690   1.587   4.470  12.759 -0.0727  0.1326  0.4439
12167W        W29691  11.958  18.004   1.765  0.3101 -0.1576  0.1527
12168W        W29692  12.302   7.902   3.046 -0.1088 -0.0942  0.5559
12169W        W29693   8.787   1.526  15.898 -0.1405  0.1429  0.1334
12170W        W29694   2.639   4.182   1.511  0.2033 -0.2106 -0.2141
12171W        W29695  13.283  17.174  14.449  0.0380 -0.1837 -0.4392
12172W        W29696   7.375   9.932  14.090  0.2375  0.1167 -0.1016
12173W        W29697   0.650   7.759   3.940  0.2271 -0.0260  0.0769
12174W        W29698   1.907   1.983   1.710  0.0975 -0.1012  0.0305
12175W        W29699   0.855  12.164   4.666  0.2068  0.3431 -0.0018
12176W        W29700   0.126  15.379  13.652 -0.1661  0.2170 -0.1647
12177W        W29701  13.714   8.598  13.496 -0.1439  0.0574 -0.1817
12178W        W29702  13.980   1.538   2.970  0.1315  0.2374  0.2295
12179W        W29703   4.070  12.142   3.932  0.1650 -0.0093 -0.1525
12180W        W29704   0.252  14.925   0.125 -0.4245 -0.2418 -0.1777
12181W        W29705  15.150  12.227   2.415 -0.0765 -0.1140 -0.0746
12182W        W29706  15.296   5.375  14.553 -0.1037  0.2301  0.1120
12183W        W29707   3.084   6.566  12.095 -0.0247 -0.0751 -0.1596
12184W        W29708   7.345  13.756  13.629 -0.0200  0.0030 -0.0634
12185W        W29709   2.961   2.341  15.411  0.5738  0.1336  0.0315
12186W        W29710  16.220  16.370  12.023 -0.0868  0.1071  0.0249
12187W        W29711   2.219  11.242   0.860 -0.1571 -0.3170 -0.1845
12188W        W29712   8.029  10.239   5.076 -0.0248  0.0400 -0.0956
12189W        W29713  13.618   2.256   3.026  0.2285  0.1319 -0.0590
12190W        W29714   0.738   5.519   1.909  0.0575  0.0361 -0.0000
12191W        W29715  10.248  15.951  11.395 -0.0461  0.0881 -0.0159
12192W        W29716  17.189  12.342  14.118 -0.0518  0.2559 -0.0051
12193W        W29717   5.956  11.233   2.107 -0.2793 -0.0233 -0.1943
12194W        W29718  18.005   7.238  13.797 -0.4359  0.1214 -0.0217
12195W        W29719  16.143  17.198  13.343 -0.0056  0.3789 -0.3904
12196W        W29720   9.084   7.497   3.044  0.1007 -0.1157 -0.4381
12197W        W29721   8.999  13.930   2.694  0.4989  0.1024 -0.0766
12198W        W29722  10.012  17.350   3.496  0.2610 -0.1916  0.1821
12199W        W29723  12.299  14.559   0.044  0.1419 -0.0161  0.0164
12200W        W29724  15.334  16.582   2.545 -0.1738 -0.0319 -0.0565
12201W        W29725   2.333   0.336   4.689  0.1481 -0.0362 -0.0591
12202W        W29726   1.856   2.553   1.915  0.1139  0.1142 -0.1492
12203W        W29727   4.366   8.218  15.703  0.0769 -0.1948 -0.0292
12204W        W29728   0.144   1.702   1.552 -0.1620  0.4437  0.1184
12205W        W29729  17.773   5.795  13.145  0.3165 -0.0485  0.1679
12206W        W29730   1.657  11.356   2.728  0.0866  0.1638  0.0545
12207W        W29731   8.164   5.486   2.683 -0.1794 -0.1056 -0.0772
12208W        W29732  14.911  13.463  11.977  0.1943 -0.1267 -0.3473
12209W        W29733  15.139  14.917  12.272 -0.1404 -0.0822  0.4368
12210W        W29734   9.367   2.794  12.907 -0.0168  0.0273 -0.0736
12211W        W29735  15.113   9.300  14.425  0.4865  0.0542 -0.1530
12212W        W29736   3.959  12.294  15.502  0.0948 -0.0181  0.1783
12213W        W29737  13.617   4.740   2.421  0.1304  0.1114 -0.1161
12214W        W29738  12.901  15.770   1.895 -0.0732  0.1948 -0.0012
12215W        W29739   2.906  13.245   0.220  0.0940  0.0452  0.0973
12216W        W29740   8.578   2.796  14.032 -0.0856 -0.0062 -0.0222
12217W        W29741  15.095  11.260   3.705  0.2076 -0.2380 -0.2300
12218W        W29742  14.737   5.271  14.072 -0.2868 -0.2024  0.0774
12219W        W29743   1.276   7.378   0.069  0.1251 -0.0304  0.1007
12220W        W29744   8.195  14.790   3.499 -0.1021  0.1250 -0.0081
12221W        W29745   4.215  13.731  15.417 -0.0199 -0.3840  0.1271
12222W        W29746  14.086  15.318  13.107 -0.1869  0.0179 -0.2718
12223W        W29747   3.003  17.476   2.804  0.4273  0.0786 -0.0982
12224W        W29748   0.726   5.181   5.055  0.1966 -0.0093  0.0351
12225W        W29749   9.140  17.314  12.233 -0.0762  0.0630  0.0763
12226W        W29750   1.708  13.951   2.793 -0.0865 -0.1173  0.0429
12227W        W29751   5.463   8.532   0.530 -0.1353 -0.0766 -0.1880
12228W        W29752  17.807  14.384   4.442 -0.1512 -0.3400  0.0168
12229W        W29753  17.827  12.774   4.574  0.0029  0.0989 -0.4678
12230W        W29754  15.401  17.246   5.159  0.2904 -0.1732 -0.0139
12231W        W29755  14.632   7.750   2.058  0.0319 -0.0330 -0.2492
12232W        W29756  14.758   6.353  15.139  0.0020  0.0728 -0.3037
12233W        W29757   9.492  16.411  12.674  0.0059 -0.3154 -0.3753
12234W        W29758   7.323   7.041  12.556 -0.0010 -0.3900 -0.1586
12235W        W29759   3.155  10.113  11.067 -0.0934  0.1592 -0.0889
12236W        W29760  16.434  17.011  13.741 -0.5454 -0.1540 -0.1232
12237W        W29761   9.475   8.957  14.044 -0.0149 -0.0607  0.0321
12238W        W29762  17.527  14.306   2.809  0.1372  0.0483 -0.0607
12239W        W29763   0.590   2.385  11.326 -0.1044 -0.3491 -0.4302
12240W        W29764  17.202   4.358   0.033 -0.1932  0.3203  0.2904
12241W        W29765  12.689   1.285  12.010  0.0363  0.1169  0.0295
12242W        W29766  18.108  12.300   1.771 -0.1611  0.2758  0.3031
12243W        W29767   8.525  12.930   1.494 -0.1248 -0.0500 -0.0720
12244W        W29768  10.935   4.756  14.367 -0.1323  0.1328 -0.3957
12245W        W29769   4.513  15.415   3.387  0.2107  0.4217  0.2150
12246W        W29770   2.067  15.878  15.739  0.1394  0.0860 -0.2223
12247W        W29771   8.116  10.256  12.082  0.0478  0.2169  0.0950
12248W        W29772   2.022   3.496  14.817 -0.0291  0.1059  0.2310
12249W        W29773   3.980  17.974  14.400 -0.4297  0.2015 -0.1252
12250W        W29774  12.060   1.617   3.072  0.2408  0.3563  0.2313
12251W        W29775  17.643  17.245   4.126  0.1323  0.0447  0.3271
12252W        W29776  17.944  13.153   3.726 -0.1796  0.1098  0.0322
12253W        W29777   5.880  17.389  11.285 -0.1344 -0.0701  0.1671
12254W        W29778  14.363  14.539   0.418 -0.3167 -0.0152 -0.2344
12255W        W29779   5.695  14.646   0.208  0.0120 -0.2499  0.0055
12256W        W29780   4.744   1.886   1.668 -0.1278  0.0506  0.2298
12257W        W29781   4.161   3.227   2.376  0.2061  0.0484  0.0769
12258W        W29782  13.902  15.802   3.571 -0.0685 -0.0282  0.4802
12259W        W29783  14.691   4.005  14.611  0.1232  0.1640 -0.2350
12260W        W29784  17.142   4.171  12.582 -0.1872  0.0376  0.0853
12261W        W29785   8.983  15.514   4.552 -0.3170  0.0524  0.1849
12262W        W29786   2.907   4.374   3.152 -0.1088 -0.0556  0.0393
12263W        W29787  14.618   8.795  11.280  0.0981 -0.0548  0.0612
12264W        W29788  11.176   5.818   3.603  0.3857 -0.0150  0.2006
12265W        W29789   5.687   3.557  10.252 -0.0893 -0.1240  0.2476
12266W        W29790   3.023  14.587  14.248 -0.0768  0.0491 -0.1049
12267W        W29791   8.775  11.207  12.630 -0.1171  0.0466  0.0640
12268W        W29792   3.565   3.793  16.026  0.1715 -0.1332 -0.1436
12269W        W29793   2.319   8.425  11.455 -0.0350  0.2839 -0.0210
12270W        W29794  12.369   9.179  12.040  0.0141 -0.1213 -0.0152
12271W        W29795   1.708  17.299   2.556  0.1937 -0.0513  0.0421
12272W        W29796   2.624   9.948   1.316 -0.0880 -0.1623  0.2037
12273W        W29797  14.616  12.725   0.632 -0.0349 -0.0630 -0.2235
12274W        W29798   7.806   4.708  15.394  0.0686  0.0263 -0.1896
12275W        W29799   5.713  17.792   5.719 -0.2841  0.1167 -0.0706
12276W        W29800   4.273  10.561   5.875  0.1552  0.1985 -0.1463
12277W        W29801  14.561  14.218  15.480  0.0381 -0.2230 -0.0505
12278W        W29802  17.919   2.837  13.271  0.1248  0.1732  0.1744
12279W        W29803  13.751   6.417  15.398  0.1995 -0.1081 -0.0455
12280W        W29804   8.071   6.320   1.758  0.0490 -0.4371 -0.0854
12281W        W29805  14.247   3.794   3.237 -0.0717 -0.1569  0.1387
12282W        W29806  12.613  15.973   0.666 -0.1970 -0.0439 -0.0297
12283W        W29807  11.778   2.068  15.540  0.1891  0.0338  0.2564
12284W        W29808   3.089  11.120   2.609  0.1329  0.2731  0.2816
12285W        W29809  11.034  17.455   0.691  0.0709  0.1078  0.0459
12286W        W29810   4.912  12.974  13.445 -0.0931  0.2808 -0.1024
12287W        W29811   9.344  12.458  11.000 -0.0156  0.1277 -0.2897
12288W        W29812  11.357  17.868   2.953  0.2327  0.2043  0.0968
12289W        W29813  15.181   9.315   1.596  0.0714  0.0975  0.0754
12290W        W29814  11.784   9.765   0.559 -0.1013 -0.0231  0.1624
12291W        W29815   9.862   0.048   4.453 -0.0643  0.1797  0.2067
12292W        W29816  11.961  13.203  13.281 -0.0155  0.0085  0.2648
12293W        W29817   7.766   7.704  14.733  0.2211  0.2057 -0.2098
12294W        W29818  12.467   5.856   3.850  0.2120  0.1507  0.1764
12295W        W29819  17.636  13.304   1.280 -0.0834  0.3473  0.1517
12296W        W29820   3.253   9.078   3.986 -0.1435 -0.1539 -0.3590
12297W        W29821   7.761  13.421   4.347 -0.0557 -0.5193  0.2938
12298W        W29822  17.927   2.287   0.437 -0.2103  0.1716  0.1042
12299W        W29823   2.245   4.137   1.881 -0.2515  0.0102 -0.0152
12300W        W29824  16.689  10.406   3.882 -0.1407 -0.3294  0.0074
12301W        W29825   7.724   1.075   1.273 -0.0112 -0.1060 -0.1847
12302W        W29826  16.306   4.788   1.323 -0.0450  0.1027 -0.0358
12303W        W29827   5.841  10.312  13.463 -0.1411  0.1209  0.0208
12304W        W29828  13.806   3.722   2.381 -0.0616 -0.2764 -0.1947
12305W        W29829   5.895  11.398   3.548 -0.1509 -0.1582 -0.1197
12306W        W29830  14.164  11.391   2.962  0.0036  0.1086  0.0709
12307W        W29831  13.807  13.814   2.903 -0.1163  0.1309  0.5384
12308W        W29832  11.598  13.137   4.992 -0.0061 -0.1786  0.2597
12309W        W29833   9.850   0.276  12.158  0.0277  0.3378 -0.0555
12310W        W29834  17.970   7.201   2.872 -0.3427 -0.1176  0.0922
12311W        W29835   0.224   1.229   1.273 -0.3093 -0.1116  0.1472
12312W        W29836  12.579  15.739  12.289 -0.0532 -0.1027 -0.0819
12313W        W29837   2.414   8.297  13.619 -0.0665 -0.0640  0.2411
12314W        W29838   6.110  13.490   1.451 -0.0169 -0.2962  0.3490
12315W        W29839   9.972   0.073   1.606  0.0926  0.0058  0.1088
12316W        W29840   3.734   3.464   4.809  0.0068  0.2885 -0.1864
12317W        W29841   7.578   7.500  13.748 -0.2618  0.0220  0.0461
12318W        W29842   0.535   7.400  12.102  0.0547  0.0175  0.1063
12319W        W29843   2.706  12.198  12.804 -0.4410  0.1618 -0.1888
12320W        W29844  13.391   2.181   1.315 -0.2899  0.1746 -0.2205
12321W        W29845   1.958   0.722  11.650 -0.1888  0.1866  0.2430
12322W        W29846   0.561  11.160   4.996 -0.0818 -0.1175 -0.0375
12323W        W29847  10.536  17.730  13.345 -0.0600 -0.2255  0.1023
12324W        W29848   1.068   2.691  13.489 -0.1043  0.2365 -0.1197
12325W        W29849   0.437  14.970  15.688  0.1131 -0.1980  0.1922
12326W        W29850  13.192   0.358   2.993  0.1263 -0.2236  0.1646
12327W        W29851   4.693  16.728  12.216 -0.1790 -0.0914 -0.1594
12328W        W29852   7.581  16.008   2.353  0.0422 -0.2334 -0.2326
12329W        W29853  16.887   7.846  13.154  0.0738  0.2532 -0.2602
12330W        W29854   4.248   8.029   0.664  0.4136  0.0460 -0.2127
12331W        W29855  16.534  15.203  15.333 -0.0978 -0.0084  0.3351
12332W        W29856  13.138  17.687  15.811  0.0802  0.3828  0.0139
12333W        W29857   4.152  16.871   0.346  0.1017 -0.2172 -0.1624
12334W        W29858   8.848  10.681   2.592 -0.0130  0.2230  0.2072
12335W        W29859   3.391  13.099   0.145  0.0037  0.0995 -0.0795
12336W        W29860  17.431   8.776   2.396  0.1526 -0.1615 -0.0925
12337W        W29861   5.603   9.070  12.445 -0.0813 -0.3426  0.2733
12338W        W29862   2.509   2.568   3.569  0.1841 -0.0274  0.3573
12339W        W29863   4.285  13.356  15.737 -0.4491 -0.2473 -0.1251
12340W        W29864  16.410  14.713   1.986 -0.0359 -0.2086  0.1926
12341W        W29865   0.904   3.266  15.622  0.0466 -0.2170  0.0182
12342W        W29866  10.384   8.125   3.846  0.1053  0.2447  0.0799
12343W        W29867   4.790  10.846  14.816  0.3097  0.1117 -0.2936
12344W        W29868  15.010   3.012  15.634 -0.1171  0.1836 -0.1399
12345W        W29869  11.598   7.037   1.947  0.0872 -0.3389 -0.4099
12346W        W29870   9.861  13.623   2.242 -0.3315 -0.1752  0.1810
12347W        W29871   2.853   6.107  11.261 -0.1694  0.1039 -0.0893
12348W        W29872   7.653   2.718   2.731  0.0813  0.1910 -0.0716
12349W        W29873  15.441   7.992   3.971  0.2070 -0.2431 -0.0897
12350W        W29874   0.535   7.637  14.814  0.2226 -0.0226 -0.2533
12351W        W29875  13.043  13.458   0.612 -0.1485  0.1556  0.2596
12352W        W29876  16.721  10.427  15.056 -0.2485 -0.2438  0.1197
12353W        W29877   3.031   8.079   2.218  0.0828 -0.0975 -0.1156
12354W        W29878   5.176  10.149  13.932  0.2819  0.1589 -0.3398
12355W        W29879   2.126   6.255  13.780  0.0621 -0.0453  0.0361
12356W        W29880   5.846  12.364   0.832  0.0768 -0.1218 -0.2053
12357W        W29881  15.990   0.408   2.621  0.1235  0.1573  0.0730
12358W        W29882   8.125   4.388  13.255 -0.0156 -0.2250 -0.0067
12359W        W29883  15.329  14.220  11.597 -0.1571  0.2082 -0.0670
12360W        W29884   6.945   4.588  12.276 -0.1374  0.0102  0.1212
12361W        W29885  13.382  11.434  12.108  0.2073  0.0740 -0.2950
12362W        W29886  17.052   4.371   4.825  0.0601  0.3717  0.1958
12363W        W29887  11.466   7.933   4.154 -0.0012  0.1605 -0.1283
12364W        W29888   3.665  11.366   4.617  0.1279 -0.3166  0.2889
12365W        W29889  12.804  13.202   1.367  0.0898  0.2958  0.1248
12366W        W29890   6.820  15.840   1.684  0.2190  0.3390 -0.0398
12367W        W29891   7.215  12.702   1.671  0.0184 -0.0168 -0.1301
12368W        W29892  16.256  16.861   0.164 -0.0870  0.1708 -0.1119
12369W        W29893   6.824   0.623   4.325 -0.0727  0.0349  0.1663
12370W        W29894  14.485  10.154   3.447  0.1019  0.2641  0.1687
12371W        W29895  12.094   0.035   2.296  0.0304 -0.1433  0.1288
12372W        W29896   5.505  12.929   1.138 -0.1598 -0.4341 -0.0933
12373W        W29897   3.710  10.457  10.116  0.0075  0.1105 -0.0869
12374W        W29898   8.293  12.881   0.610 -0.1300  0.1572 -0.0704
12375W        W29899  15.604   2.361  11.910 -0.0339 -0.1771  0.4159
12376W        W29900   6.192   4.071   5.301  0.2498 -0.0317 -0.3838
12377W        W29901   4.502   0.033  13.156 -0.0753 -0.3383  0.0398
12378W        W29902   8.079   8.103   1.967 -0.1121 -0.1580  0.1396
12379W        W29903   0.003  13.342   4.558 -0.2930 -0.1650  0.0327
12380W        W29904   4.656  13.914  15.088 -0.2783 -0.0935 -0.0408
12381W        W29905   9.591   7.034  13.014 -0.0505  0.1286  0.0470
12382W        W29906  10.229   5.316   3.008 -0.1488  0.2962 -0.2030
12383W        W29907   9.942   6.839   4.615 -0.2377 -0.0956  0.0618
12384W        W29908   8.436  17.162  12.833 -0.3424 -0.1577  0.4411
12385W        W29909   3.166  10.565  10.753 -0.1747  0.0454 -0.1260
12386W        W29910   3.580  15.284  12.228  0.1284  0.3346 -0.2528
12387W        W29911  16.500   9.875   0.330 -0.1441  0.1076 -0.0554
12388W        W29912  17.873   4.272   3.272  0.2316 -0.1326 -0.0316
12389W        W29913   3.166   4.303  11.911  0.0390 -0.4107  0.2933
12390W        W29914   1.667   0.020  13.230  0.3011  0.1787 -0.4516
12391W        W29915  16.533  16.486  16.057  0.3128 -0.2188 -0.0499
12392W        W29916   6.814   9.030  14.767  0.2011  0.2528  0.2533
12393W        W29917   6.076   3.397   3.153 -0.1910  0.1560  0.1217
12394W        W29918  14.104  14.172   1.403  0.0141  0.0989 -0.1225
12395W        W29919  10.332   6.735   1.492 -0.1000  0.0580  0.0464
12396W        W29920   7.059   4.233  14.014 -0.1143 -0.1474 -0.2627
12397W        W29921   1.301   7.019  14.440  0.1756 -0.0118 -0.3136
12398W        W29922   4.464   2.730   1.701 -0.1454 -0.0521  0.0303
12399W        W29923  17.527  11.738   2.611 -0.0438 -0.0392 -0.2733
12400W        W29924  17.043   9.631  10.636  0.1786 -0.1073 -0.0028
12401W        W29925   1.167  17.753   0.479  0.0404  0.1332  0.0744
12402W        W29926  14.903   1.481  12.710  0.2250  0.3388  0.1633
12403W        W29927  15.918  14.880   3.345 -0.2769  0.1362 -0.0172
12404W        W29928  16.673  11.636  15.818 -0.1101  0.2094 -0.2953
12405W        W29929   1.089  15.129   1.243 -0.1464  0.0123 -0.1741
12406W        W29930   9.837   4.980  14.742 -0.1901  0.0388  0.1356
12407W        W29931   6.688   2.116   2.565 -0.0715  0.2464  0.0151
12408W        W29932  17.544   5.174   2.205  0.1490  0.0106 -0.0132
12409W        W29933   9.283   7.849   3.730  0.1332  0.1010  0.1236
12410W        W29934   8.141   3.267  12.442  0.1075  0.0407  0.1690
12411W        W29935   6.189  17.385   3.176 -0.1528  0.2159 -0.1708
12412W        W29936  16.551  17.207   0.338  0.0075 -0.0525 -0.0052
12413W        W29937  15.301  17.226   1.265 -0.0311  0.3017 -0.0071
12414W        W29938   0.436   7.743  11.658 -0.1101  0.0331  0.1720
12415W        W29939  16.672   9.914   1.708  0.2016 -0.2055 -0.1506
12416W        W29940  11.441   2.881  12.992 -0.1422  0.0529 -0.1394
12417W        W29941   5.156   4.725   3.232 -0.0185 -0.0972 -0.0655
12418W        W29942   3.316  10.219  15.639  0.0382 -0.1331  0.1665
12419W        W29943  15.350   0.020   0.949 -0.2046 -0.2564  0.0326
12420W        W29944   9.098  10.344   4.232  0.1955 -0.3564  0.0449
12421W        W29945   2.977  14.306   2.096  0.4807  0.1123  0.0323
12422W        W29946  12.300  10.582  13.824  0.2427  0.3634 -0.1745
12423W        W29947  10.798  13.040  11.692  0.1767 -0.0935 -0.1378
12424W        W29948  17.089   7.822   5.028  0.0216 -0.0106  0.0159
12425W        W29949  14.788  13.836   3.725  0.1725 -0.0044  0.1437
12426W        W29950   4.666   8.669   2.722  0.0735 -0.0469 -0.0687
12427W        W29951   1.132  12.315   2.740 -0.2395 -0.0119 -0.1216
12428W        W29952   1.641   4.721   0.432  0.1496 -0.1388 -0.0468
12429W        W29953   4.066  14.878   0.233  0.2020  0.0948  0.0045
12430W        W29954  11.677   5.172   4.587 -0.3771 -0.0697  0.2407
12431W        W29955   0.655   5.065  11.902  0.0343  0.1269 -0.0296
12432W        W29956  12.574   3.088   4.067  0.0543 -0.1868  0.0882
12433W        W29957  11.766  17.689   0.404  0.1306 -0.0322 -0.0407
12434W        W29958  10.736  16.750   1.980  0.0090 -0.1634  0.3848
12435W        W29959  17.692  12.524   1.905  0.0302  0.1015 -0.1008
12436W        W29960   4.136   4.299  12.506  0.2939 -0.1033 -0.1812
12437W        W29961   5.008  14.730  11.962 -0.0411  0.0406  0.0618
12438W        W29962   5.935   3.162   2.676  0.0414 -0.1233 -0.0975
12439W        W29963  15.805   5.324   4.638 -0.2018  0.0513  0.1328
12440W        W29964   4.463  17.256   0.138  0.2454  0.1168  0.2184
12441W        W29965  16.506  13.541  14.741 -0.3135  0.2359 -0.0460
12442W        W29966   0.562   7.353   4.228  0.3174 -0.2753 -0.0342
12443W        W29967  15.797  16.399  13.053  0.1374  0.2093 -0.0662
12444W        W29968   4.476  17.955   1.634  0.2777  0.1914 -0.0440
12445W        W29969   5.687  16.247   1.202 -0.1646  0.0675  0.0521
12446W        W29970   9.974  11.842  14.139  0.1775 -0.0927  0.1691
12447W        W29971   6.243   1.417  13.118  0.1252 -0.1640 -0.0106
12448W        W29972  14.513  16.600  12.966  0.2235 -0.0762 -0.2318
12449W        W29973   7.059   7.696   4.134 -0.1192  0.2137  0.1047
12450W        W29974   9.606   1.418   2.759  0.3530 -0.3244 -0.2027
12451W        W29975  10.505   6.438   3.446  0.1134  0.1187  0.1473
12452W        W29976  15.153  11.613   5.000  0.0352 -0.3375 -0.2578
12453W        W29977  15.011   0.219  12.815  0.0245  0.4354  0.1147
12454W        W29978  18.016   6.786  13.381  0.1899 -0.2833 -0.3789
12455W        W29979   9.506   6.043   5.732 -0.0979  0.1821 -0.0784
12456W        W29980   6.988  12.658   3.821 -0.1751 -0.1132 -0.1269
12457W        W29981   0.490   8.551  15.890 -0.0163  0.0261 -0.0215
12458W        W29982   7.134   1.192  11.246 -0.0175 -0.2101  0.0126
12459W        W29983  13.765   6.780  14.131  0.3218 -0.0086 -0.0157
12460W        W29984   9.151   6.690   0.722 -0.2488 -0.0143 -0.1750
12461W        W29985   1.306  12.303  13.253 -0.0430  0.0666  0.2363
12462W        W29986  13.884  17.404  11.331  0.0397 -0.2450 -0.0734
12463W        W29987   4.506  13.011  15.412  0.5899 -0.1249  0.3894
12464W        W29988  15.008   6.097  12.701  0.1990 -0.0221 -0.1337
12465W        W29989  15.082   9.742  15.356 -0.1741  0.2264 -0.0123
12466W        W29990  18.097   1.204   4.984 -0.1303  0.0967  0.0191
12467W        W29991  16.759  10.718  15.922 -0.2649  0.2349 -0.0153
12468W        W29992  14.478  11.937   3.551  0.0473 -0.1137  0.0203
12469W        W29993  17.393  17.947  13.110  0.1529  0.0200  0.1511
12470W        W29994  15.574   4.577  13.213  0.0845  0.0708  0.0247
12471W        W29995   6.756  16.585   2.180 -0.2467  0.0949  0.1081
12472W        W29996  13.312   3.894   2.155  0.3392 -0.2116 -0.1371
12473W        W29997   1.843  15.618  12.434  0.1551 -0.1088  0.1743
12474W        W29998  18.029  17.954   0.968  0.1024  0.0413 -0.0713
12475W        W29999  12.377  14.338  14.608  0.2916 -0.0225 -0.0283
12476W        W30000  13.755  17.844  15.229  0.1872 -0.2607  0.1275
12477W        W30001   7.129   9.087  15.701 -0.0298 -0.0667 -0.0244
12478W        W30002   0.782   3.609  13.223 -0.0266 -0.2289  0.1407
12479W        W30003   2.783   5.595   3.416 -0.1481 -0.0075 -0.0772
12480W        W30004   7.502   9.135  11.186 -0.1892  0.3653  0.0147
12481W        W30005  16.473   6.591  14.355  0.1679 -0.2213  0.0129
12482W        W30006  15.935  15.798  15.585 -0.1150  0.1239 -0.0047
12483W        W30007  13.786  12.410   2.492 -0.0398  0.2713 -0.2161
12484W        W30008  12.947   0.730   4.213 -0.2062  0.1138 -0.1120
12485W        W30009   7.908   1.140   3.234 -0.2477  0.3142 -0.2818
12486W        W30010   5.458  16.224   0.714  0.0847 -0.1036  0.0064
12487W        W30011  17.929   4.909   2.038 -0.0727  0.1314  0.2272
12488W        W30012  11.901   8.208  12.170 -0.0787 -0.0664 -0.2473
12489W        W30013  13.123  13.319   4.208  0.0542 -0.3086 -0.1623
12490W        W30014   5.070  10.139  12.887 -0.1342 -0.0809  0.0171
12491W        W30015   6.893   2.812   9.788  0.1926  0.0334 -0.2186
12492W        W30016  17.375   6.087  11.180 -0.0546  0.0555  0.1840
12493W        W30017   4.713  11.608  13.779 -0.3370 -0.1704  0.0676
12494W        W30018  10.742   2.975  13.912  0.0109 -0.1915 -0.1032
12495W        W30019  13.103  14.703   4.845  0.2541  0.1341  0.2156
12496W        W30020   1.019   2.025   5.865 -0.0392  0.2917 -0.0406
12497W        W30021  10.252   8.735   3.106 -0.2060  0.1520  0.0798
12498W        W30022   1.744   9.923   0.185 -0.1959 -0.1369  0.0678
12499W        W30023   1.989   1.811   4.510  0.4183 -0.1450 -0.1512
12500W        W30024   3.054   5.542  12.352 -0.4332  0.1559  0.2579
12501W        W30025   0.276  16.115   4.580  0.0579 -0.0785 -0.0011
12502W        W30026   8.914  10.659   0.509  0.2291  0.4608 -0.2492
12503W        W30027  16.373   1.524   2.677  0.0235  0.1590 -0.0724
12504W        W30028  13.636  18.117  11.420 -0.0193  0.2306  0.1926
12505W        W30029   3.967  16.259  12.630  0.2583  0.2289 -0.2748
12506W        W30030  13.868  16.225   4.409  0.0595  0.1551 -0.0638
12507W        W30031   3.400  13.973  13.231  0.3278 -0.0241  0.1447
12508W        W30032  17.682   2.943  12.311 -0.0283  0.1580 -0.0065
12509W        W30033   4.651   3.361   1.518 -0.0264  0.2631  0.0734
12510W        W30034   1.970   5.443   4.941 -0.3316  0.3309  0.1856
12511W        W30035  10.434  15.269  12.688  0.0637  0.3333 -0.1214
12512W        W30036  10.483  14.310  13.138  0.5386  0.3239  0.2144
12513W        W30037   1.455  14.335  14.552  0.0166  0.1784  0.0580
12514W        W30038  14.318   8.562  13.062 -0.0311  0.1674 -0.2786
12515W        W30039  16.826   3.615   0.485  0.1453  0.0983  0.2259
12516W        W30040   2.570  12.713   2.440 -0.0984 -0.0487  0.0846
12517W        W30041   8.274  13.200   3.438 -0.0359 -0.1155  0.4124
12518W        W30042   2.515   7.094  14.108 -0.0080 -0.4135 -0.1668
12519W        W30043   4.001  13.448   3.998  0.1937  0.1701 -0.1400
12520W        W30044  16.246   5.049   4.781  0.0492  0.2706 -0.2906
12521W        W30045  12.084   2.513   5.217  0.2690  0.2377  0.2900
12522W        W30046   7.123   6.747   0.558  0.0178 -0.0425  0.0932
12523W        W30047  16.640   3.444   1.374  0.1484 -0.2195 -0.0484
12524W        W30048   3.829   1.076   3.168  0.0087 -0.2085 -0.1081
12525W        W30049   0.105   2.858   3.923 -0.0035 -0.0371  0.1006
12526W        W30050   2.087   1.837  14.074  0.1195 -0.0267  0.2365
12527W        W30051   0.064   3.222   0.164 -0.0601  0.0942  0.3240
12528W        W30052   4.954   0.179   3.405 -0.0651 -0.1571 -0.0989
12529W        W30053   6.670  11.224  11.978  0.0455 -0.0627 -0.0215
12530W        W30054  17.450   3.362   1.640 -0.0863  0.0891  0.0226
12531W        W30055   2.755   0.381   0.142 -0.0546 -0.1142 -0.0028
12532W        W30056   4.676  14.389  13.699  0.1395 -0.0648 -0.0748
12533W        W30057  10.695   3.106   1.095 -0.1342 -0.0642 -0.0610
12534W        W30058  15.555  16.881  11.330 -0.2802  0.0301  0.1960
12535W        W30059   7.932  10.097   4.138  0.0495 -0.0912 -0.1412
12536W        W30060  15.398   5.539  15.067 -0.0370  0.1077  0.2174
12537W        W30061  16.216   9.007  12.859 -0.0598 -0.1072  0.2936
12538W        W30062   8.729   1.958   4.555  0.2221  0.4198  0.0627
12539W        W30063   8.558  12.655   0.239  0.0591 -0.0505  0.2251
12540W        W30064  11.281   7.267   1.385 -0.0957  0.0731 -0.0913
12541W        W30065  12.741   3.649  12.193  0.0941  0.1845 -0.0624
12542W        W30066  17.907  10.579  13.868 -0.1238 -0.2540 -0.0678
12543W        W30067  13.034   3.087   3.139 -0.1102 -0.1840 -0.1284
12544W        W30068  10.466  14.023   1.765 -0.1784 -0.1994  0.0515
12545W        W30069   3.475  17.988   3.960  0.1127 -0.4655 -0.1755
12546W        W30070  12.346  11.317  15.473 -0.1266  0.1281  0.1866
12547W        W30071   9.266   0.157   0.251 -0.1347 -0.1020 -0.1622
12548W        W30072  13.341   9.215   4.056  0.1713  0.3536 -0.1939
12549W        W30073  16.323   3.021   0.027 -0.0662 -0.0199  0.1708
12550W        W30074  12.273  11.107  11.722  0.0783  0.0806 -0.0935
12551W        W30075   2.762   4.748  12.653  0.0524 -0.0764  0.0581
12552W        W30076  12.178  16.260   5.091  0.1609 -0.1486 -0.2559
12553W        W30077  14.073  15.887   1.143 -0.2491 -0.0358 -0.1462
12554W        W30078   7.117  15.436   3.057 -0.1675  0.1703  0.1153
12555W        W30079   4.324  14.656   4.523  0.3894 -0.2308  0.1204
12556W        W30080   5.245   6.829  13.361 -0.2475  0.3668 -0.2169
12557W        W30081  10.712   9.076   5.768 -0.1765  0.1833 -0.2171
12558W        W30082   6.406   1.169  11.800  0.2118  0.2380 -0.1170
12559W        W30083  10.751  15.176  13.590 -0.1570 -0.0762  0.0715
12560W        W30084  13.044   9.358  12.082  0.0119  0.1855 -0.0572
12561W        W30085  13.419   0.162   3.408 -0.3832  0.0605 -0.0652
12562W        W30086   8.995   2.676   3.404 -0.2087 -0.2690  0.1103
12563W        W30087   2.057   5.494  15.717  0.1292 -0.0797 -0.2855
12564W        W30088   6.668  11.338   4.295 -0.0124  0.0051 -0.0724
12565W        W30089   2.607   3.148  15.860  0.0399  0.4615  0.3308
12566W        W30090  13.195  14.663   2.873  0.0267 -0.2722 -0.1502
12567W        W30091   0.889  14.159  12.272 -0.3622  0.2319 -0.1272
12568W        W30092  14.659  12.266   4.702  0.4282  0.0843 -0.5324
12569W        W30093  12.267   9.057   5.267  0.0783  0.0319  0.2610
12570W        W30094  11.317  16.569  13.979  0.0631  0.1267 -0.2487
12571W        W30095  16.108   9.251  13.265 -0.1980 -0.1730  0.0961
12572W        W30096  15.303  17.110  14.247 -0.1305  0.1370  0.3099
12573W        W30097   0.786   0.453   2.135  0.1848 -0.2119  0.4406
12574W        W30098   9.363  13.787   2.170 -0.1411  0.0494  0.0136
12575W        W30099   7.277   8.204   0.306  0.0579  0.0604  0.0603
12576W        W30100  17.585   3.878  12.928 -0.0174 -0.0128  0.0505
12577W        W30101  12.799  15.193   1.185 -0.3408  0.0719  0.0730
12578W        W30102  16.238  16.074   3.416  0.0405 -0.1217  0.0243
12579W        W30103  10.753  14.968  14.497 -0.0041  0.0646 -0.1041
12580W        W30104   0.664  13.205  12.878 -0.0373 -0.1422  0.1712
12581W        W30105  16.796  10.821   0.444 -0.1796  0.1676  0.3032
12582W        W30106  17.533   2.477   0.885 -0.2433 -0.5199  0.0483
12583W        W30107   0.692   2.926   4.599 -0.0545  0.1617  0.0217
12584W        W30108  15.768   1.167   3.220 -0.0594  0.1962 -0.1864
12585W        W30109   5.857   6.008   2.626  0.0957  0.1318 -0.0115
12586W        W30110   6.580  18.089  13.290 -0.1995  0.2439 -0.1104
12587W        W30111  17.697   3.367  14.142 -0.0423 -0.0518 -0.2117
12588W        W30112  16.045  15.027  11.951  0.6200 -0.1198 -0.0306
12589W        W30113   6.082   8.856  12.478  0.0347 -0.4497 -0.1174
12590W        W30114   2.429   8.687   3.127 -0.0511  0.2902 -0.0237
12591W        W30115   8.588   5.477   2.391 -0.2310 -0.1787 -0.0103
12592W        W30116  10.367  14.532   3.097 -0.2096  0.1285 -0.1042
12593W        W30117  14.807   3.799  13.111  0.0946 -0.1514 -0.0802
12594W        W30118  12.560  12.915  15.253  0.3055 -0.0238 -0.0134
12595W        W30119   4.203   3.760   4.962  0.1101 -0.0619  0.1645
12596W        W30120   4.938  13.435  14.888  0.1888  0.2630 -0.0573
12597W        W30121  15.805   0.327  14.901 -0.2643 -0.1360 -0.2438
12598W        W30122  16.487  17.220  15.355 -0.0337  0.2153  0.0825
12599W        W30123   5.418   0.159   2.997  0.1201 -0.1720  0.3286
12600W        W30124  17.669   3.520  15.639  0.2285 -0.0084  0.0479
12601W        W30125   4.131   5.501  13.210  0.1322  0.0254 -0.0457
12602W        W30126  11.445   1.516   1.136  0.1243 -0.0788 -0.2719
12603W        W30127   6.283  10.113  15.693  0.2522  0.2608 -0.3166
12604W        W30128  17.493  10.217   0.634  0.1977  0.0370 -0.0518
12605W        W30129   7.714  16.970  15.204  0.2747  0.2372 -0.3594
12606W        W30130  13.630   7.362   3.116 -0.0436  0.1340 -0.2985
12607W        W30131   3.125  13.771   3.754  0.1257 -0.0851  0.1279
12608W        W30132  15.894   7.969   1.587 -0.1651 -0.1106  0.1419
12609W        W30133   7.742   2.110  14.926 -0.1158  0.0155 -0.2760
12610W        W30134   5.972  15.154  14.518  0.3542  0.0847 -0.0481
12611W        W30135   0.634   2.650  14.746  0.2457  0.0159 -0.1183
12612W        W30136  15.385   1.862   1.065  0.0779 -0.0871 -0.2085
12613W        W30137   2.561   2.632   0.743 -0.2050  0.3064 -0.1225
12614W        W30138  16.209   8.164   3.707  0.1498  0.0124 -0.1502
12615W        W30139   3.657  13.829   3.874 -0.2228 -0.2265 -0.2206
12616W        W30140   1.498  12.712  13.030 -0.3042 -0.1651 -0.0442
12617W        W30141   8.550  16.940  11.288  0.1043  0.3225 -0.0524
12618W        W30142  12.266   5.038   0.768  0.2286 -0.0131 -0.1811
12619W        W30143   7.828  17.767  15.816 -0.0895 -0.2346 -0.0751
12620W        W30144  11.208  12.803   0.280 -0.1655 -0.0730 -0.2301
12621W        W30145  16.741  11.958   3.867 -0.2339 -0.1812  0.0617
12622W        W30146  12.551  10.789   0.885 -0.0711  0.2740 -0.3241
12623W        W30147   4.842   0.353  11.682 -0.2679  0.0174  0.0271
12624W        W30148   5.367  11.762   4.101 -0.1822 -0.0459 -0.1044
12625W        W30149   7.839  13.367   2.964  0.0164 -0.0335 -0.0027
12626W        W30150  15.492   1.370   4.693  0.0035 -0.1991  0.0421
12627W        W30151  17.202   9.382  15.014  0.1400 -0.0113 -0.1764
12628W        W30152   5.892  15.767  12.540  0.1334 -0.2935  0.2040
12629W        W30153  11.498   5.557  14.758 -0.0044 -0.1627  0.1860
12630W        W30154   1.932  16.703  12.637 -0.1320 -0.2239  0.1672
12631W        W30155   6.381   0.219   2.746 -0.2407 -0.2424  0.0823
12632W        W30156   6.550   7.230   2.232 -0.1473 -0.2279  0.1519
12633W        W30157   8.103  13.290   3.996 -0.0963 -0.0035  0.1198
12634W        W30158  14.743  12.924  11.572  0.0363  0.1692 -0.1417
12635W        W30159  16.030   4.239   0.779 -0.3333 -0.1892  0.1145
12636W        W30160   5.356  10.133  15.122 -0.0978 -0.2085 -0.2539
12637W        W30161   0.309   3.946   4.250  0.0776 -0.0360 -0.5190
12638W        W30162   8.235   9.298   2.339 -0.2605  0.1403 -0.1040
12639W        W30163   5.149   6.333   2.526 -0.1532 -0.0381 -0.0994
12640W        W30164   2.322   7.800  13.728  0.1221  0.1224 -0.1006
12641W        W30165   9.646  12.012  11.216  0.0021  0.0216 -0.1203
12642W        W30166   2.270   6.943   2.766 -0.1238  0.1214  0.1843
12643W        W30167   8.523   7.656   4.330 -0.0813  0.0239 -0.1899
12644W        W30168  13.241  11.987  14.821  0.1787  0.2319  0.0235
12645W        W30169   9.788  10.297  15.201 -0.0565  0.0375  0.3836
12646W        W30170   8.836   7.462  11.626  0.2100  0.1233 -0.3120
12647W        W30171  16.110  11.087  12.823  0.0782  0.3227  0.2393
12648W        W30172   4.225  17.680  13.285 -0.1434  0.0490  0.0686
12649W        W30173   3.392   4.497  14.018  0.1828 -0.1057  0.0243
12650W        W30174   4.323   1.095  14.682  0.0095 -0.1465  0.0603
12651W        W30175   5.750  14.902   3.259  0.0867  0.0272  0.0341
12652W        W30176   7.563  16.475   0.253  0.0528  0.3050 -0.0811
12653W        W30177   7.597   4.235  11.213  0.3088  0.1840  0.0276
12654W        W30178   0.469   4.743   2.469  0.3844 -0.1355  0.0031
12655W        W30179   1.602   1.627   4.182 -0.1478  0.1044  0.1835
12656W        W30180   7.258   7.369  15.067 -0.0392 -0.0679 -0.0271
12657W        W30181  12.664   4.039   1.188  0.0156  0.0863  0.1506
12658W        W30182   3.204  10.888  12.708  0.1433  0.2086 -0.0813
12659W        W30183  10.857   9.989   2.248  0.2296  0.0047 -0.2431
12660W        W30184  12.829   8.605  11.802 -0.1490 -0.0531  0.0498
12661W        W30185  15.772  12.406  11.791 -0.0997 -0.1863 -0.1016
12662W        W30186  15.456   0.772   3.431  0.4095 -0.1450  0.0448
12663W        W30187   4.637  11.457  15.715  0.1257  0.2152 -0.0608
12664W        W30188   8.337  17.786   2.468  0.1025 -0.0738 -0.3694
12665W        W30189   3.735  14.567  11.843  0.1501  0.0045  0.1721
12666W        W30190  15.384   6.858   0.056  0.0723  0.2317  0.2942
12667W        W30191  11.789  11.802  13.871 -0.0002  0.2241 -0.2310
12668W        W30192  11.785  13.147  15.777  0.0425 -0.0337 -0.1077
12669W        W30193  12.448   4.824   1.225  0.0213 -0.5309 -0.0597
12670W        W30194  11.884   5.009   0.290  0.0399  0.3601 -0.2928
12671W        W30195  11.776   9.775  11.385  0.4547 -0.2657  0.2698
12672W        W30196   8.301  13.992   5.262  0.0768  0.1037 -0.1884
12673W        W30197   7.929   4.280  14.170 -0.0762 -0.1658  0.1355
12674W        W30198   5.911  10.953   5.545  0.2932 -0.0600 -0.0451
12675W        W30199   7.036   5.031   4.288 -0.0494 -0.2633  0.1822
12676W        W30200  15.463   1.008   5.510  0.0438  0.1929  0.2139
12677W        W30201   1.269   2.019   3.827 -0.2107 -0.2207 -0.0876
12678W        W30202   3.991   2.403  15.926  0.2221 -0.0381  0.1117
12679W        W30203   3.087   3.730   3.771  0.2402 -0.1886 -0.0213
12680W        W30204   5.583  10.060  12.078  0.2332  0.0682  0.1889
12681W        W30205  14.383   7.966  13.716 -0.2222  0.1129 -0.0495
12682W        W30206   0.499  12.289  15.381  0.2523  0.2997 -0.2936
12683W        W30207  16.096  12.305  11.390 -0.0431  0.1251  0.4461
12684W        W30208   5.201   4.583  11.642  0.1176 -0.1386  0.0108
12685W        W30209  16.260   6.398   4.316 -0.0226  0.2217 -0.1598
12686W        W30210   7.057  14.167  14.843 -0.0234  0.2032 -0.0470
12687W        W30211   3.402   9.334   4.934 -0.1018  0.2863 -0.2220
12688W        W30212   1.711   5.039  13.582 -0.4520  0.0193 -0.0619
12689W        W30213   4.701  11.187  12.185 -0.3370  0.0367 -0.1535
12690W        W30214   5.775   2.883  14.971 -0.1734 -0.0074 -0.2025
12691W        W30215  16.579  12.489   2.119 -0.0452  0.2667  0.0721
12692W        W30216   1.412   9.632   3.273 -0.0472  0.0829  0.0281
12693W        W30217  17.672   4.290   1.076 -0.0547 -0.1890 -0.0784
12694W        W30218  13.442  12.713   3.143 -0.0920  0.2562  0.1346
12695W        W30219  10.326  11.328   3.190 -0.1631 -0.0322 -0.0542
12696W        W30220   3.712   6.319  12.282  0.0447 -0.4139  0.0419
12697W        W30221   3.895   7.255  16.058  0.2393  0.0406  0.1367
12698W        W30222   8.057  12.555   0.126  0.0334  0.2588 -0.0807
12699W        W30223   7.258  15.734  11.687  0.0997 -0.1346  0.4189
12700W        W30224   0.988  14.825  15.638  0.1797 -0.1369  0.0652
12701W        W30225   9.754  15.600  13.040 -0.2219  0.1635  0.3391
12702W        W30226   0.243   3.948   5.867 -0.4462  0.0835  0.1654
12703W        W30227   7.281  13.275  13.751 -0.1232  0.2023 -0.0551
12704W        W30228  11.050  12.530  15.201 -0.1019 -0.1117 -0.1187
12705W        W30229   0.697   1.079  11.991 -0.1081  0.1193  0.4428
12706W        W30230   9.003  14.116   5.744 -0.1958 -0.0528 -0.1035
12707W        W30231   7.215   1.919  10.947 -0.1827 -0.3134  0.1286
12708W        W30232   3.368   9.156  13.645 -0.2073  0.0450 -0.0163
12709W        W30233   9.463   7.553  11.845  0.0550 -0.0151 -0.3109
12710W        W30234  17.495   1.410   4.200  0.2427 -0.0079 -0.0249
12711W        W30235   3.020   1.954   2.479  0.1439  0.0194 -0.2320
12712W        W30236   4.318   8.253  10.824  0.0556 -0.0051 -0.2607
12713W        W30237  11.494   1.357   4.846  0.0702 -0.1719  0.1502
12714W        W30238  13.047  13.996   5.305  0.0376 -0.3844 -0.1030
12715W        W30239   8.318   5.484   0.262  0.2707 -0.1069 -0.4358
12716W        W30240   7.998  14.421   1.286  0.2789 -0.0782 -0.0386
12717W        W30241   8.316   5.023  11.761  0.1423  0.2828 -0.1273
12718W        W30242  16.464   3.808  12.668  0.4313  0.1430  0.2120
12719W        W30243   2.618   6.328   4.224  0.0917 -0.0057  0.1321
12720W        W30244  11.164   8.057   0.868 -0.2493 -0.2200  0.1198
12721W        W30245   3.104   8.528   5.482  0.0215 -0.1483  0.3640
12722W        W30246   8.826   5.124  12.424  0.0810  0.0331 -0.1739
12723W        W30247   9.770   0.476   0.399 -0.1396 -0.4509  0.4300
12724W        W30248  18.111   7.107   2.267  0.0924 -0.1608  0.3069
12725W        W30249  16.889   7.998   1.058 -0.2290  0.1186  0.0266
12726W        W30250  16.216   3.462  14.542  0.1501  0.1678  0.0394
12727W        W30251  14.499  13.607  13.092 -0.1321 -0.0019  0.1250
12728W        W30252  12.030  11.464   4.903 -0.1544 -0.3199  0.1139
12729W        W30253  10.715  18.014   4.811 -0.1473 -0.0105  0.0215
12730W        W30254  17.318  11.893   1.447  0.1717 -0.0752 -0.0926
12731W        W30255   0.007  16.286   2.615  0.0287  0.0789 -0.1424
12732W        W30256   4.483  12.913  12.965  0.1005 -0.1752  0.0743
12733W        W30257  15.047   2.901   0.323  0.0085 -0.0964  0.0140
12734W        W30258   6.894   1.430  11.657  0.2655  0.1657 -0.0531
12735W        W30259  15.816   8.192   4.257 -0.0246 -0.1249 -0.0778
12736W        W30260  12.889   7.111   3.893  0.1437 -0.2676 -0.0948
12737W        W30261   5.379  10.474  14.768 -0.1962 -0.1861  0.2817
12738W        W30262   0.395   6.957   3.203 -0.3865 -0.2555  0.0318
12739W        W30263   3.866   9.139   3.168  0.2310  0.3563 -0.1054
12740W        W30264   6.951   7.953   1.961  0.0907  0.3535  0.2531
12741W        W30265   3.239  16.781   1.953  0.3805 -0.0811  0.4849
12742W        W30266   5.061  17.245  15.599 -0.0862 -0.0107 -0.1674
12743W        W30267  17.961   2.560   4.277  0.0471  0.1467  0.1173
12744W        W30268  13.474   2.168   1.839 -0.1362  0.0257  0.0021
12745W        W30269  14.988  13.263  15.309  0.0064  0.1277 -0.3227
12746W        W30270  15.256   9.158   4.251 -0.0790  0.0633 -0.2700
12747W        W30271   6.835  12.031  10.572  0.2449  0.3321 -0.1591
12748W        W30272   0.356   2.542  15.270 -0.1232  0.3574 -0.1678
12749W        W30273  10.659  16.415  10.133 -0.1748 -0.1863 -0.0796
12750W        W30274   2.815  16.179   2.778  0.1696  0.1217 -0.0758
12751W        W30275   2.131  16.528   2.110 -0.2272 -0.1834  0.1111
12752W        W30276   4.002   2.145  15.303 -0.2403  0.0394 -0.4008
12753W        W30277  17.286  13.707   4.652 -0.1519  0.2434 -0.1481
12754W        W30278   2.933  17.959   3.671 -0.0108  0.0960  0.0344
12755W        W30279   9.657  10.575  14.834  0.0967  0.0717  0.1761
12756W        W30280   9.244   9.792   0.876  0.1552 -0.0046 -0.0776
12757W        W30281  15.825   0.425   2.150 -0.1292  0.2616 -0.0136
12758W        W30282  13.110  14.306  16.043 -0.3429  0.0440  0.0791
12759W        W30283  17.775  13.535   0.862 -0.2171 -0.1679  0.0378
12760W        W30284  16.450   4.861  14.064  0.0619  0.1995 -0.0458
12761W        W30285  11.030   3.811  11.765 -0.2642  0.1614  0.0824
12762W        W30286   8.757  14.336  13.008  0.0520  0.0943  0.1917
12763W        W30287   0.588   3.904  15.000 -0.0995 -0.0165  0.1048
12764W        W30288   2.241   8.924  11.623  0.1657  0.1602 -0.1335
12765W        W30289  11.132  17.556  14.120  0.1575 -0.1583 -0.1452
12766W        W30290  11.126   5.204  15.624 -0.2531  0.0469 -0.0976
12767W        W30291  10.365  18.052   0.828  0.0845  0.1779 -0.1813
12768W        W30292   2.812  16.175   4.085 -0.0770  0.0130 -0.0476
12769W        W30293   6.311  17.212  13.956  0.0420 -0.0098  0.1840
12770W        W30294  13.714  10.699   3.345 -0.0189  0.0707 -0.1190
12771W        W30295  15.961   8.457  13.136 -0.1432 -0.3007  0.1401
12772W        W30296   3.888  10.729   1.299 -0.0042 -0.0651 -0.0263
12773W        W30297   1.543  13.272   5.681  0.2066  0.0775 -0.4829
12774W        W30298   6.650   1.973   1.214 -0.1545 -0.1087 -0.2378
12775W        W30299   4.970  15.893  15.861 -0.0658 -0.1651 -0.0380
12776W        W30300  10.949   0.546   1.778 -0.0493  0.0100  0.3518
12777W        W30301   4.397   1.180  11.642  0.0032 -0.1067  0.1438
12778W        W30302  10.669   6.825   4.186 -0.1746  0.1766 -0.0240
12779W        W30303   5.085   4.284   3.692  0.0549  0.3039  0.0478
12780W        W30304  13.727   5.216  16.023 -0.1217  0.2899  0.1787
12781W        W30305  13.108  10.752  11.606 -0.1275  0.2406  0.0596
12782W        W30306  17.957  11.120   0.015  0.1678  0.1660 -0.0056
12783W        W30307  11.902  13.390   0.881  0.1575  0.1149 -0.1024
12784W        W30308  16.978  14.221   2.741  0.1009  0.0441 -0.0064
12785W        W30309  14.624   3.349   1.122 -0.1317 -0.0315  0.0558
12786W        W30310   7.235   9.628  10.048  0.0611 -0.1592  0.1351
12787W        W30311  14.696   9.927   2.587  0.0036 -0.0446 -0.0151
12788W        W30312  10.067  11.138   1.335  0.0128 -0.0732  0.0043
12789W        W30313   4.587  10.477  10.866  0.0977 -0.0200 -0.3230
12790W        W30314  13.086   0.974   3.750  0.1457 -0.0047  0.1660
12791W        W30315   2.022   9.063  12.210  0.0540 -0.0008 -0.0233
12792W        W30316  17.670   7.236  11.544  0.0918 -0.3168 -0.2522
12793W        W30317  14.240   4.464  10.952 -0.1572  0.3453  0.1980
12794W        W30318  11.066   1.040  11.535  0.0721 -0.1074  0.0666
12795W        W30319   5.711   8.520  11.361 -0.1429  0.3011 -0.0792
12796W        W30320  17.316   3.975  15.709 -0.0628 -0.4104 -0.2483
12797W        W30321  11.288   1.744   4.671  0.0617 -0.0297  0.1932
12798W        W30322  16.702  15.557  15.006 -0.1399  0.1689 -0.0590
12799W        W30323   3.043  16.800  16.013  0.1039 -0.0227 -0.0986
12800W        W30324  12.780   9.379   2.512  0.2481  0.1246 -0.0223
12801W        W30325   5.986   2.505   4.414  0.0295  0.1464 -0.0012
12802W        W30326   3.234   8.760   3.619  0.3020 -0.1744  0.1157
12803W        W30327   7.502  15.473  14.843  0.1778  0.0525 -0.2437
12804W        W30328  12.145  17.297   0.494 -0.0525 -0.0536  0.0093
12805W        W30329  15.804  12.003  13.845 -0.0895 -0.2335  0.0521
12806W        W30330  12.960  11.762   3.451 -0.0351 -0.1622  0.0057
12807W        W30331   3.232   7.267   2.076  0.0565  0.1068 -0.0813
12808W        W30332   7.564   1.278   2.324  0.1869  0.1748 -0.0064
12809W        W30333   8.598  13.206   0.386  0.3178  0.0679 -0.2229
12810W        W30334  17.343  15.541   3.702 -0.0263  0.0819 -0.1004
12811W        W30335   4.680  11.653   0.114  0.1299 -0.0815 -0.0193
12812W        W30336  14.572  13.348  12.325 -0.0130  0.0061 -0.2719
12813W        W30337  15.366  17.980  13.677  0.2961  0.3293 -0.0794
12814W        W30338   4.890   6.149   3.452  0.1498 -0.0550 -0.2200
12815W        W30339   9.252  10.900  11.837 -0.0899 -0.1478  0.1017
12816W        W30340   7.348   0.293  10.373 -0.1919 -0.2842  0.1339
12817W        W30341   1.333   6.424   4.640  0.2392 -0.0543  0.0308
12818W        W30342   2.235   3.662   4.280  0.1168 -0.1613  0.2185
12819W        W30343  10.284  11.487   1.047  0.1772 -0.1358 -0.2134
12820W        W30344   2.870   8.357  11.499  0.0694  0.0905 -0.1276
12821W        W30345   7.865   3.371  11.486 -0.2968 -0.5750  0.0845
12822W        W30346  17.856  13.620  13.719  0.1136 -0.0417 -0.3463
12823W        W30347   0.411  13.449  12.503 -0.0461  0.1448 -0.1975
12824W        W30348   5.760  12.781  10.155  0.2193  0.1253 -0.0688
12825W        W30349   2.685  18.082  11.822 -0.2488 -0.0260  0.0469
12826W        W30350  14.957  17.211   3.645 -0.3470 -0.0251  0.0935
12827W        W30351   1.914   6.507  14.163  0.1272  0.0423 -0.1518
12828W        W30352   0.024  14.239   1.384  0.0796 -0.2608  0.0048
12829W        W30353   8.538  10.403  13.910 -0.1228 -0.2329  0.0788
12830W        W30354  11.350   2.670   3.754 -0.2323 -0.0537 -0.0073
12831W        W30355   7.269  17.857  12.566  0.0905  0.1126  0.0009
12832W        W30356  13.349  16.817   3.252  0.2870 -0.2142 -0.1254
12833W        W30357  15.509   0.436  15.272 -0.2512 -0.1010 -0.3076
12834W        W30358  16.590   9.621  15.495  0.1495  0.4626  0.0920
12835W        W30359  15.751   5.443   0.345 -0.3039  0.1012  0.2275
12836W        W30360  12.285   3.904  14.846  0.1439 -0.2503 -0.0650
12837W        W30361   4.594  10.585  15.303 -0.0784  0.1728 -0.0853
12838W        W30362  10.863  16.469   0.422 -0.0429 -0.5356 -0.1825
12839W        W30363   9.379   9.236   1.977 -0.0651 -0.1408  0.0782
12840W        W30364   0.522   6.167  15.058  0.0135 -0.1525 -0.5368
12841W        W30365   3.401  17.823   3.490  0.2882  0.2762  0.2065
12842W        W30366  13.669  13.180  11.767  0.1643  0.2163  0.1388
12843W        W30367  17.113   2.682  15.647 -0.1845  0.0882 -0.2810
12844W        W30368   1.982  11.524   3.486  0.2097 -0.0037  0.0078
12845W        W30369  12.229  10.532   5.711  0.0601 -0.0166 -0.2233
12846W        W30370   7.783   6.629   4.289  0.2434 -0.1468 -0.1529
12847W        W30371   0.871   9.211  15.269 -0.0734 -0.4972  0.1829
12848W        W30372   8.007   6.816   1.766  0.0707  0.0186 -0.0273
12849W        W30373   6.051  12.450  11.583  0.0797 -0.0757  0.0627
12850W        W30374   0.641  10.270   0.264  0.0715  0.0066 -0.0058
12851W        W30375   1.721   1.576  12.403 -0.2085 -0.1018 -0.1296
12852W        W30376   4.726   4.442  11.177  0.0437 -0.0688 -0.0578
12853W        W30377   0.039   7.909   4.377 -0.1061  0.0230 -0.2628
12854W        W30378   3.906  12.599  14.405 -0.0451  0.0723 -0.2350
12855W        W30379  16.815   6.598   1.350 -0.0312  0.3304  0.5408
12856W        W30380   5.866  12.520   1.345 -0.2505  0.4031 -0.1202
12857W        W30381   4.272  11.600   1.183  0.2191  0.1209 -0.1559
12858W        W30382  12.114  16.865   3.150 -0.0521  0.0308  0.3008
12859W        W30383   9.644   4.018  15.679  0.0058  0.1857  0.0971
12860W        W30384   9.637   9.931  14.087  0.1680 -0.1912 -0.1893
12861W        W30385  14.141   8.641  12.080  0.2506  0.2081  0.1753
12862W        W30386  11.994  14.744   2.915  0.2730  0.0291 -0.0540
12863W        W30387  13.293   8.018   5.623 -0.1759  0.1189  0.0502
12864W        W30388  12.444  13.900   4.571 -0.1506  0.3453  0.4081
12865W        W30389   4.512  13.244  13.333 -0.1836 -0.3134 -0.0977
12866W        W30390  10.137   0.271  15.115 -0.1401 -0.1601  0.3584
12867W        W30391  10.214  10.792  11.529 -0.1809 -0.4671  0.0250
12868W        W30392  14.941   1.937  14.416 -0.1412  0.2728  0.0958
12869W        W30393   0.927  12.154   6.003 -0.0934  0.1452 -0.3086
12870W        W30394  12.202  14.257   5.785 -0.3011 -0.0949  0.0774
12871W        W30395   9.818   2.639  13.963 -0.0190 -0.0207  0.0960
12872W        W30396   7.296   3.709  12.789  0.1121 -0.0707  0.0718
12873W        W30397   4.485   0.856  13.608 -0.0915  0.0147 -0.0488
12874W        W30398  15.276  10.195  11.636  0.1542 -0.0596 -0.2498
12875W        W30399   7.368   6.934   3.396 -0.0226  0.1288  0.0217
12876W        W30400   0.618  18.097   0.009  0.0599 -0.1946  0.1434
12877W        W30401   7.158  11.790   2.496  0.0484  0.0585 -0.0175
12878W        W30402   9.981   4.483  14.874 -0.2063  0.1462 -0.1899
12879W        W30403  12.560  13.095   0.332 -0.3124  0.0613 -0.2843
12880W        W30404  12.154   0.469   4.758  0.2905  0.0507 -0.0705
12881W        W30405   7.805  11.952   1.725 -0.0434  0.1950 -0.1443
12882W        W30406  17.614  15.163  14.328 -0.3596 -0.0378 -0.2566
12883W        W30407  15.733  16.970  13.506 -0.0961  0.1708 -0.4623
12884W        W30408   7.137   8.750  15.071 -0.0498  0.0036  0.1479
12885W        W30409   7.142  17.895   1.533 -0.1143 -0.0002 -0.0238
12886W        W30410   5.527   8.716  13.681  0.0822 -0.0748 -0.4340
12887W        W30411   5.019  15.712  12.160 -0.1232 -0.0139  0.1037
12888W        W30412  17.784  13.933  12.905 -0.2554  0.0376 -0.0546
12889W        W30413  14.772  16.880  11.870 -0.0019  0.0840 -0.0106
12890W        W30414   6.512  14.611   3.027 -0.4143  0.1527 -0.0381
12891W        W30415  18.083   2.498  12.683  0.2243 -0.0851 -0.1687
12892W        W30416   8.356  16.673   1.935  0.2627 -0.1697 -0.0561
12893W        W30417  10.383  15.657   5.198  0.2545 -0.0997  0.2232
12894W        W30418  11.970  16.906   0.112  0.3191 -0.1647  0.0786
12895W        W30419  10.999  10.489  12.463 -0.0817  0.1290 -0.1834
12896W        W30420   7.020   8.923  11.274  0.2462  0.2183 -0.0704
12897W        W30421   1.306  10.934  13.322  0.1777 -0.0602  0.3021
12898W        W30422   3.583   9.520   1.117  0.0168 -0.2856  0.0400
12899W        W30423  14.263  11.731  13.255 -0.0818  0.0289 -0.1306
12900W        W30424   4.409  15.777   3.752  0.3168  0.0615 -0.2264
12901W        W30425   2.917   0.923  12.561  0.0888 -0.0771 -0.0054
12902W        W30426   7.168  14.910   2.048  0.0917 -0.1464  0.1247
12903W        W30427   3.065  10.222   4.749  0.0947 -0.1849 -0.5058
12904W        W30428   4.242   0.731  14.132 -0.4205 -0.1811 -0.0461
12905W        W30429  16.821   2.707   0.078  0.0280  0.2298 -0.0132
12906W        W30430  13.950   6.744  15.751 -0.2649  0.1702 -0.0346
12907W        W30431  13.376  11.911   4.231 -0.0269  0.1307  0.1082
12908W        W30432   2.750  15.929  15.579  0.0700  0.1883  0.2508
12909W        W30433   8.166   2.896  12.808  0.0078  0.2617 -0.2593
12910W        W30434  10.162  12.408  15.555 -0.0265  0.0043 -0.0245
12911W        W30435   4.257   6.835   4.146 -0.1313 -0.1768 -0.3185
12912W        W30436   4.885   2.048  14.644 -0.1518  0.0477 -0.3695
12913W        W30437   1.819  10.121   4.008  0.2010  0.2536 -0.0599
12914W        W30438   9.292  11.299   4.580  0.1700 -0.1545 -0.2563
12915W        W30439   6.135  16.297  11.370  0.1504 -0.3417  0.0809
12916W        W30440   2.475   4.393   2.283  0.4064  0.0544 -0.1451
12917W        W30441   3.635   1.840  14.509 -0.1526 -0.1333  0.0274
12918W        W30442  10.582   8.918   4.347  0.0783 -0.2084  0.1155
12919W        W30443  17.197   0.772   4.911 -0.0104 -0.3440  0.2515
12920W        W30444  15.281   5.225  13.332 -0.1311  0.0324  0.1504
12921W        W30445   9.330  17.886   1.115 -0.1021 -0.1453 -0.3126
12922W        W30446   0.622  14.300   1.353  0.1368 -0.1263 -0.0738
12923W        W30447   2.091   5.252  15.199 -0.1472 -0.5014 -0.0944
12924W        W30448   0.396  18.002  12.681 -0.0618  0.1694  0.1338
12925W        W30449   8.963   5.870   4.452 -0.4193 -0.0630  0.1399
12926W        W30450   2.803  14.339   0.727  0.0838 -0.2556 -0.0578
12927W        W30451  14.390   6.374  13.286 -0.4070 -0.0403  0.1716
12928W        W30452   0.852  15.590   4.777  0.3100 -0.0837 -0.1841
12929W        W30453   0.718  17.385  13.094 -0.1578 -0.1538  0.0406
12930W        W30454   5.197   7.979  11.660 -0.0951 -0.0597  0.0834
12931W        W30455   1.460   1.037   3.727  0.1038 -0.0322 -0.0446
12932W        W30456   3.711   4.042   2.697 -0.1357 -0.0333 -0.3336
12933W        W30457   9.569   8.268   0.520 -0.1100 -0.1926  0.1394
12934W        W30458  13.187   0.537   4.628 -0.0997 -0.2935 -0.1732
12935W        W30459  16.126   4.051   1.776  0.3286 -0.1736 -0.0566
12936W        W30460  16.672  12.362  15.345 -0.2717  0.1384 -0.2499
12937W        W30461   1.044   8.009  12.421  0.1252 -0.2280  0.3090
12938W        W30462  15.464  12.541   1.172 -0.3279  0.4644  0.1550
12939W        W30463   4.809   4.238  10.026  0.1631 -0.1516  0.0922
12940W        W30464   0.029  12.750   0.486 -0.0306 -0.0558 -0.2421
12941W        W30465  11.655   5.872   1.279  0.2527 -0.0514 -0.2426
12942W        W30466  14.413   7.652  12.031 -0.3394  0.0506  0.0147
12943W        W30467   9.905   2.693  10.204  0.0457 -0.0592  0.0552
12944W        W30468  15.157   9.510   2.108  0.0807  0.1566  0.0292
12945W        W30469  14.078  15.048   2.369  0.1561  0.0817  0.1445
12946W        W30470  15.770   8.159  15.926 -0.1010  0.2286  0.1380
12947W        W30471  12.421   4.438   2.149 -0.2014  0.2721  0.1121
12948W        W30472  12.060  13.909   2.779 -0.2876  0.0636  0.2101
12949W        W30473   2.530   5.970  11.620 -0.3508 -0.2455 -0.1392
12950W        W30474   0.135   0.740   4.839  0.1245 -0.2491  0.3454
12951W        W30475  16.098   1.014  10.982  0.1800 -0.1202 -0.1172
12952W        W30476   8.320   2.310   0.552 -0.1970 -0.1417 -0.1580
12953W        W30477  14.677  15.312   1.117  0.0847 -0.1427 -0.1999
12954W        W30478  13.853  14.334   2.727 -0.1957 -0.1005  0.0464
12955W        W30479  13.225   5.246   5.109  0.2110 -0.0531  0.4206
12956W        W30480   5.877  15.810   3.882  0.0447  0.1138  0.5749
12957W        W30481   3.415  16.293  15.426 -0.0932  0.0675  0.2752
12958W        W30482   3.070   8.953  13.305 -0.1905 -0.1053 -0.0146
12959W        W30483  15.758  15.423   0.391 -0.1528  0.1483  0.2724
12960W        W30484   7.693  15.383   4.475  0.2526  0.0481 -0.0110
12961W        W30485   7.653  12.332   4.149 -0.0104  0.1086 -0.0631
12962W        W30486  14.971  11.896  12.611 -0.2130 -0.1854 -0.1488
12963W        W30487   6.873   7.455  14.504  0.1006  0.1002  0.0628
12964W        W30488  14.509   1.736  12.803 -0.0946  0.3429  0.0546
12965W        W30489  14.424   2.088  14.258 -0.1674  0.1001  0.1057
12966W        W30490  10.707  16.115  11.652  0.0992 -0.2467 -0.1227
12967W        W30491   2.433   1.681  13.617 -0.1276 -0.0714 -0.4201
12968W        W30492   4.526  11.164   3.302 -0.1814 -0.2689  0.1674
12969W        W30493   2.016  17.941   3.401 -0.0855  0.0410 -0.1380
12970W        W30494   7.595   6.078  14.918 -0.0572  0.2654  0.0874
12971W        W30495  10.714   2.187   2.384 -0.2519  0.3977 -0.2767
12972W        W30496  11.324  11.519   0.613  0.0879  0.0993  0.2216
12973W        W30497   9.913   6.764   0.609 -0.0591  0.2306 -0.0364
12974W        W30498  11.738  18.009   2.690  0.1369  0.0043  0.2280
12975W        W30499  14.521  12.203  15.779  0.1991 -0.2028 -0.1033
12976W        W30500  15.051   5.093  14.888  0.2597  0.1748 -0.0144
12977W        W30501  17.421  16.860   3.721  0.2127 -0.0548 -0.0729
12978W        W30502  14.267  14.138   2.401 -0.0624 -0.0504  0.2049
12979W        W30503  10.682   9.638   0.638  0.1266  0.1087 -0.2424
12980W        W30504  12.100   4.612   0.485  0.0329 -0.0430  0.0666
12981W        W30505   1.417   9.045   0.168  0.0686  0.1423 -0.2178
12982W        W30506   8.351  13.519   4.354 -0.1746  0.0962  0.3008
12983W        W30507   9.450   1.721   0.903 -0.0537  0.1772 -0.1025
12984W        W30508  12.022  18.102   0.453 -0.1492  0.3705  0.1264
12985W        W30509   2.157   8.824   4.235 -0.1626  0.1306  0.0156
12986W        W30510   6.271   7.552  13.661  0.1447 -0.2529  0.0444
12987W        W30511   0.370  13.555   0.763 -0.4693 -0.0393 -0.5516
12988W        W30512   8.857  14.222  15.758 -0.0250 -0.0652  0.4625
12989W        W30513   0.529  16.847   1.219 -0.1970 -0.2735 -0.0308
12990W        W30514  10.981   3.503   1.228  0.0340  0.0037 -0.4516
12991W        W30515   9.926  15.142   3.649  0.2597  0.4105 -0.0412
12992W        W30516  10.951   6.543  11.401 -0.3561  0.3901 -0.2836
12993W        W30517   3.487   0.486  14.114 -0.0373 -0.0886 -0.0599
12994W        W30518   7.775  10.858   1.158  0.3653 -0.0060  0.4376
12995W        W30519   3.774   8.810   4.061 -0.1830  0.2375 -0.0132
12996W        W30520   4.002  13.744  11.991 -0.1418 -0.3336 -0.2241
12997W        W30521   4.833  17.088  13.902  0.2669 -0.0470  0.0732
12998W        W30522   8.037  17.120  11.808  0.0650 -0.0479  0.1296
12999W        W30523   1.578   1.578   2.966  0.1460  0.0960  0.4261
13000W        W30524   7.550  11.214   0.779  0.2812 -0.1926 -0.0759
13001W        W30525  16.400   1.592  14.342  0.0824  0.1312  0.1817
13002W        W30526   3.527  13.608   5.873 -0.3015  0.0112 -0.2805
13003W        W30527  17.030   3.971   1.776  0.2162  0.0519  0.2238
13004W        W30528   1.294  12.708  13.542  0.0977 -0.1238 -0.1832
13005W        W30529   0.904   9.727  15.029  0.0560  0.1662  0.0863
13006W        W30530   6.240  12.813  12.534 -0.0164 -0.0572 -0.0296
13007W        W30531   8.878   1.619   4.177  0.0340  0.3029  0.0405
13008W        W30532   6.264  15.714  12.116 -0.0028 -0.0380 -0.1069
13009W        W30533   1.954   4.068  14.682  0.1795 -0.0782  0.3304
13010W        W30534  14.220  14.752   1.987 -0.1905 -0.2594 -0.3459
13011W        W30535  17.014  14.064   2.254  0.0647 -0.0913  0.1017
13012W        W30536  12.116  17.644   2.066  0.0929  0.1981 -0.3340
13013W        W30537   6.856  17.874  15.799 -0.3084  0.1178  0.0057
13014W        W30538   8.658  15.644   2.251  0.1334 -0.0738  0.0995
13015W        W30539  14.081   8.326   1.344  0.0933 -0.2536 -0.2738
13016W        W30540  10.539  13.834   5.108  0.1273 -0.2814  0.0916
13017W        W30541   1.398  18.138   4.721 -0.1397 -0.1937 -0.1210
13018W        W30542   5.131   6.585   4.197 -0.2568 -0.0584 -0.1766
13019W        W30543  15.870   1.907   3.464 -0.1035  0.0330  0.2032
13020W        W30544   9.079  13.464   2.981 -0.1627  0.1027 -0.1791
13021W        W30545  14.601   3.527   4.762  0.0979 -0.2490  0.1475
13022W        W30546   9.954  12.917   2.574 -0.1307 -0.0962  0.2578
13023W        W30547   3.301   6.504   1.705  0.2408 -0.1870 -0.4264
13024W        W30548  18.096   3.280   4.773 -0.0309  0.1086 -0.0429
13025W        W30549   1.822  13.173  12.870  0.3260  0.1963 -0.3138
13026W        W30550   6.587   2.057  15.086  0.1998  0.0660  0.0839
13027W        W30551  13.999   5.537  15.797  0.1139  0.2580  0.1797
13028W        W30552   8.991  10.715  13.866  0.0892  0.0730 -0.0875
13029W        W30553   0.407   9.566  15.097 -0.0288  0.2337 -0.1729
13030W        W30554  13.483   2.566  14.273  0.5180 -0.1200  0.1275
13031W        W30555  15.670   1.228  14.762 -0.1333  0.0763  0.2525
13032W        W30556   3.122   3.078  12.279 -0.0050  0.1026  0.2265
13033W        W30557  11.498   1.126  15.282 -0.0533 -0.0290  0.0750
13034W        W30558   8.086   6.571  14.627 -0.1280  0.1558  0.0196
13035W        W30559   4.557   0.349   0.596 -0.3068 -0.1485 -0.1602
13036W        W30560   3.961  17.632   5.596 -0.0403 -0.0821  0.0839
13037W        W30561  15.545   1.516   3.455  0.2528 -0.1060 -0.1555
13038W        W30562  17.317   1.754   0.192  0.0602 -0.0868  0.0444
13039W        W30563  17.863  10.510  13.332  0.0512  0.0949 -0.1209
13040W        W30564   6.834   9.606  13.222 -0.0122  0.3375 -0.2238
13041W        W30565  17.847   9.129   2.488  0.3732  0.4169  0.1477
13042W        W30566  15.650   4.603  15.106 -0.0543  0.2076  0.2278
13043W        W30567   1.008   8.426   1.197  0.3181 -0.2064 -0.1445
13044W        W30568  14.053  13.895  13.059  0.0338  0.1819  0.0799
13045W        W30569   7.042  17.121  14.605  0.0712  0.1741 -0.0174
13046W        W30570   2.830   0.346   4.641 -0.4604 -0.4198 -0.1396
13047W        W30571   7.361   9.176   0.618  0.2153  0.0746  0.3496
13048W        W30572   9.376   8.163   4.423  0.1449 -0.0141  0.2675
13049W        W30573   8.916   7.808  15.513  0.0426  0.1906 -0.1106
13050W        W30574   9.428   4.597  12.660 -0.0938  0.2408  0.0474
13051W        W30575   9.265   0.394  10.803  0.0119 -0.1614 -0.0845
13052W        W30576   4.542   3.831  14.146 -0.0813  0.0309  0.1761
13053W        W30577   8.972   0.126   0.827 -0.0851 -0.0037 -0.2701
13054W        W30578   2.224   3.697  14.402 -0.0573  0.2284 -0.1196
13055W        W30579  16.848   6.034   0.697  0.0797 -0.1415 -0.1755
13056W        W30580  14.949   4.585   1.078 -0.0810 -0.0057  0.2161
13057W        W30581  12.227  13.000   4.018 -0.0788  0.2238  0.0293
13058W        W30582  13.246   8.295   5.033 -0.0043 -0.0096  0.1848
13059W        W30583  15.070   6.054  16.022 -0.5037  0.2138  0.4514
13060W        W30584  15.236  11.165  13.227  0.1955 -0.3713  0.1391
13061W        W30585   8.454   1.514  11.193  0.1797  0.0556  0.3654
13062W        W30586  10.537   9.648  11.563 -0.1272  0.0100  0.0675
13063W        W30587  14.804  15.979   1.754  0.0633 -0.0462 -0.1095
13064W        W30588   4.824  17.188   2.526  0.2269  0.0446  0.3129
13065W        W30589  12.855   2.719   2.840 -0.3018  0.0798 -0.1698
13066W        W30590   0.485   0.076   2.309 -0.1241  0.0597 -0.0629
13067W        W30591  13.077   1.340  12.291  0.2891 -0.1985 -0.3226
13068W        W30592  15.391  12.075  15.133  0.1162  0.0216 -0.3043
13069W        W30593   6.431  16.676  11.150 -0.1048  0.0621 -0.0466
13070W        W30594   7.626  15.101  12.343  0.2003 -0.0419  0.0179
13071W        W30595  16.553   2.661  14.725  0.0632  0.2761 -0.0521
13072W        W30596   8.205  17.116   1.582  0.0347  0.2319  0.0544
13073W        W30597   9.236  15.384   0.510  0.0083 -0.0060  0.1690
13074W        W30598   7.224   0.137  13.636  0.0289 -0.0604 -0.0956
13075W        W30599  13.435  14.378   2.535 -0.2276 -0.1309  0.4549
13076W        W30600  16.240   1.000   3.879 -0.0172 -0.1309 -0.0264
13077W        W30601  10.512   3.475   0.375  0.1782  0.0537 -0.3276
13078W        W30602  11.490  12.649  14.495  0.1519  0.1549 -0.1357
13079W        W30603  10.460   1.961   1.607  0.0034 -0.0919  0.5158
13080W        W30604   0.201  14.226  15.468  0.1044 -0.3022  0.3195
13081W        W30605   7.830  13.242  11.562  0.0053  0.0321  0.0843
13082W        W30606   2.784  10.746   2.780  0.0488 -0.1081  0.3058
13083W        W30607   5.325  12.733  15.212  0.0475 -0.0278  0.0702
13084W        W30608   5.052   2.950   2.522  0.0959  0.0474  0.2950
13085W        W30609   0.384  17.728   3.662 -0.1400 -0.1392 -0.0996
13086W        W30610  17.216   5.853   2.966 -0.1476  0.1479 -0.0190
13087W        W30611   3.053  13.648   2.857  0.2806  0.0017 -0.0908
13088W        W30612  10.470  16.181  12.463  0.2143  0.0429 -0.1880
13089W        W30613  14.281  14.078  13.960  0.1861 -0.1391  0.0686
13090W        W30614   1.483  18.006   0.820 -0.0982  0.2927  0.3698
13091W        W30615   5.404   2.426  12.720  0.0905  0.2151  0.1254
13092W        W30616  13.804  12.304  11.049  0.0154  0.1323 -0.0435
13093W        W30617   9.418  10.521   0.099  0.1399  0.3189 -0.2059
13094W        W30618   7.929  10.142   2.820 -0.3488 -0.2162 -0.1041
13095W        W30619  12.216   3.246  12.558 -0.1785 -0.2764  0.0491
13096W        W30620   4.539  10.296   3.790  0.1439 -0.1714  0.0422
13097W        W30621   2.414   4.316   2.766  0.1787 -0.0344 -0.0975
13098W        W30622   9.773  14.229  15.423 -0.0149  0.1011 -0.2357
13099W        W30623   2.505  11.495   1.931  0.0460  0.3131  0.3003
13100W        W30624  13.423   5.670   1.354 -0.0701  0.0917 -0.0675
13101W        W30625   5.234   5.714   4.679  0.0457 -0.2077 -0.0578
13102W        W30626  12.386  12.939  13.376 -0.0104  0.0109  0.1288
13103W        W30627   9.567  10.900   4.796  0.0339  0.1586 -0.2998
13104W        W30628  16.941   2.114  12.934  0.1140 -0.1081 -0.4148
13105W        W30629   8.291   9.445  15.414 -0.0445 -0.0449  0.0949
13106W        W30630  12.631  12.616   0.723  0.1427  0.0132 -0.0508
13107W        W30631   6.528   0.617  15.525 -0.1510 -0.4222 -0.0042
13108W        W30632   0.870  13.308  12.403 -0.0059 -0.1665 -0.0904
13109W        W30633   4.271   6.338   1.964  0.1684 -0.0167 -0.1473
13110W        W30634   8.429   7.148  12.537  0.2275 -0.0529 -0.0448
13111W        W30635  17.581   4.455  12.360 -0.1163 -0.1070 -0.0945
13112W        W30636  17.635  11.351   0.392 -0.0319  0.1539 -0.0264
13113W        W30637   9.964   0.254   2.088  0.2553  0.0180 -0.2466
13114W        W30638  10.224   8.625   4.529 -0.0938 -0.2423  0.1051
13115W        W30639   4.195  14.303   0.100 -0.2106  0.1439  0.1747
13116W        W30640   1.881   3.351  14.307 -0.0874  0.3062  0.2297
13117W        W30641  11.121  11.388   3.684 -0.1605 -0.1724 -0.0312
13118W        W30642   8.500   2.729   3.213 -0.0254 -0.2688 -0.1158
13119W        W30643   0.737   6.618   0.620  0.1445 -0.0808 -0.0610
13120W        W30644   9.764  16.422  13.451 -0.0535  0.0124  0.0038
13121W        W30645   4.806  17.504   5.902  0.0971  0.2417  0.1663
13122W        W30646  13.129   6.888  16.016 -0.1954  0.0243  0.1956
13123W        W30647   6.674  14.004   1.421  0.2076 -0.2539  0.3345
13124W        W30648  17.711   6.841  11.285  0.0598  0.2673 -0.2850
13125W        W30649   1.085   9.473   3.649 -0.0267  0.1779  0.1746
13126W        W30650   1.108   7.172  13.294 -0.0098 -0.0806 -0.2946
13127W        W30651  15.431   2.874   4.054  0.0332 -0.1654  0.2090
13128W        W30652  10.845  13.107  14.767  0.2106  0.0167  0.1284
13129W        W30653  13.127  15.464   2.338 -0.1162  0.3144 -0.1882
13130W        W30654  10.216   1.890   4.003  0.0852  0.0526 -0.1619
13131W        W30655  16.228   6.130  11.718 -0.1565  0.2159  0.2154
13132W        W30656  15.052   6.876  14.335  0.3835 -0.2077 -0.1472
13133W        W30657  14.506  18.091   5.964 -0.0294 -0.1125  0.0038
13134W        W30658   3.984  14.138   5.184  0.1674  0.4865  0.0851
13135W        W30659  10.012   8.142   0.238 -0.0459 -0.1263 -0.0942
13136W        W30660  16.890  11.217   0.102 -0.1275  0.0079 -0.1376
13137W        W30661   2.665  10.147   3.380 -0.2948 -0.0346  0.0746
13138W        W30662   1.710  16.556   1.260  0.0617  0.0743  0.1369
13139W        W30663  11.012  14.379   5.830  0.0188  0.0204  0.3162
13140W        W30664   8.101  11.513   4.471  0.2616 -0.0111 -0.1939
13141W        W30665  12.931  10.896   0.556  0.1211  0.1250 -0.0329
13142W        W30666   6.668   1.821   0.718  0.0678 -0.1466 -0.1209
13143W        W30667  11.800   6.424  12.728 -0.0313 -0.0199 -0.0108
13144W        W30668  12.998   7.040  15.554  0.1723 -0.2161  0.0891
13145W        W30669   2.889   3.525  10.631 -0.2278 -0.2018 -0.0711
13146W        W30670   7.124   2.329  11.916 -0.1861  0.0197 -0.0064
13147W        W30671   4.902   1.502   2.424  0.0382 -0.1332  0.1434
13148W        W30672  11.064  13.193   5.332  0.1977 -0.0859  0.1059
13149W        W30673   1.755  15.631   0.763  0.2433  0.0568  0.1171
13150W        W30674   2.243   5.241  12.291 -0.0156  0.1022 -0.0952
13151W        W30675  17.482   9.615   1.675 -0.3120  0.0669  0.0478
13152W        W30676  18.108  17.610   3.442  0.0124 -0.5751  0.1249
13153W        W30677   0.817   9.009   3.187  0.1017  0.2025  0.1059
13154W        W30678  10.716  14.270   4.840 -0.1967  0.0072  0.0131
13155W        W30679   4.085   8.302   2.780  0.2466 -0.0703 -0.3435
13156W        W30680  12.765  13.132   0.892  0.0931 -0.0974 -0.0099
13157W        W30681   1.712   7.272  15.174  0.0499 -0.1039 -0.1172
13158W        W30682  14.830  10.191   2.981  0.1678  0.0877  0.0426
13159W        W30683  16.415  13.449   1.906 -0.0437 -0.0592 -0.0337
13160W        W30684   1.749   2.634   2.426 -0.1418 -0.1201 -0.0896
13161W        W30685   3.968   5.812  11.463  0.3715  0.2539  0.0445
13162W        W30686   3.412  13.576   0.597 -0.1359 -0.1171 -0.0139
13163W        W30687  10.982  17.523  11.800  0.0594 -0.2922  0.1702
13164W        W30688  11.391   0.426  14.019 -0.0571 -0.0590 -0.1019
13165W        W30689   4.567   1.037   1.960 -0.0458  0.3415 -0.0083
13166W        W30690  10.613  11.386  13.623  0.2475 -0.1337  0.1164
13167W        W30691   5.274   8.439   3.935  0.0595 -0.2901 -0.0018
13168W        W30692  16.679  13.819   2.630  0.0580  0.3785  0.0982
13169W        W30693  11.727   0.319   2.454  0.4176 -0.1575 -0.0466
13170W        W30694  17.218  16.355  14.634  0.2459 -0.1133 -0.3024
13171W        W30695  12.978   3.054  15.051 -0.5851 -0.2239 -0.0016
13172W        W30696  16.239   2.553   3.125  0.1870 -0.0689 -0.0281
13173W        W30697   7.225   8.402  11.119  0.1409 -0.0808  0.3719
13174W        W30698  11.944   5.904  14.755  0.1411  0.1744 -0.1413
13175W        W30699   2.969  16.642   2.808  0.1673  0.0608 -0.2026
13176W        W30700  14.303   2.770  12.665 -0.2130  0.2992 -0.1295
13177W        W30701  11.179  17.650   5.534  0.2468 -0.4025  0.0252
13178W        W30702   2.676   0.382   3.606 -0.1623  0.1086  0.1146
13179W        W30703   3.450   6.467   4.688 -0.3984  0.1753 -0.1127
13180W        W30704   7.501  15.800  12.871  0.1384  0.1979  0.2546
13181W        W30705   3.801   2.663  15.423 -0.2889 -0.0623 -0.0772
13182W        W30706  10.223  13.413  13.659 -0.0245 -0.1571 -0.1067
13183W        W30707  17.069   3.181   1.388 -0.1932 -0.1413  0.0963
13184W        W30708  12.032  13.799   0.434 -0.0003  0.1106 -0.1055
13185W        W30709   8.928   2.353   4.270 -0.0288  0.1401 -0.0228
13186W        W30710   8.546  13.115  15.424 -0.2247 -0.0325 -0.0995
13187W        W30711  11.086   8.515  13.077 -0.1131 -0.0507  0.2527
13188W        W30712  13.459  18.005  13.967  0.2458  0.2505 -0.0819
13189W        W30713  17.282  13.951  10.971  0.0639  0.0683  0.1322
13190W        W30714   7.835   6.921  13.547 -0.1419 -0.0654 -0.1373
13191W        W30715   1.221  15.049  15.139 -0.1165  0.0174 -0.1141
13192W        W30716   6.749   0.906  11.440 -0.0115  0.3494  0.0477
13193W        W30717   8.265  17.455  10.933  0.0461 -0.1057  0.3529
13194W        W30718   5.206  16.053   0.190  0.0950 -0.2384 -0.2875
13195W        W30719  15.906  16.170   3.052  0.0083 -0.2092  0.4106
13196W        W30720  14.906  11.826  15.054  0.3232 -0.0334  0.1552
13197W        W30721  11.488   9.755  14.167  0.1298 -0.1398 -0.1245
13198W        W30722   6.675  17.846  10.964 -0.0587  0.1585 -0.1578
13199W        W30723   2.442  17.866   0.697  0.0601 -0.2839  0.1265
13200W        W30724   8.919   4.288   0.082  0.1336  0.1746 -0.0583
13201W        W30725  10.936  13.613   3.727  0.1001 -0.3292 -0.1169
13202W        W30726   5.001  11.680   5.904 -0.1685 -0.2859  0.1148
13203W        W30727  15.479   7.802   4.929 -0.0566 -0.1363 -0.1714
13204W        W30728   6.372  15.844   3.144 -0.0525 -0.0777 -0.1347
13205W        W30729  12.735   1.821  15.302  0.0098  0.1239  0.0795
13206W        W30730  10.162  11.924   2.343  0.0828  0.1231  0.0954
13207W        W30731  16.728  16.436   5.102  0.1345  0.0991  0.1437
13208W        W30732  17.083  15.269  11.145 -0.1449 -0.0705  0.0334
13209W        W30733  13.940  12.859  15.971  0.0519 -0.0559 -0.1948
13210W        W30734  10.423  12.836   2.458  0.1555  0.2866  0.2871
13211W        W30735   1.105   2.765  12.690  0.1416 -0.4799  0.0139
13212W        W30736   6.558  14.457   0.590 -0.0232 -0.0099 -0.2841
13213W        W30737  17.746  11.013  14.054 -0.0089  0.0724 -0.0329
13214W        W30738  15.992   5.153  11.467 -0.3031  0.1709  0.0418
13215W        W30739   8.165  10.402   1.504  0.1309  0.1847  0.0144
13216W        W30740  11.149  17.668   4.072  0.2037  0.2978 -0.2144
13217W        W30741   6.257   9.023  13.450 -0.1313 -0.1680  0.0046
13218W        W30742  15.818   3.475   1.115  0.0440 -0.2594  0.0794
13219W        W30743   2.485   4.463   0.569  0.2232 -0.1924 -0.1493
13220W        W30744   2.654   5.565  13.903  0.2878 -0.1273  0.1428
13221W        W30745   5.280  12.234   2.197  0.0350 -0.4339  0.0935
13222W        W30746   7.534   5.257  12.126 -0.2699 -0.0572 -0.0914
13223W        W30747  13.158  12.463  13.823 -0.0804  0.2438  0.2899
13224W        W30748   8.269  11.308   0.302  0.1536 -0.0033  0.1955
13225W        W30749   2.264  10.722   4.445  0.1524 -0.1408 -0.2956
13226W        W30750   0.138   2.609  14.826  0.1191 -0.1733  0.0975
13227W        W30751  18.067   6.086   1.450 -0.1484 -0.4799  0.0193
13228W        W30752   4.827   1.950  11.302  0.2438  0.0016  0.1701
13229W        W30753  14.167  12.835  14.569 -0.0244 -0.1052  0.2411
13230W        W30754   2.280  13.857   1.923 -0.1469  0.1058  0.1492
13231W        W30755   0.758   4.046  14.485 -0.0874  0.3104 -0.0897
13232W        W30756   0.364   1.785   3.429 -0.0019 -0.1349  0.0219
13233W        W30757   6.314  12.202  14.876  0.0711 -0.2049  0.0144
13234W        W30758   1.926  16.860   3.882  0.1294 -0.1088 -0.1384
13235W        W30759   1.266   6.509  14.215 -0.2872  0.1532 -0.0120
13236W        W30760  12.677  16.816   1.079  0.2681 -0.1478  0.0884
13237W        W30761   1.750   6.555   0.954 -0.3029 -0.0865  0.0147
13238W        W30762   5.576  10.994   3.492 -0.1875 -0.0665  0.1709
13239W        W30763   9.710  14.807  13.886 -0.1471  0.1886 -0.4637
13240W        W30764  13.210  14.876   2.361  0.2884  0.2356 -0.2158
13241W        W30765   2.646  12.311  14.334  0.3577 -0.0508 -0.1937
13242W        W30766   0.331   5.394  11.842 -0.1159  0.0110  0.3088
13243W        W30767  12.613   7.795  13.148 -0.3616 -0.0324  0.1097
13244W        W30768   4.103  11.853   4.469 -0.0621 -0.1164 -0.0831
13245W        W30769   1.833  18.028  13.703  0.1117 -0.1262  0.1041
13246W        W30770   5.179   8.417   1.903 -0.0274  0.1676  0.0363
13247W        W30771  12.963   2.204   1.003  0.2080 -0.0751 -0.1623
13248W        W30772   1.854   0.506  13.213 -0.4060 -0.1310  0.0188
13249W        W30773   4.123   0.330   1.019 -0.0859  0.0539  0.2707
13250W        W30774   6.007   5.270   4.997 -0.1127  0.1071 -0.1240
13251W        W30775  16.161   2.643  11.095  0.1775 -0.1071 -0.0930
13252W        W30776  12.791   1.847  15.910 -0.0696  0.0867 -0.1531
13253W        W30777   4.470   3.879   1.241  0.3857 -0.0525 -0.1653
13254W        W30778  11.778  12.465   3.904  0.0636  0.1205 -0.0092
13255W        W30779   0.852  10.706  13.446  0.0136  0.3247 -0.5130
13256W        W30780   9.776   7.497   2.908 -0.3300  0.1876 -0.1604
13257W        W30781  14.567   9.729   4.783  0.0899 -0.0626  0.2078
13258W        W30782  10.509   6.849   3.187 -0.0436  0.1409 -0.3044
13259W        W30783   2.712   9.370   4.890  0.1761 -0.0350  0.0909
13260W        W30784   4.841   1.770   0.755  0.3894 -0.1152  0.2611
13261W        W30785   7.524  13.267   3.960  0.1283  0.2024  0.1207
13262W        W30786   2.511  17.555   0.189  0.0200  0.2438 -0.5861
13263W        W30787  13.713   6.329  14.346  0.0321  0.0539 -0.0944
13264W        W30788   7.394   5.301   0.619  0.1686 -0.2391  0.1864
13265W        W30789  17.343  13.432  12.280 -0.0830 -0.0768 -0.1207
13266W        W30790  10.654   2.147  11.877  0.1242 -0.3462  0.0643
13267W        W30791   5.219   0.324  15.614 -0.0067  0.3432  0.3058
13268W        W30792  11.358   3.025  14.422 -0.1217  0.0157  0.0333
13269W        W30793   1.435   5.954  15.298 -0.1726  0.1682 -0.1503
13270W        W30794   3.708   4.467   5.712 -0.1371  0.0446 -0.2839
13271W        W30795   7.344   1.058   1.900  0.0684 -0.0311 -0.0776
13272W        W30796  15.017   1.398  15.971  0.0016  0.1623 -0.0072
13273W        W30797   8.498   2.945   0.038 -0.2451  0.1232  0.0481
13274W        W30798  15.188  15.042   1.467 -0.1184  0.0695 -0.3719
13275W        W30799   4.756  18.011  11.820  0.2198  0.2151  0.2124
13276W        W30800  18.115  14.189   4.029  0.3008 -0.2280  0.0886
13277W        W30801  11.581   5.227  14.314 -0.1579  0.2136  0.0865
13278W        W30802   3.402  11.276  14.658 -0.0023  0.3066 -0.0307
13279W        W30803   5.200   9.725   1.643 -0.0954  0.2196  0.1021
13280W        W30804   9.645   0.028   2.446  0.1282 -0.3627  0.2000
13281W        W30805  11.041   1.528  15.325  0.3402  0.1795 -0.2106
13282W        W30806  10.680   5.214  14.487  0.5043 -0.2352  0.0610
13283W        W30807  13.395   8.212   0.318  0.0664 -0.0881 -0.2455
13284W        W30808  14.930   2.931   5.061 -0.0017 -0.1701 -0.0531
13285W        W30809  15.190   4.275  13.815  0.0742  0.3066 -0.0943
13286W        W30810   1.447  14.215   4.477  0.0084  0.0401  0.0771
13287W        W30811   6.825   6.982  13.315  0.0268  0.4071 -0.0568
13288W        W30812   3.497   6.562  11.202  0.5729  0.0470 -0.2392
13289W        W30813   7.909  11.857   4.100 -0.0329 -0.0482  0.0413
13290W        W30814  16.552  17.738  14.575  0.0062 -0.0000 -0.3258
13291W        W30815   0.982  14.580  15.152 -0.2215 -0.1103 -0.2136
13292W        W30816   6.410  12.137  11.655 -0.3121 -0.2477  0.1396
13293W        W30817  15.220   2.389   4.032  0.0720 -0.0758 -0.0036
13294W        W30818   8.618   3.969   4.343 -0.1340  0.0990  0.0053
13295W        W30819   1.076   8.757   1.559 -0.1054  0.0951 -0.1818
13296W        W30820   2.593  11.740   4.284 -0.3127  0.1339  0.0265
13297W        W30821  14.580   7.734   3.262 -0.0801 -0.2757  0.2420
13298W        W30822  11.024  10.057  10.990  0.2627 -0.2261  0.2865
13299W        W30823  17.513  15.380  12.445  0.0472 -0.0196 -0.1077
13300W        W30824   6.146  10.675  15.747  0.0208  0.1167  0.1391
13301W        W30825   7.805   9.202   0.401  0.0918 -0.0100  0.3357
13302W        W30826  13.958   6.843   1.702 -0.1719 -0.2661  0.0804
13303W        W30827  15.797  17.026   3.559 -0.0572  0.0394 -0.2728
13304W        W30828   9.067   0.986   4.323 -0.2842  0.1580 -0.1866
13305W        W30829  10.437   5.298   5.240  0.2889  0.2274  0.0656
13306W        W30830  10.295  14.814  14.255  0.1589  0.2067 -0.0525
13307W        W30831  14.594  15.983   3.875  0.0227 -0.0817  0.2702
13308W        W30832  11.412   4.158  15.121 -0.0270  0.2382 -0.0112
13309W        W30833  14.019   1.298  11.804  0.0393 -0.1845  0.0391
13310W        W30834   0.385   4.733  15.681  0.0061  0.0971  0.2119
13311W        W30835   4.108   6.453  12.016  0.0646  0.2165 -0.1588
13312W        W30836  16.714  18.105   4.835  0.0633  0.0199  0.2420
13313W        W30837  17.153   9.990   1.587 -0.0973  0.0396 -0.0320
13314W        W30838   7.076  12.461  11.904 -0.2252  0.1363 -0.1460
13315W        W30839   0.083   4.579  14.064  0.1985 -0.0358  0.2849
13316W        W30840   5.869  13.861  11.773 -0.0186  0.0564  0.1570
13317W        W30841   4.593  15.788  15.509 -0.1576 -0.1011  0.1062
13318W        W30842  14.628   5.356  16.030 -0.2098  0.0704 -0.1523
13319W        W30843   1.224   6.476  11.777 -0.1207  0.0574  0.0377
13320W        W30844  11.136   0.769   0.063 -0.0588  0.0674  0.0540
13321W        W30845  10.415  12.363   1.754 -0.3159  0.2459 -0.1357
13322W        W30846  12.243  11.493   3.123  0.0203 -0.4837  0.2352
13323W        W30847   4.327  12.256  14.567 -0.0233 -0.0942  0.0516
13324W        W30848   3.935   4.754  12.349  0.1841  0.0596 -0.0600
13325W        W30849  15.955   4.771  12.913  0.0015 -0.1749 -0.1286
13326W        W30850   8.108   1.665  15.928 -0.3676  0.0574 -0.1673
13327W        W30851   4.309   6.217   4.438 -0.0442 -0.0885 -0.2360
13328W        W30852   1.677   4.310  11.615 -0.4446  0.0491 -0.1109
13329W        W30853   1.866  13.620   4.569 -0.0290 -0.1018  0.0504
13330W        W30854  15.840   7.164  13.734  0.1818 -0.0933  0.1763
13331W        W30855  13.973  14.752   0.193 -0.0198 -0.2911  0.1020
13332W        W30856  13.094   6.563  15.212 -0.3877 -0.1810 -0.1610
13333W        W30857   6.259  14.570  12.168 -0.1131 -0.1417  0.1535
13334W        W30858   0.872   9.741   0.688 -0.0007  0.4740  0.0518
13335W        W30859  12.538   1.604  14.430  0.0676  0.1370  0.0599
13336W        W30860   7.911   5.300   3.881 -0.1269 -0.0137 -0.1852
13337W        W30861   3.822  17.298   3.195 -0.2771  0.2575  0.0633
13338W        W30862  15.181   9.082  12.980  0.1077  0.2464  0.1803
13339W        W30863   5.783   9.498   4.490  0.0959  0.0518 -0.3551
13340W        W30864  17.257  17.822   1.384  0.0722 -0.0956  0.1778
13341W        W30865  17.559   5.265   1.369 -0.3080 -0.3058 -0.0153
13342W        W30866   5.918  13.913  13.143  0.0894  0.3614  0.3758
13343W        W30867   5.942   7.731  11.165  0.1848 -0.1370 -0.1614
13344W        W30868   9.769  17.632  13.221 -0.2543  0.2063 -0.0529
13345W        W30869  14.351   0.472   2.430 -0.3748 -0.1422 -0.4440
13346W        W30870   4.924  11.290   2.350 -0.3395  0.2228  0.0588
13347W        W30871   0.965   2.304   2.873  0.0995 -0.0476 -0.1931
13348W        W30872   2.834   0.221   0.650  0.0672 -0.3055 -0.0114
13349W        W30873  17.716   1.111   2.218 -0.2926 -0.3740 -0.2549
13350W        W30874  12.888  16.249   2.007  0.2517 -0.1081 -0.1125
13351W        W30875  13.585   0.551   3.770 -0.1440  0.1303 -0.0497
13352W        W30876   3.451  16.961   1.098 -0.0214 -0.0283  0.3555
13353W        W30877   7.070   0.627  11.151  0.0701 -0.1873  0.2991
13354W        W30878  12.192  15.663  13.959  0.1770  0.1321  0.0160
13355W        W30879  10.761   3.621   3.527  0.0902  0.2918  0.1241
13356W        W30880   0.471   6.966   2.240  0.1008 -0.1749  0.0711
13357W        W30881   2.151  15.206  11.573  0.2093 -0.3222 -0.1258
13358W        W30882   2.165   6.861   0.146 -0.0804  0.0335  0.1836
13359W        W30883   1.638  14.643   1.755 -0.0098  0.3756  0.3333
13360W        W30884  18.074   8.895  11.259 -0.3310 -0.0305 -0.0000
13361W        W30885   1.377   3.347   3.898  0.0758  0.0326  0.2618
13362W        W30886  12.630   1.389   4.101 -0.3095  0.0935  0.0746
13363W        W30887  11.552  11.599   3.690  0.0108 -0.3983 -0.2519
13364W        W30888   2.243  16.142   1.814 -0.1151  0.4639  0.2399
13365W        W30889  13.650  15.215   5.283  0.1022 -0.0255  0.2973
13366W        W30890  13.518   9.671   0.395 -0.3379 -0.0018  0.1071
13367W        W30891   6.903   7.280   0.654 -0.3175 -0.1069  0.0678
13368W        W30892  10.207   1.250   3.178 -0.1852  0.1434  0.1509
13369W        W30893   1.224   5.270  14.942 -0.1421  0.1111 -0.0045
13370W        W30894  10.989   8.513  15.457  0.2397  0.1748  0.2919
13371W        W30895   9.257  13.346  12.040  0.2603 -0.2043 -0.1446
13372W        W30896   3.497  11.248   2.132  0.0140  0.0687 -0.4531
13373W        W30897  14.964   8.727   4.189  0.4239  0.0839  0.0950
13374W        W30898   5.732  13.241   3.997  0.0018  0.2727  0.0482
13375W        W30899  17.603  13.517   2.505  0.0802 -0.0516 -0.2866
13376W        W30900   5.053  12.172   4.004  0.0760  0.2685 -0.2902
13377W        W30901  12.961  10.992   4.845 -0.2716  0.2155 -0.2584
13378W        W30902   8.803   3.284   0.908  0.0567 -0.1885  0.2086
13379W        W30903  13.665  17.544  13.664 -0.0406  0.2058 -0.1295
13380W        W30904  14.950   4.736  12.620 -0.0902 -0.0460  0.1840
13381W        W30905   2.143   4.742  13.463 -0.0728 -0.1189 -0.2632
13382W        W30906  10.039   2.702   4.727 -0.1245 -0.4587 -0.3646
13383W        W30907   8.764  12.807  14.266  0.0773 -0.0248 -0.2854
13384W        W30908   0.357  12.836   2.343  0.1950  0.1597 -0.2364
13385W        W30909  13.383  12.817  15.210 -0.0099  0.0644  0.2203
13386W        W30910   6.068   9.626   0.768  0.0101  0.1436  0.0012
13387W        W30911   9.493   0.669  13.989  0.0386  0.3331 -0.2468
13388W        W30912  12.475   5.103   2.271  0.0498  0.1689  0.1078
13389W        W30913   5.039   6.263  10.748 -0.2193  0.1194 -0.0162
13390W        W30914   2.810  17.586  15.577 -0.0652  0.1812  0.0576
13391W        W30915   3.514   9.513   3.257  0.2566 -0.2700 -0.0991
13392W        W30916   6.567   9.387  15.622  0.0368 -0.3504  0.1726
13393W        W30917   9.699  15.570   0.398  0.0085 -0.1107  0.0736
13394W        W30918   8.081   1.196  15.048 -0.2212 -0.2071  0.1586
13395W        W30919   0.781  17.979   3.954  0.2382  0.2011 -0.0029
13396W        W30920  11.180  17.076   0.347 -0.3513 -0.0761 -0.0624
13397W        W30921   0.833   8.605   3.947 -0.0344 -0.0802 -0.1123
13398W        W30922  10.268  17.066  11.493 -0.1392 -0.0415  0.0803
13399W        W30923   5.510   6.989   3.583  0.1089  0.4255 -0.1904
13400W        W30924  17.125  16.997   4.223 -0.0867 -0.0908 -0.0933
13401W        W30925   3.490  10.803   2.645 -0.0066  0.0702  0.2260
13402W        W30926  10.661   8.280   0.322  0.3400 -0.2280 -0.2388
13403W        W30927   2.866   3.637  12.242 -0.3698 -0.0924  0.2718
13404W        W30928   0.342   1.027   3.150  0.0329  0.0103 -0.1088
13405W        W30929   6.198   3.860  10.883  0.1034  0.1835 -0.2803
13406W        W30930   8.001  16.330   1.779 -0.2502 -0.1859 -0.0682
13407W        W30931  14.267  13.858  15.167  0.0982  0.0874 -0.1627
13408W        W30932  10.018  17.884   2.732 -0.1039 -0.0879 -0.3061
13409W        W30933  13.900   9.084   1.893 -0.0106 -0.1837 -0.1523
13410W        W30934  17.266   6.828   4.056  0.1757  0.0276  0.0801
13411W        W30935  16.100   8.720   1.168  0.2256 -0.0464  0.1419
13412W        W30936   1.711   6.118  14.413  0.1675  0.0630  0.1274
13413W        W30937   4.257  10.702   3.864  0.1138  0.0872 -0.3517
13414W        W30938  15.785  10.847  15.344 -0.1004 -0.1385  0.2211
13415W        W30939   9.958  12.378   2.501 -0.0207  0.2588  0.1736
13416W        W30940   9.915   2.621  14.870  0.2319 -0.2588 -0.0820
13417W        W30941   1.527   1.804  14.052 -0.0870 -0.2371  0.0402
13418W        W30942   6.158  11.105   0.748  0.2877 -0.1708 -0.0170
13419W        W30943   0.186   7.979  15.674  0.0366  0.0108 -0.0714
13420W        W30944  14.915   3.459  14.881  0.0275 -0.1207  0.3688
13421W        W30945  11.039   0.223  13.011 -0.1553  0.1491 -0.4393
13422W        W30946   3.952   0.296  14.257  0.1863 -0.2268  0.1589
13423W        W30947  16.196  14.065  12.986  0.0039 -0.0935  0.0353
13424W        W30948   2.087  14.451   2.142 -0.3336 -0.0097 -0.0754
13425W        W30949  15.683  14.894  14.284 -0.1206  0.1360 -0.0067
13426W        W30950  17.811   2.141   2.665  0.1583  0.0497  0.0882
13427W        W30951   9.416  12.701  14.287 -0.1523 -0.0775 -0.3941
13428W        W30952  16.987   8.735   3.552 -0.1531  0.1924 -0.2246
13429W        W30953  14.502  15.155  13.377  0.2319 -0.1939 -0.0486
13430W        W30954   4.144  14.421   1.154 -0.0746 -0.2067 -0.0528
13431W        W30955   2.932  14.652   1.147 -0.1837 -0.0140 -0.2946
13432W        W30956  15.829  17.472  12.979 -0.1880  0.3667 -0.1764
13433W        W30957  15.776   6.722   0.459  0.0626  0.1312 -0.1450
13434W        W30958   8.219  11.535   3.044 -0.1720 -0.3825  0.0358
13435W        W30959  13.806   0.468  13.614 -0.2796  0.0472  0.1643
13436W        W30960  13.140   9.299  13.897 -0.1964  0.0858  0.2310
13437W        W30961   0.049  12.381   2.252 -0.2461 -0.2799 -0.2216
13438W        W30962  15.017  14.700   3.413 -0.3513 -0.2063  0.3341
13439W        W30963  14.756  17.391   4.175 -0.1442 -0.1697 -0.0838
13440W        W30964  14.288   7.447  12.908 -0.0779  0.1434 -0.1277
13441W        W30965   2.118   3.883   3.743 -0.1347  0.0212 -0.2819
13442W        W30966  13.540   3.107   3.387  0.0711  0.1173  0.0147
13443W        W30967   4.409  13.230  13.965 -0.0718  0.1503  0.0915
13444W        W30968   7.926   6.813   0.297 -0.0242 -0.2362  0.0156
13445W        W30969   0.448  14.226   6.217  0.0306 -0.1195 -0.1157
13446W        W30970  11.906   5.476  12.939 -0.2153 -0.0580 -0.0128
13447W        W30971  17.113   3.349  13.457 -0.2444  0.0134 -0.0472
13448W        W30972  13.538  10.607   2.415  0.0739  0.1933  0.1104
13449W        W30973  16.620   5.116  16.040 -0.1016  0.2386  0.1008
13450W        W30974   2.318   0.853   2.283  0.2207  0.1830  0.2471
13451W        W30975   5.420   3.426  16.006  0.2245 -0.2088  0.0564
13452W        W30976  13.449   7.477  12.032 -0.0906  0.0222 -0.1161
13453W        W30977   1.620  13.823  10.296  0.2270  0.0921 -0.0156
13454W        W30978  15.183   5.682   4.938 -0.1290 -0.0902 -0.2278
13455W        W30979   4.478  14.242  13.228  0.1704 -0.0244 -0.1403
13456W        W30980   9.778   4.497  14.441  0.2300 -0.1207  0.0077
13457W        W30981  13.789  17.284  12.368 -0.0866 -0.0795 -0.1754
13458W        W30982   9.698   5.369  13.600  0.0807  0.0353  0.1082
13459W        W30983   9.230  15.836  14.860  0.1317 -0.0302 -0.0016
13460W        W30984   9.226  17.840   4.481 -0.0329  0.1879  0.2839
13461W        W30985  14.589  11.061   2.839  0.0523 -0.1114 -0.1317
13462W        W30986  10.364   2.526   0.469 -0.3054 -0.1850  0.4250
13463W        W30987   0.556   5.343  14.578  0.2232 -0.2274 -0.2507
13464W        W30988  15.624   5.585  12.072 -0.2011  0.0851  0.3078
13465W        W30989   9.995   9.948   3.816  0.3383  0.0122  0.2942
13466W        W30990   3.163  14.224  14.747  0.0405  0.0451 -0.0456
13467W        W30991  12.445  12.790   2.387 -0.2645  0.0433 -0.1909
13468W        W30992  16.135  15.868   3.904 -0.2833 -0.4483  0.1433
13469W        W30993   0.597  12.201   3.388 -0.1932 -0.2916 -0.3080
13470W        W30994   5.861  15.394   3.098  0.0738 -0.0441  0.0615
13471W        W30995  15.847   7.478   5.084  0.2286  0.1541 -0.2364
13472W        W30996   0.856   7.150  12.856 -0.1131  0.2420  0.3174
13473W        W30997  16.687   6.364  11.605 -0.0783 -0.0365  0.2258
13474W        W30998  17.840   3.094   4.250 -0.1270 -0.1317 -0.1127
13475W        W30999   0.271  16.314  15.484 -0.0381  0.0991  0.2480
13476W        W31000  15.569   4.109  12.424  0.0394  0.2265 -0.1539
13477W        W31001   4.643   1.658   4.991  0.0073  0.3354  0.0809
13478W        W31002  17.316  12.220   3.316 -0.0382 -0.1837  0.3027
13479W        W31003  12.361  15.502  11.444 -0.1137 -0.1056  0.1539
13480W        W31004   0.948   9.681  14.104  0.0060 -0.0492  0.0588
13481W        W31005   1.082  14.799   0.336 -0.2776  0.1061  0.2974
13482W        W31006  17.067  12.479   0.607 -0.1128 -0.0979 -0.0208
13483W        W31007  14.482   6.732  13.656 -0.0806 -0.1050 -0.1434
13484W        W31008  15.173   0.495   3.811 -0.0850 -0.1148 -0.0990
13485W        W31009  17.932   0.091   2.426  0.2115  0.1111 -0.2015
13486W        W31010  12.111   2.567   2.896 -0.0999 -0.1786 -0.0671
13487W        W31011  11.888   0.653  15.738 -0.0859 -0.0818 -0.1236
13488W        W31012  15.230   3.174   4.393  0.1347 -0.0040 -0.2027
13489W        W31013   3.825  14.804   1.336  0.1705  0.0534 -0.0647
13490W        W31014   1.679   6.769  14.506 -0.0700 -0.1648 -0.2789
13491W        W31015  16.468   9.284   0.300 -0.0627 -0.0354  0.0874
13492W        W31016  12.271   3.248   2.488 -0.0531 -0.0846 -0.2206
13493W        W31017   9.074   5.058   0.151 -0.0783 -0.0552 -0.1627
13494W        W31018   9.431  15.251  13.741 -0.1243  0.1301  0.1138
13495W        W31019  11.948   4.447   2.301  0.1883 -0.2766 -0.0785
13496W        W31020  13.473  13.134   4.841 -0.0506 -0.2559  0.2018
13497W        W31021  12.058  10.102  11.634 -0.1159 -0.2598  0.0291
13498W        W31022  13.494   3.766   1.262 -0.0604 -0.2222 -0.3354
13499W        W31023  16.682   3.035   4.867  0.2310 -0.0664  0.0868
13500W        W31024   0.987  15.051   3.843 -0.1443 -0.2672  0.1622
13501W        W31025  10.904   8.065  13.166 -0.2020 -0.0509  0.0888
13502W        W31026  13.173   0.935  14.584  0.1010  0.1383  0.0351
13503W        W31027   2.254   5.011   5.178  0.1360 -0.3604  0.1798
13504W        W31028   8.829   8.292   1.416  0.1494 -0.1175  0.1970
13505W        W31029   7.464  13.742  14.577  0.2340  0.5258 -0.0803
13506W        W31030   2.549  12.740  15.607  0.4510  0.1140  0.1371
13507W        W31031   3.360  14.864  12.066 -0.1539  0.0881 -0.2806
13508W        W31032   3.733   0.652   0.341  0.0194 -0.0337 -0.0758
13509W        W31033   7.404  15.595   3.834 -0.0996  0.1069 -0.4001
13510W        W31034   4.775  10.081   1.478 -0.2484  0.1190  0.2008
13511W        W31035  10.907  12.707   4.353 -0.0943  0.1421  0.1815
13512W        W31036  10.221   3.582  15.957  0.1763  0.2246  0.2333
13513W        W31037   0.382   0.578   2.465  0.3847  0.2771  0.0199
13514W        W31038   0.757  15.514  12.133 -0.1324  0.0108  0.0370
13515W        W31039   5.260   3.333  12.068 -0.1801  0.1821 -0.0735
13516W        W31040   2.206   6.549  15.599  0.2882  0.1644  0.0064
13517W        W31041  14.045  14.070  11.755  0.0427  0.3835 -0.0015
13518W        W31042   3.755  10.751   3.854  0.1895 -0.1305  0.0072
13519W        W31043   6.364  11.721  11.971  0.4071 -0.1570 -0.2220
13520W        W31044  13.135   8.234  14.257 -0.2295 -0.1243 -0.0008
13521W        W31045   6.590  16.579   3.548 -0.0268 -0.3434 -0.2443
13522W        W31046   1.368  14.299   3.869 -0.0936  0.0030 -0.0192
13523W        W31047   1.838   6.974  12.939  0.0328 -0.2200  0.2025
13524W        W31048  10.377   8.182   2.936  0.2243  0.1774 -0.0228
13525W        W31049   7.804  15.067  14.781 -0.1984  0.1139 -0.0710
13526W        W31050   3.566   9.278   1.978  0.0249 -0.3044  0.0112
13527W        W31051  14.641   9.482   4.282 -0.2043 -0.1393 -0.0548
13528W        W31052  12.541   3.189   1.658  0.2962 -0.1233 -0.1693
13529W        W31053  14.851   5.391   4.729 -0.1170 -0.1597 -0.2568
13530W        W31054  17.785  11.907   3.072  0.1893  0.2103 -0.4608
13531W        W31055   9.544   8.399  15.202  0.3620 -0.0140  0.0025
13532W        W31056  15.643  14.384  15.886 -0.1164 -0.1743  0.2097
13533W        W31057  15.759  10.300  12.355 -0.1775 -0.0223 -0.1613
13534W        W31058   4.436   8.181   4.305  0.0021 -0.0845 -0.3888
13535W        W31059  14.868   1.884   1.023  0.2473 -0.0147 -0.1425
13536W        W31060   1.021   9.429  10.138  0.3055 -0.1502 -0.1311
13537W        W31061   3.066  10.652  14.714  0.3498  0.1285 -0.0452
13538W        W31062  13.158  10.270   2.517  0.0804  0.2984 -0.1311
13539W        W31063  15.838   7.698   2.062 -0.2437 -0.1615  0.1459
13540W        W31064   7.408   1.317   3.245 -0.0822  0.2927  0.0064
13541W        W31065  13.466  12.319  14.392 -0.1267  0.0828 -0.1223
13542W        W31066  14.504   2.814   1.269 -0.2967  0.3700 -0.0423
13543W        W31067  17.297  10.307   5.096  0.2172  0.0652 -0.4454
13544W        W31068  15.476   0.053   2.004 -0.0942  0.1078  0.3739
13545W        W31069   1.074   9.217   0.720 -0.0833  0.2015 -0.1209
13546W        W31070  15.012   7.044  11.023  0.0515  0.0869 -0.1602
13547W        W31071   0.737   5.593   4.185 -0.1302 -0.0306  0.0518
13548W        W31072  10.809  15.302   3.852 -0.1048 -0.1338 -0.0575
13549W        W31073  12.407  11.055   3.786 -0.2121  0.0634  0.2532
13550W        W31074  17.568   5.113  15.976 -0.0188 -0.0364 -0.3644
13551W        W31075   1.866  15.799   4.806  0.1921 -0.0067 -0.1924
13552W        W31076  10.190   6.018  11.410 -0.2298 -0.1216  0.0471
13553W        W31077   1.762   8.393   2.678 -0.1281 -0.1098 -0.1872
13554W        W31078   9.899  15.098   1.081  0.1517  0.0115  0.0849
13555W        W31079   2.291  12.419   0.510  0.0218  0.2632 -0.4015
13556W        W31080  15.883  17.629   2.439 -0.1280 -0.1454  0.1147
13557W        W31081   2.053   2.827  13.566 -0.1381 -0.1205  0.0682
13558W        W31082   2.629  17.998   4.500 -0.0056  0.0926  0.1129
13559W        W31083   9.243  10.843  14.593 -0.0268  0.4201 -0.1070
13560W        W31084  11.820   3.012  12.370 -0.1563 -0.1453  0.0265
13561W        W31085  14.754  12.518   2.454 -0.0349 -0.3390  0.1000
13562W        W31086  14.522   8.031   2.432  0.1199  0.0871 -0.0624
13563W        W31087   0.357   7.467   2.281  0.1412  0.0882  0.2229
13564W        W31088  14.381   4.465   3.630 -0.2338  0.1598 -0.3319
13565W        W31089  14.445   9.859  12.153  0.1778 -0.0388  0.0014
13566W        W31090  17.941  17.835   5.203 -0.1976  0.2643 -0.1415
13567W        W31091  17.050  15.033   3.835 -0.2916  0.1680  0.0995
13568W        W31092  16.813  11.737   1.560  0.1079  0.4359  0.0619
13569W        W31093  16.823   1.248   2.306  0.2105 -0.1524  0.1308
13570W        W31094   9.777   9.755   1.247 -0.1913  0.0550 -0.4085
13571W        W31095   0.267   8.570  15.435 -0.2330  0.1058 -0.0064
13572W        W31096   5.493  15.314  15.650  0.1369  0.1454 -0.0902
13573W        W31097   7.576  13.602  11.205 -0.1617  0.0230  0.2796
13574W        W31098   8.937  13.752  15.610 -0.2563 -0.1314 -0.1702
13575W        W31099   9.633  18.108  13.291  0.1297 -0.1472  0.1132
13576W        W31100   1.579   8.936   4.382 -0.1034 -0.2999 -0.0287
13577W        W31101  13.417   6.114  15.176  0.0509  0.1178  0.0853
13578W        W31102   8.279  13.784   5.743  0.1750  0.0130 -0.0028
13579W        W31103   0.585   5.807  12.806  0.2106  0.1630  0.5697
13580W        W31104   1.105  12.179  11.863 -0.1024 -0.2070 -0.0758
13581W        W31105   4.821   1.776  15.072 -0.1256  0.3243  0.1697
13582W        W31106   1.850   3.159  15.201 -0.1341  0.3061  0.2906
13583W        W31107   1.147   6.871   3.655 -0.1562  0.1340  0.2090
13584W        W31108  16.537   3.379   3.079 -0.1331  0.2136  0.1678
13585W        W31109   0.916   0.146   0.977 -0.2320  0.0200 -0.0194
13586W        W31110  15.253   7.028  12.562 -0.2516 -0.0756  0.1724
13587W        W31111   1.787  15.858   2.611 -0.0479 -0.1274  0.0469
13588W        W31112   7.074   2.648  14.357  0.3040  0.1057 -0.0502
13589W        W31113   4.105   7.423  13.533  0.3978 -0.0190  0.2367
13590W        W31114   4.450   5.131   3.015  0.0630 -0.0812  0.0873
13591W        W31115   4.550   3.419   0.496  0.2880  0.1246 -0.3192
13592W        W31116   3.309  12.876   3.890  0.3602 -0.0204 -0.0709
13593W        W31117  16.487  12.902   0.295  0.1912  0.1434 -0.0548
13594W        W31118  11.906   0.417   3.447 -0.2007  0.1033 -0.0759
13595W        W31119   2.325   0.798  12.547 -0.0598  0.1297 -0.1616
13596W        W31120   2.178  15.112  12.189 -0.1437 -0.3449 -0.1479
13597W        W31121   4.102  16.795  11.448 -0.0476  0.2784 -0.0351
13598W        W31122   7.130   9.457  12.495  0.3674  0.1776  0.0386
13599W        W31123  16.876   7.050  12.437  0.2763 -0.1226  0.1354
13600W        W31124  16.309   1.674   5.870 -0.0062  0.0319 -0.3398
13601W        W31125   2.292  16.452  11.755 -0.1319 -0.0184 -0.2083
13602W        W31126   9.360   5.010  10.878 -0.0513 -0.1330 -0.1645
13603W        W31127  11.118   8.973  13.237  0.1761 -0.1798  0.0070
13604W        W31128   9.542  15.585   4.535  0.1700  0.2798  0.0452
13605W        W31129  12.955  13.984  13.899  0.0477 -0.1323 -0.2967
13606W        W31130  17.079  11.575   3.996  0.1760  0.1205 -0.2465
13607W        W31131   0.515  16.021   0.710  0.0086 -0.1185  0.0165
13608W        W31132   3.762  17.254  13.625 -0.1427 -0.0857  0.2756
13609W        W31133   8.441  13.500  13.319 -0.0217  0.1278 -0.1024
13610W        W31134   2.920   7.082  11.207  0.0310  0.0272  0.2057
13611W        W31135  13.925   3.196   0.696  0.2106  0.0563 -0.0523
13612W        W31136  17.120   7.538   0.072 -0.1892  0.1666 -0.2808
13613W        W31137  11.920  11.892  12.182  0.1650  0.1118 -0.0412
13614W        W31138   4.450  17.491  13.696 -0.1486  0.0885  0.0110
13615W        W31139  12.614  10.889   4.320  0.0906 -0.3998 -0.1580
13616W        W31140  12.303  15.198   1.479  0.1098 -0.0952  0.0499
13617W        W31141   0.579  16.886  10.265  0.2079 -0.1720 -0.1030
13618W        W31142   4.184   4.459   3.492  0.1615 -0.0130  0.1103
13619W        W31143  11.131   8.188   1.342 -0.0184  0.0671  0.0888
13620W        W31144   6.219   9.248   2.659  0.1448  0.1741  0.0809
13621W        W31145   6.814  11.622  10.261 -0.0855  0.0874 -0.0019
13622W        W31146  13.729   8.156   0.716 -0.2096 -0.0536 -0.0747
13623W        W31147   1.263  12.673  11.675 -0.0270 -0.0347  0.2130
13624W        W31148  12.357   2.058   1.232  0.4887  0.3638  0.0483
13625W        W31149   4.219   1.813   0.739  0.0020  0.1110 -0.1092
13626W        W31150   8.110   9.808  11.657 -0.1683  0.0050 -0.0150
13627W        W31151   7.031  17.798   4.348 -0.0865 -0.0627  0.0542
13628W        W31152  14.785   6.838  12.305 -0.0148  0.0055  0.3432
13629W        W31153  11.489  16.612  12.662  0.0324 -0.3257 -0.1142
13630W        W31154   1.057   7.457   1.076 -0.1866  0.3264 -0.0049
13631W        W31155  15.465   2.736  13.949 -0.1646  0.4518  0.0920
13632W        W31156   1.983   3.687   5.264 -0.1779  0.3236  0.1552
13633W        W31157   3.960  11.832   3.192 -0.1841 -0.1010 -0.1377
13634W        W31158   8.690   1.351   1.574  0.2145  0.0277  0.1071
13635W        W31159  15.539   7.957  11.753 -0.2064  0.1942  0.1428
13636W        W31160   7.367  13.648   0.378 -0.0954 -0.0955 -0.0077
13637W        W31161   3.182   4.108   2.828  0.1604  0.1303 -0.0197
13638W        W31162   1.002   9.986  10.046  0.0919  0.1906 -0.1264
13639W        W31163   4.611   2.740  15.164 -0.1794  0.0957 -0.1035
13640W        W31164  17.324  10.239  11.249  0.2974 -0.0211 -0.0066
13641W        W31165   1.715   0.364  13.683 -0.0234  0.2747  0.3089
13642W        W31166  11.495   5.348   2.258  0.2553 -0.1656 -0.1913
13643W        W31167   0.297  16.586  13.793  0.1491  0.1822 -0.1147
13644W        W31168   7.107  15.043   1.313  0.1364 -0.2206  0.0390
13645W        W31169   7.695   3.496  12.358  0.3023  0.0233 -0.0401
13646W        W31170  15.769   3.715  13.221  0.4397  0.0722 -0.0617
13647W        W31171  16.290   6.148   3.895  0.1550  0.1148  0.3892
13648W        W31172   8.442  10.170   1.200 -0.2335 -0.2235 -0.1759
13649W        W31173  10.564   7.455   2.499  0.0603  0.1212 -0.0838
13650W        W31174  14.916   6.085  11.654 -0.1018 -0.3233  0.2283
13651W        W31175  15.766   4.533  14.560  0.2000 -0.1726 -0.0589
13652W        W31176  13.629   9.221  12.195  0.2153  0.0509 -0.0232
13653W        W31177   3.025  11.914  12.248  0.1746  0.1254  0.3694
13654W        W31178  14.522  10.172   1.123  0.2469  0.0536 -0.0201
13655W        W31179   0.613   4.795  15.189 -0.0354 -0.4340 -0.1877
13656W        W31180   6.521   9.604   5.639 -0.0631 -0.1734 -0.2516
13657W        W31181   0.014  16.682   5.008  0.0829  0.2935 -0.0524
13658W        W31182  16.313  12.707  14.309 -0.0193  0.0568  0.1864
13659W        W31183   6.989   6.506   0.983 -0.3107  0.0831  0.2566
13660W        W31184  11.506   0.187  12.704 -0.0464  0.5244  0.2263
13661W        W31185   7.652   8.297   2.204  0.3652 -0.0525 -0.0865
13662W        W31186   9.063   5.209  14.365 -0.0703  0.1737 -0.1285
13663W        W31187  12.223  15.779   5.021 -0.0310  0.1135 -0.0118
13664W        W31188   9.208  16.576   1.785  0.0215  0.0275 -0.3403
13665W        W31189   1.652   0.964   0.817  0.3030 -0.1183  0.3060
13666W        W31190  15.056  12.061  14.178 -0.2786  0.0388 -0.0149
13667W        W31191  16.776  16.481   4.182 -0.1403 -0.1683 -0.1266
13668W        W31192   4.409  16.545  14.692 -0.2670 -0.0434 -0.0601
13669W        W31193  16.483   9.659  14.391 -0.0818  0.2024 -0.2911
13670W        W31194   0.071   6.960  15.548 -0.1508  0.3099 -0.0412
13671W        W31195   3.392   2.522   4.067 -0.0726  0.1273  0.1539
13672W        W31196  13.649   1.857   0.506 -0.3873 -0.4206 -0.0263
13673W        W31197   9.799  12.606   1.652  0.0190 -0.1186 -0.0451
13674W        W31198  12.229   0.446  15.217  0.0846 -0.1292  0.2435
13675W        W31199  15.030   7.778   3.687  0.4091  0.0228  0.4434
13676W        W31200  10.915  16.034  12.190 -0.3201 -0.0044  0.0972
13677W        W31201  11.176  14.153  11.269  0.4508  0.2012 -0.2963
13678W        W31202   5.627   4.832  13.675  0.0382  0.1044  0.0655
13679W        W31203   6.574  15.153   4.712  0.0864  0.2991 -0.1215
13680W        W31204  10.914   9.964   4.175  0.0240 -0.0076 -0.3290
13681W        W31205   0.453   9.502   1.684 -0.1197  0.1553  0.0805
13682W        W31206   6.993   6.793  16.013  0.1725 -0.1092 -0.1486
13683W        W31207  17.069   9.866  15.285  0.0862  0.3568 -0.1915
13684W        W31208   1.751   3.221  12.257  0.0840 -0.0815 -0.1796
13685W        W31209  15.845   7.117  10.314  0.0051 -0.1102 -0.1203
13686W        W31210   1.697  10.724  12.051 -0.1278 -0.0982  0.0798
13687W        W31211   3.862  10.115   2.012  0.1219 -0.1363 -0.2180
13688W        W31212   4.138   5.855  13.554 -0.3565  0.1863 -0.0134
13689W        W31213   0.441  17.121   1.616 -0.2338 -0.0154  0.2230
13690W        W31214   9.207  15.587   4.063 -0.1820 -0.1108 -0.0171
13691W        W31215   0.098   3.069   2.210 -0.1047 -0.1326 -0.2335
13692W        W31216   8.051  15.436   2.802 -0.2969 -0.1828 -0.1013
13693W        W31217   4.415  13.349   2.316 -0.0853  0.1028  0.1061
13694W        W31218  11.536  13.928   2.268 -0.2171 -0.1058 -0.0383
13695W        W31219  17.603   9.657  13.875 -0.1246 -0.1888 -0.1141
13696W        W31220  13.338  14.367   5.112 -0.1155  0.0081  0.0815
13697W        W31221  12.934  15.178   5.226  0.3925  0.1910  0.0749
13698W        W31222  14.526  15.955   3.246 -0.0774  0.2152 -0.0124
13699W        W31223  15.857   5.768   4.935 -0.0716 -0.0671 -0.4664
13700W        W31224   1.972   5.966  11.410  0.0561  0.0835 -0.1760
13701W        W31225   8.418   4.991   0.895  0.0741  0.3942  0.0011
13702W        W31226   6.010   2.271  11.799 -0.0055 -0.4463 -0.1305
13703W        W31227  15.483  12.963   3.933  0.2843  0.0095 -0.1689
13704W        W31228   1.043   7.034   1.417 -0.0743  0.0075 -0.0519
13705W        W31229   9.066   6.876   1.266  0.0313 -0.2970 -0.2750
13706W        W31230   4.861  17.633  10.124  0.3262 -0.2187  0.2923
13707W        W31231  17.463   8.705  13.768  0.0818  0.0566 -0.3450
13708W        W31232  11.090   4.893   3.465 -0.0230  0.0537  0.0431
13709W        W31233  17.834  16.781   2.027 -0.0328 -0.2421 -0.3749
13710W        W31234   4.686  12.301   3.705  0.3108 -0.0242  0.0839
13711W        W31235   8.143   0.263  13.558 -0.3030  0.1394  0.2389
13712W        W31236  15.730  12.468  15.188  0.2126 -0.1572  0.0357
13713W        W31237  18.080   5.257  12.642 -0.1888  0.1437 -0.0608
13714W        W31238   9.976   6.382   4.392  0.3842 -0.0966 -0.1735
13715W        W31239   1.066  15.650   0.048  0.1413  0.0646  0.0212
13716W        W31240   1.137   2.546   3.678 -0.0876 -0.0849 -0.0875
13717W        W31241  11.054  10.073  14.366  0.1045 -0.0353 -0.1449
13718W        W31242  10.525   0.120  13.362 -0.4644 -0.1558 -0.1338
13719W        W31243  13.253   5.105   2.456  0.3516  0.1023 -0.0869
13720W        W31244   5.483   5.093   1.002  0.1546 -0.0181  0.1522
13721W        W31245  12.041  17.759   5.308 -0.0397 -0.0616 -0.0653
13722W        W31246  17.400   9.097   1.699 -0.0729  0.0662  0.1842
13723W        W31247  12.909   2.237   5.153  0.0452  0.2203  0.3055
13724W        W31248   5.194  17.514   1.333 -0.3363 -0.0356 -0.1805
13725W        W31249  17.320   2.157   0.478  0.0526 -0.2611  0.1091
13726W        W31250   9.467  15.988  10.963 -0.0596  0.0444 -0.0441
13727W        W31251   2.101   4.447   1.464 -0.2063 -0.1663  0.4105
13728W        W31252  11.247   9.785   1.941 -0.0067  0.0087 -0.0414
13729W        W31253   6.483   1.485  11.414 -0.0456 -0.3482  0.0093
13730W        W31254  12.109  12.649  14.060  0.2046 -0.2772  0.0046
13731W        W31255   0.127   1.228  11.918  0.2273  0.0930 -0.0992
13732W        W31256  12.528   3.056   3.145  0.2421  0.1177  0.1103
13733W        W31257  17.864   0.149   0.408  0.2854  0.2259 -0.1928
13734W        W31258   5.342  16.473   2.407 -0.3143  0.0379 -0.2982
13735W        W31259  10.343   4.762  13.098 -0.0782  0.0136 -0.1348
13736W        W31260  17.905  15.044  13.678 -0.0212  0.3683 -0.1355
13737W        W31261  10.683  12.587  13.452 -0.1595 -0.1476  0.1692
13738W        W31262  11.798   3.292   2.305 -0.1582 -0.0026 -0.4319
13739W        W31263   1.830   6.079  12.975  0.2547 -0.2718 -0.0111
13740W        W31264  14.516   7.048  14.077 -0.2660  0.1017 -0.0692
13741W        W31265   3.253   7.402   3.881 -0.1773  0.2082  0.1944
13742W        W31266   7.302   0.472  14.785 -0.0888 -0.2278  0.0375
13743W        W31267   3.638  15.112  14.244  0.0988 -0.0518 -0.0457
13744W        W31268  13.559   9.237   3.191  0.1834  0.0857 -0.0438
13745W        W31269  11.059  16.411   2.176 -0.2466  0.1679  0.0103
13746W        W31270  15.754  15.637   0.828  0.1302 -0.0741  0.0067
13747W        W31271   0.284  10.933   1.265  0.0965 -0.0372 -0.0623
13748W        W31272   7.176   4.889   0.575  0.0462 -0.1967  0.0879
13749W        W31273  15.120   1.455  12.226  0.0180 -0.1870 -0.1265
13750W        W31274   3.835   6.716  14.479  0.1312  0.2024 -0.2836
13751W        W31275   3.943  17.507   2.773  0.1720  0.1104 -0.1547
13752W        W31276  13.381  17.930   0.844  0.0706  0.1650 -0.0331
13753W        W31277  17.932   3.722  10.752 -0.0870  0.1103 -0.0243
13754W        W31278  11.140   1.039   1.008  0.1549 -0.1070 -0.0367
13755W        W31279   1.732   5.172  14.107  0.1931 -0.1445 -0.1705
13756W        W31280   0.567   6.177   2.298  0.1948 -0.1748 -0.1236
13757W        W31281  13.379  16.585  13.625  0.0098 -0.2009 -0.1199
13758W        W31282   4.039   1.523  11.761 -0.2390 -0.0119  0.0279
13759W        W31283   2.521   7.888  11.446 -0.1349  0.0143 -0.3699
13760W        W31284  16.569   1.132   0.325  0.2812  0.2505  0.0273
13761W        W31285  13.286  16.248  13.107  0.0012  0.0167 -0.1468
13762W        W31286  11.676   1.419  12.822 -0.1501  0.0982  0.1170
13763W        W31287   2.536  10.608  12.261  0.0583  0.0247 -0.2296
13764W        W31288   7.156  12.751   4.349 -0.1235  0.1604 -0.2363
13765W        W31289  16.659   1.076  14.280 -0.0767  0.0030 -0.0569
13766W        W31290   9.093  12.647   2.686  0.2034  0.3033  0.0682
13767W        W31291  13.615  13.317   3.141 -0.0220  0.1570  0.0191
13768W        W31292  14.097   1.061   3.084 -0.2846 -0.2635 -0.1085
13769W        W31293   9.311  17.443   3.917 -0.3453 -0.2838 -0.3185
13770W        W31294   6.297   6.302   0.172  0.1567  0.3943  0.1079
13771W        W31295   4.360  14.793  11.172  0.1437 -0.2911 -0.0781
13772W        W31296  18.137   2.992   2.665 -0.0047  0.1199  0.2470
13773W        W31297  10.198  10.286   3.470 -0.2679 -0.2977 -0.4154
13774W        W31298   3.493   3.977  13.990  0.0017  0.0845 -0.0102
13775W        W31299   4.623  11.620   3.652  0.1568 -0.1141  0.2038
13776W        W31300   5.037  16.169   3.334 -0.0194  0.1363 -0.2352
13777W        W31301   5.052  12.537   0.696  0.1185  0.0520 -0.1919
13778W        W31302  16.279   9.931   4.361 -0.0080 -0.0738 -0.2330
13779W        W31303   5.949  17.488  15.736 -0.0649  0.0763  0.0226
13780W        W31304  11.288   3.788   0.938  0.1023 -0.2206 -0.3882
13781W        W31305   3.151  12.567   0.806  0.0858 -0.0087 -0.0302
13782W        W31306   4.230   9.855   2.212 -0.0759 -0.1076 -0.1279
13783W        W31307   7.055  14.168  15.377 -0.0587 -0.2582  0.0022
13784W        W31308  12.286  13.149  13.929 -0.2000 -0.0743  0.1582
13785W        W31309   4.885   6.075   2.926  0.1395 -0.0626 -0.2556
13786W        W31310  11.984   2.113   0.653 -0.1149 -0.3706 -0.1341
13787W        W31311   6.727   1.224  15.864 -0.0349  0.0254  0.1260
13788W        W31312  13.241  12.364   2.763 -0.2479  0.0865 -0.2105
13789W        W31313  17.232  11.253  14.798  0.2852 -0.3178 -0.2668
13790W        W31314   1.830  10.465  14.733 -0.2228  0.0142 -0.2059
13791W        W31315   7.150   3.103   1.785 -0.1077 -0.1373 -0.3077
13792W        W31316   0.000  17.059   3.401  0.0786 -0.0945  0.0633
13793W        W31317   7.144  11.558  13.399  0.1353 -0.1719  0.1249
13794W        W31318   9.174   6.447  11.695  0.0761  0.0122 -0.0091
13795W        W31319  10.890   3.427   3.976  0.0308 -0.2262 -0.1225
13796W        W31320   6.486  10.644   2.405  0.0890 -0.2116 -0.1020
13797W        W31321   1.854   7.599   1.610  0.0488 -0.1882  0.0377
13798W        W31322   6.528  16.177  11.074  0.1137  0.0186  0.2969
13799W        W31323   7.620   5.359   1.130 -0.2056 -0.1194 -0.2536
13800W        W31324  14.787   6.042   3.814 -0.2621 -0.1513 -0.2936
13801W        W31325   6.921   9.804  10.760  0.2077  0.2173 -0.0021
13802W        W31326   4.886   4.779  12.054  0.1015 -0.0541 -0.1160
13803W        W31327   5.294  16.448   2.912  0.3689 -0.1528  0.1828
13804W        W31328   9.491  16.841  14.002 -0.0050  0.4098  0.3866
13805W        W31329   2.730  16.343   5.577 -0.1033 -0.3655 -0.0787
13806W        W31330   3.551   1.828   4.319  0.1566 -0.2360  0.3183
13807W        W31331  11.131   7.282  13.252 -0.0351  0.0019  0.1362
13808W        W31332   9.488   4.647   1.759  0.0215 -0.2844  0.0299
13809W        W31333  10.793  12.124  12.001 -0.2115 -0.1524 -0.1950
13810W        W31334   0.265   5.268  15.379 -0.1928 -0.1735 -0.0193
13811W        W31335   3.122   5.346  11.408 -0.0834  0.3171  0.0633
13812W        W31336   4.082  16.467  14.289  0.1173 -0.2196 -0.2278
13813W        W31337  11.698   0.126  15.591 -0.0722 -0.3621  0.0344
13814W        W31338   7.532  15.579   0.575  0.2046  0.0115 -0.1503
13815W        W31339   2.044  12.879  13.917  0.0975 -0.0626  0.0384
13816W        W31340  14.692   0.577   1.096  0.0708 -0.5402  0.1022
13817W        W31341   4.410  15.046   0.610 -0.2038 -0.2590 -0.0778
13818W        W31342  14.943   6.668   1.288 -0.2215  0.1249 -0.4116
13819W        W31343  14.521  14.149  11.551 -0.0811 -0.0639 -0.0277
13820W        W31344  16.931  13.051  11.685  0.2877 -0.1002  0.2214
13821W        W31345  17.710  17.810   0.509 -0.0095 -0.2218  0.0951
13822W        W31346  17.385  14.865  15.381 -0.2003  0.0842 -0.1029
13823W        W31347   3.534  15.764   3.460 -0.0532 -0.3428 -0.0226
13824W        W31348  13.121   4.543   0.578 -0.3212  0.0807  0.0294
13825W        W31349  15.383   9.419  13.804  0.3501  0.0514  0.0518
13826W        W31350   4.724  16.042   0.251 -0.1496 -0.1577 -0.2856
13827W        W31351   0.666  12.060   5.126  0.2241  0.0435 -0.0016
13828W        W31352  15.181  13.290  11.537 -0.0466 -0.1174 -0.2073
13829W        W31353  17.296   4.529  13.971 -0.0572  0.1837 -0.0156
13830W        W31354  18.036  11.566   2.542  0.0683  0.1844 -0.0543
13831W        W31355  14.299   1.332  13.927  0.0373  0.1775 -0.0510
13832W        W31356  17.071   6.014   0.262  0.0106  0.4020  0.1042
13833W        W31357  15.082  12.681   3.825  0.0283 -0.0175  0.1556
13834W        W31358  10.099   1.521   4.356  0.2588 -0.0678  0.0645
13835W        W31359   5.636   3.104   3.108 -0.0098 -0.3393 -0.3808
13836W        W31360   1.478   3.800   0.930  0.0973  0.2896  0.1452
13837W        W31361  15.053   0.277   1.899  0.1230 -0.0958 -0.3138
13838W        W31362  14.939   8.690   1.113  0.1004 -0.1262  0.1003
13839W        W31363  10.518  14.906   4.001 -0.0781  0.3174 -0.2736
13840W        W31364   7.602  13.951  14.144 -0.1181 -0.4120 -0.1808
13841W        W31365   2.022  13.222  15.090 -0.0025  0.2412 -0.0061
13842W        W31366  15.254   3.964   3.667  0.3006  0.0049 -0.0143
13843W        W31367  11.149   8.062   0.352  0.2976 -0.1967  0.1052
13844W        W31368  17.439   2.826  10.671  0.3728 -0.1431  0.1851
13845W        W31369  10.247  15.276  10.578 -0.0633 -0.0014 -0.0491
13846W        W31370  10.062   1.227  13.574 -0.2144 -0.3344 -0.0651
13847W        W31371  11.442  13.753  11.919 -0.1140 -0.0795  0.2416
13848W        W31372  13.674   0.229   2.876  0.2276  0.0113  0.2077
13849W        W31373  12.883   0.666  13.026 -0.3359  0.0268  0.2433
13850W        W31374  17.521  13.940  14.824  0.0675 -0.1723 -0.1047
13851W        W31375  17.211   2.372  10.899  0.0197  0.0144  0.3344
13852W        W31376  17.365  11.355  13.951  0.1563  0.1764  0.0747
13853W        W31377  14.694   4.881   2.523  0.0301 -0.1282 -0.2193
13854W        W31378   7.140   9.544   4.589  0.0738  0.2467 -0.0636
13855W        W31379  12.698  12.824   4.866  0.2914 -0.0225  0.2192
13856W        W31380   5.127  11.198   5.898  0.0192 -0.1345  0.0738
13857W        W31381  15.848   6.659   2.621 -0.0481  0.2717 -0.1877
13858W        W31382  12.599   1.621  12.375 -0.3093  0.2029  0.1132
13859W        W31383   8.909   1.479  14.949  0.2687 -0.0634  0.1251
13860W        W31384  17.020   2.344  13.997  0.0087  0.0081 -0.2217
13861W        W31385   3.106   5.803   0.131 -0.0466  0.1555 -0.0499
13862W        W31386  17.441   1.657   1.292 -0.2814 -0.0467  0.0380
13863W        W31387   7.651  16.423   5.401 -0.1483 -0.1932  0.2623
13864W        W31388  15.018  10.584  12.165  0.1773  0.1410  0.0430
13865W        W31389  10.252   3.582   3.391  0.1507 -0.1992 -0.0902
13866W        W31390   2.205   8.204   2.249 -0.1564  0.0002 -0.3344
13867W        W31391  10.691   2.700   2.497 -0.0841  0.0979 -0.0509
13868W        W31392   7.562   1.244  15.073  0.1509 -0.4852 -0.2498
13869W        W31393   8.026   2.716   1.813 -0.1737  0.1216 -0.1777
13870W        W31394   7.415  17.427   3.012 -0.0133  0.2632 -0.1306
13871W        W31395   1.473  12.008  12.358 -0.0432  0.0702  0.1131
13872W        W31396  14.226  11.811   0.289  0.2661  0.2465 -0.0540
13873W        W31397   6.514  12.135   4.729 -0.0766 -0.1055 -0.0371
13874W        W31398   0.042   2.022  11.560 -0.2091  0.0430  0.1130
13875W        W31399  17.000   8.971  15.987 -0.0384  0.0594  0.1697
13876W        W31400  10.979   6.648   3.089  0.0080  0.1643  0.2155
13877W        W31401   2.136   9.147   2.994 -0.0314  0.0232 -0.1662
13878W        W31402   8.291  16.905  10.865  0.0525  0.2382  0.2375
13879W        W31403  15.808   6.302   1.096  0.4019 -0.1131  0.7506
13880W        W31404  17.388   8.011  13.096  0.1076  0.0062  0.3121
13881W        W31405  15.315   5.905   3.648 -0.1069  0.0640  0.0642
13882W        W31406  15.368  14.109   4.568 -0.1474 -0.1411  0.2438
13883W        W31407  15.202   7.493  11.931  0.1068 -0.1959 -0.0164
13884W        W31408  17.366  17.548  13.973 -0.1146 -0.1113  0.0549
13885W        W31409   2.856  10.600   3.245 -0.0233 -0.1007  0.3781
13886W        W31410   3.575   5.811  13.590 -0.1117  0.1060  0.0972
13887W        W31411   7.798  10.942  10.197 -0.3612 -0.4287 -0.4454
13888W        W31412   0.860   4.911   2.747  0.1771  0.0503  0.2229
13889W        W31413  17.427  16.140  15.192 -0.3348 -0.1225  0.2284
13890W        W31414   6.055  13.867   3.446  0.2538  0.5302 -0.1026
13891W        W31415  17.275   9.040  11.790  0.1300  0.1353 -0.0690
13892W        W31416   5.904  15.970  14.988  0.1353 -0.0410 -0.3792
13893W        W31417   8.480   7.526  11.217 -0.1817  0.0211 -0.0507
13894W        W31418  11.156  13.022  12.572  0.3111  0.0712 -0.4793
13895W        W31419  11.120  11.635  14.328  0.0243  0.0744 -0.0575
13896W        W31420  11.851   1.708  16.000  0.0267  0.1841 -0.0752
13897W        W31421  12.126   9.421  13.493  0.0492  0.1825 -0.0776
13898W        W31422   5.666   7.660  13.023  0.1822  0.2799 -0.2166
13899W        W31423   4.331  17.243   1.187  0.0530  0.0431  0.5066
13900W        W31424   6.512  14.342  13.665  0.1605 -0.0592 -0.1749
13901W        W31425  16.122  17.768  12.684 -0.0537  0.1348  0.0359
13902W        W31426  10.378  10.340  15.610  0.2813 -0.1979 -0.0652
13903W        W31427   6.007   6.376  10.575  0.1096  0.1500 -0.1901
13904W        W31428   5.636   9.039  11.174  0.1106 -0.1961 -0.0539
13905W        W31429  14.617   4.014   2.467  0.1457  0.0227  0.2254
13906W        W31430   2.953  12.969   2.121  0.0815  0.3999 -0.0725
13907W        W31431   0.747  12.016  13.333 -0.0076 -0.0775  0.0528
13908W        W31432   2.962   8.613   2.154 -0.0948  0.0413  0.0613
13909W        W31433  12.563  12.059  13.000 -0.0172  0.0900  0.1039
13910W        W31434  16.193  16.612   0.916 -0.2133  0.0255 -0.2274
13911W        W31435   5.585  13.427   1.412 -0.0758 -0.1803 -0.0860
13912W        W31436   0.752  14.432   0.898  0.0006  0.0584 -0.0331
13913W        W31437  10.188  12.793   4.726  0.2452  0.2834  0.0504
13914W        W31438  17.150  17.722  13.573 -0.0945 -0.0782  0.3371
13915W        W31439   1.973   5.195  11.826  0.2705 -0.2838 -0.1817
13916W        W31440   8.098   2.474   4.544 -0.0405  0.0763  0.1509
13917W        W31441  11.985  14.135  16.046 -0.0917 -0.1740 -0.2913
13918W        W31442  10.200  17.277  13.422 -0.0341 -0.0292  0.5072
13919W        W31443   9.561   9.309  15.064  0.3310  0.0943 -0.0153
13920W        W31444   3.978  16.858  10.620  0.0052  0.0374 -0.0035
13921W        W31445   6.340   4.228   0.354  0.0487  0.1000 -0.2802
13922W        W31446  10.415   1.623  12.731 -0.2523  0.2095 -0.1075
13923W        W31447  17.848  13.336   2.960 -0.0130 -0.1426 -0.2655
13924W        W31448   6.543   2.252  11.971  0.1397  0.0328  0.0152
13925W        W31449   3.196   0.210   3.337  0.1226 -0.1408  0.2450
13926W        W31450   0.739   5.155  15.547  0.0261  0.1005  0.2856
13927W        W31451  14.653  11.104   1.444 -0.1593  0.0799  0.1615
13928W        W31452   5.472  15.182   2.321 -0.1626  0.2596 -0.2443
13929W        W31453  17.841   9.324  13.637  0.0076  0.1563  0.1983
13930W        W31454   2.720   9.360  14.616  0.0029  0.2020  0.0580
13931W        W31455  10.606   7.688   3.648  0.0757  0.0765 -0.2954
13932W        W31456  12.615   6.546  11.203  0.1327  0.0235 -0.1787
13933W        W31457   8.620   2.263   1.055  0.2861 -0.0821 -0.2744
13934W        W31458   3.330  13.445  12.782  0.2039  0.1305 -0.1465
13935W        W31459   6.799  16.979   1.857  0.1372 -0.1380  0.0358
13936W        W31460   6.262   3.918   4.485  0.4100 -0.2076 -0.3201
13937W        W31461   9.205  13.975   0.677  0.0473  0.0924  0.0629
13938W        W31462   8.047   9.216  12.705 -0.1010 -0.0425 -0.1343
13939W        W31463   2.719   8.604  13.227 -0.3447  0.0287 -0.1312
13940W        W31464  15.107  16.000   6.082  0.0012  0.3485  0.1697
13941W        W31465  14.765  10.031  14.516 -0.2045 -0.2645  0.1053
13942W        W31466  15.108  15.357  14.089  0.0272 -0.1459 -0.0996
13943W        W31467   4.581   1.797  12.719 -0.2093 -0.2668 -0.0012
13944W        W31468   6.607   1.251   3.694 -0.0515  0.0571 -0.3221
13945W        W31469  17.701  12.460  15.529  0.1125 -0.0623  0.1534
13946W        W31470   2.754   6.812  14.381  0.3841  0.0678 -0.0354
13947W        W31471   2.106  14.100   2.534  0.0379  0.3211  0.0973
13948W        W31472   3.069  15.805  14.760 -0.1377 -0.3402  0.2765
13949W        W31473   1.382  17.761  13.376 -0.2251 -0.2130  0.0553
13950W        W31474  10.779   7.011   1.521  0.1585  0.0005 -0.3693
13951W        W31475   6.537  15.662  10.276 -0.1293  0.0410  0.4299
13952W        W31476   6.962  11.916   0.490 -0.0098 -0.0465  0.0126
13953W        W31477  13.083  11.549  15.093  0.0190  0.2347  0.0787
13954W        W31478   0.727   2.536   1.564  0.1565  0.0871 -0.0256
13955W        W31479  15.450   0.783   4.702  0.2824  0.2300 -0.3040
13956W        W31480   8.019  16.674   4.477 -0.1616 -0.2701 -0.0149
13957W        W31481   2.112   2.412  15.946 -0.0183 -0.1503  0.0691
13958W        W31482  16.427   4.317   1.246 -0.1329 -0.1308  0.2622
13959W        W31483   4.244   4.398  14.184 -0.0133 -0.1425  0.3152
13960W        W31484   7.316  13.379   2.253  0.0270  0.0386  0.2027
13961W        W31485   0.129   3.125  15.364 -0.1028 -0.0250 -0.1988
13962W        W31486   3.867   6.248  14.285 -0.2189 -0.0060 -0.2101
13963W        W31487   5.158  11.466   1.311  0.1505 -0.0752  0.0297
13964W        W31488   3.536  10.866   3.373 -0.0432 -0.2418  0.1573
13965W        W31489   0.449  12.155  14.888 -0.2002  0.2113  0.1835
13966W        W31490  14.746  17.900   1.477 -0.0016 -0.2041 -0.2624
13967W        W31491   4.711   8.036   1.619  0.1648  0.0402  0.0355
13968W        W31492   7.723  15.342  14.005 -0.1244  0.0000 -0.1307
13969W        W31493   5.022   8.494   4.987  0.0704  0.0349  0.3715
13970W        W31494   5.892  14.281  15.982 -0.2601  0.0409  0.1373
13971W        W31495   1.399   3.458  15.188 -0.0109  0.0137  0.3305
13972W        W31496  10.981   7.214  12.744  0.1915 -0.2126 -0.3041
13973W        W31497   0.638   1.307   3.426  0.3411 -0.0855  0.1484
13974W        W31498   6.643  13.251   0.427 -0.1153  0.0143  0.2979
13975W        W31499   7.184   1.662   0.641  0.0094  0.0636  0.0736
13976W        W31500  18.103   7.532  15.649 -0.2285  0.2452  0.0670
13977W        W31501   7.061  12.500  13.865 -0.2818  0.3511 -0.0013
13978W        W31502   5.152  11.333  12.199 -0.1043 -0.0850 -0.1152
13979W        W31503   2.993   9.605  12.647 -0.0334 -0.0284 -0.2148
13980W        W31504   3.825  12.031  13.878  0.0821  0.0055  0.1776
13981W        W31505  18.079  13.953   3.553 -0.1470 -0.0797 -0.1285
13982W        W31506  18.076  14.192   0.127  0.0883 -0.2224  0.0715
13983W        W31507  12.606   9.110  15.802 -0.3202 -0.1978  0.4222
13984W        W31508  13.106  17.333   3.695  0.3114  0.1507 -0.1716
13985W        W31509   1.569  12.751   3.082  0.2016 -0.0026 -0.0372
13986W        W31510  12.896   9.189  12.965 -0.0088  0.0946 -0.0664
13987W        W31511  16.176  17.984  12.186 -0.2274  0.3299  0.0410
13988W        W31512   0.196   6.317   2.790  0.0088  0.2211 -0.0133
13989W        W31513   3.690  14.302   1.760  0.2075 -0.2985 -0.0964
13990W        W31514  15.440  18.090  15.243 -0.1290  0.2923  0.1320
13991W        W31515   3.189   2.830  15.275 -0.1650 -0.1787 -0.0428
13992W        W31516  15.643  13.474   1.594 -0.1406 -0.0206  0.2953
13993W        W31517   1.429  13.289   5.157  0.1204 -0.1635  0.2044
13994W        W31518   6.785  13.063  12.720  0.0734  0.1851  0.0048
13995W        W31519  10.291   8.998   2.340  0.0784 -0.0060 -0.0327
13996W        W31520   3.802  11.538  13.809 -0.2523  0.1357 -0.2005
13997W        W31521  17.629   5.092  12.263  0.4565 -0.0424  0.2789
13998W        W31522   9.221  14.632  11.633  0.2059 -0.2968 -0.0131
13999W        W31523  16.711   8.197  15.673  0.0225 -0.1047 -0.1308
14000W        W31524  17.656   1.961  13.625 -0.0172  0.3909  0.1213
14001W        W31525   2.237  11.855  14.827 -0.2580 -0.0528  0.1882
14002W        W31526   6.345  10.912   4.734 -0.0774  0.1188 -0.2545
14003W        W31527  14.532  17.155  12.996  0.1092 -0.2065  0.3467
14004W        W31528   2.578   9.591   0.138 -0.1633  0.1538 -0.0522
14005W        W31529   3.492  18.092  15.002 -0.1829 -0.0636 -0.0943
14006W        W31530   4.429   7.701  12.394  0.0899 -0.0985  0.2318
14007W        W31531   8.617   4.769  12.675  0.1518  0.0884  0.0955
14008W        W31532  15.085  10.877  13.988  0.2131  0.0402 -0.0309
14009W        W31533   9.718  10.775   4.378  0.0122  0.1407 -0.2378
14010W        W31534  16.599  11.484  13.664  0.1623  0.0112 -0.1869
14011W        W31535  16.475   0.733   0.084  0.1974  0.0439 -0.3091
14012W        W31536   3.186   3.831   0.787 -0.0999 -0.0721  0.1386
14013W        W31537  15.721   7.046   2.241 -0.1936 -0.1296  0.0368
14014W        W31538  12.690  15.836  11.305 -0.5207 -0.2978 -0.1540
14015W        W31539  10.074   9.153  12.586  0.0106 -0.1972 -0.1644
14016W        W31540  11.938  15.376  10.654  0.0872  0.3750 -0.2349
14017W        W31541   8.345  12.827  11.043  0.1648  0.0670  0.1108
14018W        W31542   9.438   1.024   0.536 -0.0528  0.0204 -0.1227
14019W        W31543  10.297   9.862   2.948  0.0221 -0.2462 -0.0531
14020W        W31544  13.343   3.877   4.990  0.0833 -0.1887  0.0853
14021W        W31545   4.237   3.836  13.224  0.0014 -0.3190  0.3052
14022W        W31546   6.147  11.333   4.303  0.1267 -0.1305 -0.0370
14023W        W31547   8.675  12.361  14.593 -0.2883 -0.0296 -0.1128
14024W        W31548   9.168   0.461   1.140  0.0521  0.0049  0.1454
14025W        W31549   7.729   2.976  15.592 -0.3103  0.0688 -0.0156
14026W        W31550   0.141  12.039   5.168 -0.2660  0.2157  0.0233
14027W        W31551  10.462  13.623   3.630  0.1652  0.0864  0.0823
14028W        W31552  12.719   6.023   1.177 -0.1237 -0.0280  0.0532
14029W        W31553  10.108   4.856   5.190  0.2803  0.0650  0.0881
14030W        W31554  18.115   3.268  10.795  0.1081  0.0917  0.2163
14031W        W31555  10.448  15.042   0.331 -0.1969 -0.2063 -0.0092
14032W        W31556  14.614   5.422   1.950 -0.4826 -0.1020  0.1499
14033W        W31557   5.430  16.647  11.058  0.2617 -0.0067 -0.3068
14034W        W31558   7.138   0.367   0.889  0.0592  0.0874  0.0113
14035W        W31559   9.294   6.427   1.153  0.2156  0.2235 -0.0136
14036W        W31560   2.179  10.024  14.510 -0.1826 -0.0088  0.1625
14037W        W31561   5.727   4.123   2.076  0.0398  0.1547 -0.0248
14038W        W31562  15.172  14.802   4.912  0.1786  0.2037 -0.2758
14039W        W31563   1.039   4.235   4.047  0.0348 -0.4543  0.0361
14040W        W31564  10.501  14.585   2.021  0.1460  0.0668 -0.1069
14041W        W31565   0.980   5.074   0.627  0.1039 -0.0484  0.0597
14042W        W31566  17.374  11.262  12.912 -0.0019 -0.0179  0.3769
14043W        W31567   6.389  11.291   5.652  0.3031  0.1554 -0.0353
14044W        W31568   3.724  15.131   2.453 -0.0057  0.0517  0.0028
14045W        W31569   1.883  17.724   4.979  0.2910  0.0076  0.2456
14046W        W31570  14.435  18.039  11.703 -0.3044 -0.2586  0.2424
14047W        W31571   1.864  17.652  13.312 -0.0370 -0.1681 -0.1367
14048W        W31572  10.260  15.896   1.491  0.0333  0.0160  0.4416
14049W        W31573   4.274   2.637   0.236 -0.1138 -0.2277 -0.0677
14050W        W31574   0.918   1.338  14.358  0.1608  0.3790  0.0714
14051W        W31575  11.236  12.589   2.716 -0.0570  0.0297  0.0093
14052W        W31576  15.616  13.461   1.032  0.0975  0.2886 -0.0476
14053W        W31577  13.492   6.967   1.814  0.2248 -0.0588 -0.0493
14054W        W31578   6.803  11.479  12.856  0.0505 -0.2903  0.2401
14055W        W31579  13.743  13.107  12.257 -0.2576 -0.1131 -0.2421
14056W        W31580  14.186   7.967   0.919 -0.0971 -0.2279  0.1302
14057W        W31581   3.613   9.485   0.081  0.1542 -0.2144 -0.1909
14058W        W31582  13.739   6.167   3.393  0.3081  0.2502 -0.0509
14059W        W31583   9.631   2.523  13.287 -0.0212  0.2097 -0.1460
14060W        W31584   5.306   3.977  12.316  0.1042 -0.0178  0.0074
14061W        W31585   0.555  17.003   0.219 -0.0149 -0.1750  0.2323
14062W        W31586   6.121  16.887   3.917  0.1853 -0.2663 -0.1169
14063W        W31587   2.375   9.640  13.347 -0.0256  0.1554 -0.2724
14064W        W31588   1.519   1.537   0.985 -0.1222 -0.0478  0.1216
14065W        W31589   2.984   6.376  14.524  0.0449  0.1374 -0.0268
14066W        W31590   8.507   2.639  12.480 -0.1100  0.0632 -0.1616
14067W        W31591  17.066  13.943  15.772 -0.0656 -0.2614  0.1967
14068W        W31592  13.008   3.171  15.544  0.1368 -0.1224 -0.1345
14069W        W31593   8.728  14.428   3.511 -0.1461  0.0568  0.5552
14070W        W31594   1.712  16.288   0.314  0.1261 -0.1150 -0.1046
14071W        W31595  12.293  13.795  14.420  0.0028  0.0612  0.3276
14072W        W31596  15.523  13.010   1.786  0.2388 -0.1754 -0.0448
14073W        W31597   3.292   6.226  12.526 -0.1235 -0.1642  0.2316
14074W        W31598  13.417   3.614  13.481 -0.2649  0.0804  0.2187
14075W        W31599   4.621  12.911   2.915  0.1362 -0.2671  0.0790
14076W        W31600   4.563   0.486  12.914 -0.0853  0.2958  0.1631
14077W        W31601   5.640   8.933  14.397 -0.3372  0.1279  0.2191
14078W        W31602   6.685  11.223  13.268 -0.0607 -0.1936  0.4522
14079W        W31603   9.886   5.870  13.863  0.1137  0.0480  0.1295
14080W        W31604  15.520   9.205  11.675  0.3010  0.1417 -0.0003
14081W        W31605  11.190  10.992   4.488 -0.0517  0.1184  0.1356
14082W        W31606   7.049   0.387   2.328 -0.1663 -0.1986 -0.4398
14083W        W31607   3.968   1.547   4.537  0.1383  0.0182 -0.0391
14084W        W31608   8.098  10.713   3.866 -0.2030  0.0584  0.2639
14085W        W31609  12.486  15.530  15.519 -0.1108 -0.0056 -0.1228
14086W        W31610   5.322  14.688   2.055 -0.3116  0.2200 -0.0678
14087W        W31611   1.918   0.821   3.699  0.0722  0.2512  0.0373
14088W        W31612  13.433   3.103   2.116 -0.2031  0.0897  0.1935
14089W        W31613  16.163   0.391   0.836  0.1061  0.1394 -0.1597
14090W        W31614   7.283  13.981  11.752  0.1837 -0.4808  0.0851
14091W        W31615   5.937   7.194  14.427  0.4449  0.1448 -0.0460
14092W        W31616  12.721  10.419   2.708  0.1890 -0.0460  0.0573
14093W        W31617   6.059   0.678   2.036  0.1183 -0.0760  0.1150
14094W        W31618   0.763   8.264  15.436  0.0158  0.0979  0.1715
14095W        W31619  15.482  14.752   3.701 -0.1839  0.0101  0.2369
14096W        W31620   3.548  15.486  12.670  0.2881 -0.0253 -0.2648
14097W        W31621   2.583   7.451  15.574 -0.1541 -0.0402 -0.0112
14098W        W31622   6.312  12.302  12.647  0.1547  0.3306  0.0569
14099W        W31623   0.747  13.876   0.264 -0.2634  0.2836  0.1247
14100W        W31624   1.795   9.399   0.036 -0.0606 -0.1862  0.1251
14101W        W31625   1.718  16.965  15.861 -0.1266  0.0788 -0.1526
14102W        W31626   4.558   4.340  10.476  0.1239 -0.1210  0.0890
14103W        W31627   4.519  13.454   4.036  0.2200  0.0334  0.3102
14104W        W31628  10.942  10.591  13.943 -0.1896  0.1895  0.0174
14105W        W31629   3.744   5.975   4.394  0.1519 -0.4954  0.1496
14106W        W31630  15.562   0.725  10.714 -0.2426  0.0129 -0.0943
14107W        W31631  13.776   6.369  12.172 -0.0717  0.1936  0.0376
14108W        W31632   3.298  11.199   4.892  0.0967  0.0712  0.0888
14109W        W31633  11.263  17.113  10.994  0.1033  0.1933  0.2058
14110W        W31634   0.145  17.964   0.491  0.0493  0.1248  0.1176
14111W        W31635  17.862   4.702   3.641 -0.1393 -0.1550 -0.2483
14112W        W31636  11.477   4.196  14.452  0.3731 -0.2727  0.2088
14113W        W31637  14.643   0.350  14.000 -0.0874 -0.1770 -0.1735
14114W        W31638   4.723   7.215   1.662  0.1279 -0.0668 -0.0649
14115W        W31639  15.385   6.474  12.704 -0.0457  0.0655  0.0827
14116W        W31640  14.911   9.864   3.421  0.2754 -0.0972  0.3072
14117W        W31641   9.396   1.020  14.324 -0.1134  0.3297  0.3476
14118W        W31642   8.847   8.327  14.816 -0.0963 -0.0680 -0.1494
14119W        W31643   2.189   1.431  14.390  0.2568 -0.1421  0.1139
14120W        W31644   6.731  14.174   0.936  0.0727  0.1713 -0.0222
14121W        W31645  17.052   5.134  10.085  0.3561 -0.1095 -0.0965
14122W        W31646  15.972  11.437  11.380 -0.1522  0.0635 -0.1629
14123W        W31647  12.641   9.271  11.619 -0.1909  0.1908  0.2648
14124W        W31648  15.018   5.811  12.292  0.0680  0.0248  0.2817
14125W        W31649   8.479   7.117  14.676 -0.0924 -0.1256  0.0087
14126W        W31650  13.656  16.601   1.023 -0.1127 -0.4097 -0.1387
14127W        W31651  16.874  13.580   2.174  0.4283  0.1431  0.1790
14128W        W31652   4.932  14.076  12.873  0.0293 -0.1031 -0.3925
14129W        W31653  17.477   8.291   4.093 -0.1581 -0.1370 -0.1998
14130W        W31654  13.565  17.578   3.056 -0.3370  0.1854  0.0990
14131W        W31655  14.593   8.865  12.204 -0.2820  0.0631 -0.0688
14132W        W31656   7.142  14.142  14.372 -0.2822 -0.1147 -0.0352
14133W        W31657   3.805  15.087  14.777  0.3663 -0.1761  0.0115
14134W        W31658  15.279   8.825   1.503 -0.1357 -0.1255 -0.3185
14135W        W31659   6.693   7.751   2.787  0.2038  0.1323  0.0028
14136W        W31660  14.120   0.502   0.182 -0.0969  0.3807 -0.1330
14137W        W31661   6.819   4.201   0.037 -0.1039  0.1641 -0.1683
14138W        W31662  14.391   4.059   4.669  0.0637  0.1649 -0.3004
14139W        W31663  17.084  11.017   4.174  0.0033 -0.3043  0.4109
14140W        W31664  15.062   5.223   1.707 -0.4366 -0.0977 -0.1031
14141W        W31665  12.334   1.495  14.903 -0.0931  0.1729  0.0773
14142W        W31666  11.951  17.149   2.730 -0.0111  0.0105 -0.1878
14143W        W31667   9.056   2.902   0.741 -0.4427  0.2228 -0.2939
14144W        W31668  12.616   2.243   1.965  0.1496 -0.1289 -0.1144
14145W        W31669  13.493   7.591  12.583  0.1044  0.0999 -0.4865
14146W        W31670   8.610  14.813  12.944  0.0349 -0.3539  0.3240
14147W        W31671  15.714   5.946  11.747 -0.2304 -0.0433 -0.0807
14148W        W31672   1.194  15.188   4.706 -0.0246 -0.0238  0.2138
14149W        W31673   6.978  17.185  13.063 -0.0377  0.1643 -0.0939
14150W        W31674   7.497   0.953  12.440  0.1102  0.2786  0.1595
14151W        W31675   4.751   7.380   0.096 -0.2568  0.0158 -0.0665
14152W        W31676   5.548  16.077   2.559  0.2499 -0.1701 -0.2630
14153W        W31677  13.795   9.010   2.389  0.1236  0.2969  0.2007
14154W        W31678   8.785   6.558   2.919 -0.1153  0.2312 -0.0726
14155W        W31679   2.966  11.181   1.330 -0.0313 -0.1785  0.0177
14156W        W31680   7.072   4.759  13.451  0.0643 -0.4154 -0.1151
14157W        W31681   6.634   7.766   4.997  0.1643  0.2671  0.1030
14158W        W31682   7.958   2.034   4.352 -0.1659 -0.0732 -0.2076
14159W        W31683   6.601  13.896   4.433  0.1907  0.1214  0.1372
14160W        W31684  12.581   5.804   4.486  0.0312  0.2766  0.0647
14161W        W31685  14.725  14.219   2.174 -0.0319  0.0471 -0.0340
14162W        W31686   4.988   3.806  13.853  0.2445 -0.3440  0.0874
14163W        W31687   7.128  15.990  15.854  0.2955  0.0197 -0.3384
14164W        W31688   4.537  15.019  12.015 -0.1607  0.0792  0.3340
14165W        W31689   0.269   4.454  12.075  0.5611 -0.1112 -0.1968
14166W        W31690   5.502   7.559   2.610 -0.1070  0.0346  0.0696
14167W        W31691  11.789  14.861   3.676 -0.0184  0.0036 -0.0997
14168W        W31692   1.715  11.667  12.711  0.1168  0.2211 -0.2969
14169W        W31693  12.738  12.487   5.871  0.1358 -0.1812  0.1780
14170W        W31694   9.052   6.140   2.796  0.1199 -0.0443 -0.2112
14171W        W31695  15.633   4.047  15.815  0.0808 -0.1908 -0.2893
14172W        W31696  16.664   1.993  13.982  0.3860 -0.1592 -0.0741
14173W        W31697   1.097   9.225  15.678 -0.0183  0.0129  0.1223
14174W        W31698  16.961  17.259   4.612  0.1235  0.3665 -0.0715
14175W        W31699  13.944   7.516  15.121  0.3671 -0.2035 -0.1705
14176W        W31700  10.427  16.163   4.399  0.0417 -0.0974 -0.2669
14177W        W31701   5.899  12.658   5.738 -0.1747 -0.1643  0.2634
14178W        W31702  13.848   8.043   1.730 -0.0672  0.1546  0.0601
14179W        W31703   3.508  15.526  14.594  0.0472  0.0279 -0.5127
14180W        W31704   1.260   0.441   0.037 -0.1658  0.1958  0.0027
14181W        W31705   0.736   0.259  10.882 -0.1278  0.0433 -0.1682
14182W        W31706  16.734   6.861  11.579  0.1444  0.2251  0.0082
14183W        W31707  10.804   7.794   0.057  0.3918 -0.1425  0.0004
14184W        W31708  17.873  15.564  15.797 -0.0357  0.0487 -0.4162
14185W        W31709   0.641  16.017   2.832 -0.0769  0.2932 -0.0829
14186W        W31710   7.765  13.561  13.837 -0.0847 -0.1890 -0.0623
14187W        W31711   0.495  11.721   3.368 -0.0658 -0.1397 -0.0163
14188W        W31712   9.391   6.387   3.032 -0.0112  0.0190 -0.0930
14189W        W31713   5.593   9.938   2.615  0.2347 -0.1327  0.1435
14190W        W31714   5.956   6.116  14.870  0.2875  0.3574  0.0232
14191W        W31715   9.037  16.706  13.385  0.0001  0.0259 -0.1128
14192W        W31716   1.337   2.336  14.881 -0.0817  0.0610  0.4015
14193W        W31717  14.217   2.487   4.322 -0.2050 -0.0085  0.0601
14194W        W31718  10.296   8.126   4.347 -0.0658 -0.1358  0.0781
14195W        W31719   5.259  16.681  13.908 -0.0391  0.3339  0.0179
14196W        W31720   9.148   8.755   1.603  0.1692 -0.0828 -0.0352
14197W        W31721   3.444   6.328  15.009 -0.2322  0.0215 -0.1094
14198W        W31722  18.041  14.703   1.913 -0.0120 -0.0368 -0.3902
14199W        W31723   2.314  14.459   3.434 -0.0859 -0.1366  0.1984
14200W        W31724   6.306   7.615  14.638 -0.1739  0.2899  0.0903
14201W        W31725   3.579   1.328   4.221  0.1634  0.0133  0.1540
14202W        W31726  11.696   5.442   0.436  0.2239  0.0066  0.1270
14203W        W31727   7.274   8.932   2.694  0.0439  0.1244  0.0298
14204W        W31728   4.204   5.228  11.506 -0.0047 -0.2521  0.0534
14205W        W31729  14.708   2.460   2.099  0.0856  0.0424 -0.2660
14206W        W31730   5.452  13.317  15.808 -0.0328 -0.3573 -0.0399
14207W        W31731  17.729   3.448   3.826 -0.1835  0.0241 -0.1236
14208W        W31732   1.291  17.413  14.455  0.0408  0.0075  0.0754
14209W        W31733   6.178  11.578   1.204  0.1324  0.0851  0.2362
14210W        W31734  17.804   3.011  15.338  0.1299  0.1837 -0.0079
14211W        W31735   5.581   9.680   0.927 -0.0488 -0.3601 -0.0737
14212W        W31736  10.462  16.406   0.117 -0.0139 -0.2577  0.1179
14213W        W31737   0.852  13.178   0.079  0.0089  0.1526  0.3280
14214W        W31738  16.226   2.728  13.411 -0.0411 -0.1070 -0.0656
14215W        W31739  16.705  12.428   0.268  0.2154  0.3024  0.0534
14216W        W31740  12.769  10.456   2.201 -0.2164  0.2594  0.1400
14217W        W31741  14.197   9.651  12.620  0.1340 -0.2055 -0.1849
14218W        W31742   7.081   7.981   5.766  0.1779 -0.0625 -0.2470
14219W        W31743   8.951   6.626   2.463 -0.0427 -0.0820 -0.2169
14220W        W31744  13.347   4.033  14.325  0.2163 -0.1805  0.1523
14221W        W31745   3.459  12.745  10.460  0.0002  0.3813 -0.3118
14222W        W31746  13.372  11.202   0.867 -0.0081 -0.0685 -0.2927
14223W        W31747   5.428   1.242   1.067  0.0674  0.3524  0.1420
14224W        W31748  16.505  17.354  14.203 -0.2024 -0.1908 -0.0072
14225W        W31749  17.990  11.088   1.513 -0.1093 -0.1800  0.1843
14226W        W31750  15.975   5.069   0.488  0.1575 -0.1077 -0.2973
14227W        W31751   2.313  10.775  14.081 -0.0624  0.0273 -0.0746
14228W        W31752  14.000   1.431   1.892  0.0838  0.4589 -0.0706
14229W        W31753   7.518   5.515  13.228 -0.1275  0.2176 -0.0007
14230W        W31754   2.677   8.516  12.325  0.0357 -0.1756  0.3350
14231W        W31755  12.903   5.131  14.513  0.0394 -0.1552  0.1193
14232W        W31756   7.338  17.605   1.892 -0.1898 -0.0138  0.0162
14233W        W31757   7.876  16.312   2.635  0.0839  0.1544  0.2151
14234W        W31758  16.462  15.170  15.856 -0.1246  0.1278  0.3365
14235W        W31759   3.865   3.764  13.670 -0.2114 -0.0155 -0.0207
14236W        W31760  18.124  11.759  15.693 -0.0191  0.1293 -0.0195
14237W        W31761  15.008   5.109  15.792 -0.0612 -0.0522 -0.0363
14238W        W31762  11.993  11.748  15.194 -0.0294 -0.0088 -0.1683
14239W        W31763  11.022   5.296   1.889 -0.2165 -0.1855  0.3474
14240W        W31764   6.370   5.065  15.702  0.1300  0.3339 -0.3811
14241W        W31765   8.107  16.423  13.523 -0.2149 -0.1196 -0.1380
14242W        W31766  15.628  13.111  12.828  0.0788 -0.1140 -0.0490
14243W        W31767  12.045  12.915   3.188 -0.1449  0.2096  0.0068
14244W        W31768   9.167   2.203   3.304  0.1210  0.2445 -0.0365
14245W        W31769  10.043   4.450   3.554 -0.1030  0.0240 -0.1972
14246W        W31770  10.296  13.438  10.312 -0.1340  0.1134 -0.0550
14247W        W31771  14.329   2.527  13.079  0.0518 -0.3302 -0.0676
14248W        W31772   2.309  10.664  15.054  0.3186 -0.1161  0.0811
14249W        W31773   4.727   5.575   2.981  0.0543  0.1092  0.1640
14250W        W31774  15.042  11.414  12.758  0.0410  0.0004  0.0505
14251W        W31775  17.097  10.617   1.352 -0.0703 -0.1406 -0.0172
14252W        W31776   8.790   0.428   2.288 -0.0073 -0.0995 -0.1629
14253W        W31777   3.091  16.444   3.304 -0.0122  0.2975  0.1692
14254W        W31778  10.443   4.555  15.068  0.1570 -0.0088  0.0631
14255W        W31779   3.387   9.241  12.087 -0.1019  0.1621 -0.1185
14256W        W31780  12.123  18.018  14.419 -0.0884 -0.0183  0.2932
14257W        W31781  10.974   9.639  14.057 -0.2152  0.0402  0.3096
14258W        W31782   2.194   4.458  15.799  0.5100 -0.2215  0.0649
14259W        W31783  11.058   0.552  11.769  0.0483 -0.2755  0.1900
14260W        W31784   4.262   6.762  12.442 -0.2630  0.0295  0.1806
14261W        W31785   2.036   4.500   2.447  0.1040 -0.1965  0.2922
14262W        W31786  16.557  16.001  10.941 -0.0915 -0.0818 -0.1450
14263W        W31787  14.758  14.102   4.569  0.2354 -0.1094 -0.0703
14264W        W31788  11.347  13.702   5.397  0.0655 -0.0477  0.1329
14265W        W31789  16.574   6.508   4.749 -0.0618 -0.0263 -0.2014
14266W        W31790  15.788   3.783  12.059 -0.0497  0.0766 -0.0881
14267W        W31791   4.451   5.343   3.483 -0.4004 -0.1082  0.0780
14268W        W31792   4.731  13.003  14.402 -0.3009  0.0277  0.0934
14269W        W31793   7.586  13.906  13.176 -0.1339 -0.0287  0.0463
14270W        W31794   6.406   8.017  15.809 -0.0938  0.1803 -0.1435
14271W        W31795   6.513   4.748  10.778  0.3227  0.1405  0.1377
14272W        W31796   0.998  10.901  15.901 -0.0981  0.1070 -0.0732
14273W        W31797   4.658  12.571  13.353 -0.1136  0.1255 -0.0564
14274W        W31798   0.988   3.223   4.217  0.3879 -0.0263 -0.1933
14275W        W31799   4.934   9.675  15.693 -0.1635 -0.2073  0.0135
14276W        W31800  13.119  15.466   1.505  0.0431  0.0422  0.2502
14277W        W31801   1.055  17.551  15.925 -0.0772  0.1206 -0.1068
14278W        W31802   6.095  12.069   1.130  0.1018  0.0594 -0.2288
14279W        W31803   2.151   5.507  13.972  0.0997 -0.1608  0.0140
14280W        W31804  10.701  15.759  14.132  0.1070  0.2444  0.0356
14281W        W31805  11.298   7.417  14.967 -0.1250  0.1486  0.1957
14282W        W31806   3.136  17.211  10.331  0.2975 -0.1606  0.0485
14283W        W31807  17.129   2.530   1.973 -0.1639  0.2979  0.0663
14284W        W31808  11.911  14.779   0.315 -0.1385  0.0133  0.0806
14285W        W31809   6.092   9.748   2.837 -0.3786  0.0547  0.1497
14286W        W31810  12.031   3.914  15.809  0.0228  0.0324 -0.0849
14287W        W31811   4.970   9.206  13.800  0.4447 -0.2352 -0.1154
14288W        W31812  16.828  17.595   4.999  0.0135 -0.2454  0.1601
14289W        W31813   5.210   2.871   2.938  0.0435  0.1117 -0.1567
14290W        W31814   1.466   6.306   0.117  0.0219 -0.1847 -0.0620
14291W        W31815  13.741   3.805  15.546 -0.0858  0.2226  0.0873
14292W        W31816   5.623  17.069   4.171 -0.1158  0.1058 -0.0113
14293W        W31817   1.649  15.228  12.096 -0.0683  0.1862  0.0682
14294W        W31818  14.955  12.327  14.987  0.2614 -0.1529  0.0197
14295W        W31819   5.152   5.024   4.238  0.0594 -0.0653 -0.2923
14296W        W31820   3.036  17.797  14.283  0.1415  0.1602  0.2055
14297W        W31821  12.986   7.775  12.753  0.1542 -0.1259  0.1541
14298W        W31822  16.502   9.940   3.157 -0.1521  0.0977  0.2719
14299W        W31823   2.392   1.631   4.839 -0.1500  0.0543 -0.0031
14300W        W31824  16.203  14.912   1.536 -0.0562 -0.2790  0.3439
14301W        W31825  10.078   0.913  15.355 -0.3341  0.1700  0.0310
14302W        W31826  11.895  11.961  13.419 -0.0414 -0.1597 -0.1592
14303W        W31827   1.399   3.642  13.375  0.0605 -0.0319 -0.0769
14304W        W31828   3.246   8.460   3.034 -0.1548 -0.0299  0.0155
14305W        W31829  17.918  10.929   1.001  0.0474  0.0427  0.1307
14306W        W31830   1.389  16.541   2.839 -0.0982 -0.0760  0.0518
14307W        W31831   6.884   6.261   3.738 -0.1725 -0.2184 -0.1137
14308W        W31832  16.139   9.702   3.452 -0.0706  0.3448  0.1743
14309W        W31833  13.721   9.018   4.402  0.1657 -0.2937 -0.0276
14310W        W31834   7.554   9.386   5.986 -0.0206 -0.0102 -0.3634
14311W        W31835  15.301  16.670  13.966 -0.1256 -0.1622  0.0196
14312W        W31836   7.983  13.762  15.198  0.1330  0.0959  0.0377
14313W        W31837  13.036   8.994   0.006 -0.0288 -0.2532  0.2025
14314W        W31838  12.041  15.012  13.229 -0.1905 -0.2043 -0.1888
14315W        W31839  10.094   0.239  10.283 -0.0734  0.0417 -0.1700
14316W        W31840   1.032   5.237   1.078  0.0399 -0.0449 -0.2972
14317W        W31841  13.225   2.659  13.355 -0.0930  0.0197 -0.0454
14318W        W31842   1.896   4.150   4.150  0.0240  0.2937  0.2834
14319W        W31843   8.837  13.833   1.846 -0.0025  0.0538 -0.1393
14320W        W31844   8.077   9.801   3.302  0.1349  0.1545 -0.0787
14321W        W31845   9.520   2.008  14.572 -0.0684 -0.2947  0.0950
14322W        W31846   0.992   5.503  14.530  0.1158 -0.3496  0.1219
14323W        W31847   5.275   1.540   4.298  0.2086  0.0557  0.3644
14324W        W31848  17.319   0.466   2.915  0.1295  0.3862 -0.3294
14325W        W31849  10.273  12.400   5.007  0.2468  0.2004 -0.2183
14326W        W31850  15.121   6.355  13.086 -0.2460 -0.1089  0.3531
14327W        W31851  15.270  14.525   0.168 -0.3877 -0.2028 -0.5108
14328W        W31852   7.929   1.292  13.006 -0.1487 -0.1850  0.1801
14329W        W31853   5.449   6.587   1.582 -0.3144  0.3228 -0.2185
14330W        W31854  17.854   3.969  15.807 -0.0090 -0.0760  0.0104
14331W        W31855  17.799   3.891  11.473 -0.0191  0.0103  0.0690
14332W        W31856   5.241  13.450   2.899 -0.0413 -0.3955  0.0294
14333W        W31857   0.157  13.180   5.564  0.1697  0.2135 -0.1308
14334W        W31858  16.004  13.655  11.636 -0.0303 -0.3244 -0.2498
14335W        W31859   5.429  13.359  13.908 -0.1073 -0.0007  0.0963
14336W        W31860   3.147   0.611   0.417 -0.2115 -0.1822 -0.1926
14337W        W31861  10.295   7.703  12.146  0.0538 -0.3507  0.0065
14338W        W31862   2.820   7.842  14.213 -0.1793  0.2983 -0.1994
14339W        W31863  13.847  12.484   3.462 -0.0114  0.2284  0.0921
14340W        W31864  16.610  15.083  11.965 -0.1251  0.0697  0.1746
14341W        W31865   4.192   7.926  14.847 -0.0836  0.1914 -0.0334
14342W        W31866  16.847  10.540   3.303  0.0254 -0.0802  0.0751
14343W        W31867   2.662   3.759   1.886 -0.0366  0.0608  0.0016
14344W        W31868  10.066   9.742  11.603  0.0283 -0.1739  0.1869
14345W        W31869   6.592   0.464   2.146  0.1144 -0.1558  0.0326
14346W        W31870   6.614   7.727   4.505 -0.1376 -0.0908  0.3804
14347W        W31871   0.687   3.397   2.142 -0.1128 -0.4012  0.3131
14348W        W31872   7.152  15.119  11.174 -0.2637 -0.0211  0.3704
14349W        W31873   5.484   8.197   4.766 -0.0401 -0.1628 -0.0474
14350W        W31874   0.977  13.441   0.524 -0.1223  0.3768  0.3280
14351W        W31875  17.303  16.366   0.525  0.0367  0.1714  0.1088
14352W        W31876   2.870   1.451  13.459 -0.4487  0.1288  0.1164
14353W        W31877   1.341  17.620   2.649  0.2619  0.2526 -0.1494
14354W        W31878   4.623  14.084   3.385 -0.0483 -0.1299  0.2620
14355W        W31879  13.716  11.086  14.551  0.2435 -0.1365  0.0932
14356W        W31880   1.391  11.021   2.274  0.0374  0.0252 -0.4634
14357W        W31881   8.276  17.639  15.095  0.2208  0.1661 -0.1529
14358W        W31882   2.420   1.144   1.388  0.0379  0.0161 -0.1506
14359W        W31883   5.609   7.117   1.766  0.0759 -0.2144 -0.0664
14360W        W31884  15.060  10.370   3.426  0.1300  0.0467  0.1350
14361W        W31885   1.799  13.214   0.032  0.0211 -0.2704 -0.3169
14362W        W31886   8.872   7.078  10.573  0.2311  0.0083  0.0784
14363W        W31887  13.262   6.755   0.954 -0.0692 -0.0566 -0.4295
14364W        W31888  10.240  14.996  13.483  0.2359  0.1834 -0.0680
14365W        W31889  10.790  13.177   0.275 -0.6205  0.1340  0.1038
14366W        W31890  10.267   3.693  11.608  0.0840  0.1777 -0.1820
14367W        W31891  10.072   2.640   4.147  0.1864 -0.2566 -0.1012
14368W        W31892  17.138  13.624  15.285  0.1353 -0.2906 -0.0069
14369W        W31893   7.277   9.594   0.912  0.3032  0.1803 -0.1006
14370W        W31894   0.635   7.015  12.370 -0.2587  0.0900  0.1871
14371W        W31895  10.406  13.627   2.102 -0.0708 -0.2170  0.1840
14372W        W31896  13.200   8.049   0.787  0.2370 -0.1542  0.0283
14373W        W31897  16.854  12.126  14.522  0.2417  0.0495  0.2674
14374W        W31898  13.616  15.233   4.422 -0.0513 -0.0375  0.1226
14375W        W31899   1.921   5.984  15.731  0.4047 -0.0489  0.1422
14376W        W31900  14.213  12.667   5.026 -0.0672  0.3754  0.1490
14377W        W31901   3.966   3.970  12.159 -0.3332  0.0257 -0.1526
14378W        W31902   6.711  16.183  13.711  0.0376 -0.2081 -0.0723
14379W        W31903   5.873   7.965   2.855 -0.1272 -0.0872 -0.1898
14380W        W31904   1.318  16.089  11.582  0.0310  0.0754  0.0011
14381W        W31905   8.313  13.872   1.962  0.1733 -0.2304  0.2427
14382W        W31906   0.646  17.210   4.476 -0.1131 -0.1582 -0.0040
14383W        W31907  15.521  15.118   0.740 -0.3367 -0.0591 -0.0464
14384W        W31908  16.120   4.404   3.984  0.0873  0.1406  0.0981
14385W        W31909  12.172   1.811  13.090 -0.0712  0.2215  0.3096
14386W        W31910  14.912  12.907  10.326 -0.0469 -0.0458  0.0268
14387W        W31911   5.858   1.250  14.019 -0.4016  0.2098  0.0690
14388W        W31912  11.941  15.053  12.588  0.1105 -0.1785  0.2313
14389W        W31913  11.576   0.789   0.907 -0.3209 -0.0222  0.2113
14390W        W31914   8.576   4.212  11.559  0.0377  0.0012  0.1411
14391W        W31915  12.792   7.828   3.013  0.2464  0.0741  0.0017
14392W        W31916   2.201   8.190  14.910 -0.1085  0.1451  0.1969
14393W        W31917   3.109  18.131   0.318  0.3025  0.2116  0.3005
14394W        W31918   4.758  16.613   0.864 -0.0306  0.2259 -0.2192
14395W        W31919  11.370   0.955   4.147 -0.1672  0.2192 -0.1965
14396W        W31920  11.644   1.081  15.761  0.1207 -0.3938 -0.1779
14397W        W31921  15.474   3.298   3.828 -0.0164 -0.2061  0.0664
14398W        W31922   7.145   7.548   3.499  0.0892 -0.2073  0.0262
14399W        W31923  16.205   3.350  12.587 -0.0515 -0.2445 -0.1864
14400W        W31924   0.593   1.811  15.138  0.0270 -0.0253  0.0435
14401W        W31925  17.557  15.118   3.803  0.0778  0.6234  0.2769
14402W        W31926   9.332  16.235   2.733  0.4036 -0.0604  0.4741
14403W        W31927   1.436   1.854  11.179  0.2161 -0.1343 -0.1229
14404W        W31928   7.575   0.244   1.763 -0.1322  0.1226  0.3217
14405W        W31929   3.786   8.521  15.665 -0.3994 -0.2488 -0.1675
14406W        W31930  16.712  16.998  15.955 -0.0694 -0.0866  0.2090
14407W        W31931  14.418   3.804  13.908 -0.0262  0.1628  0.4025
14408W        W31932  15.054  17.627   3.840 -0.0921  0.0248  0.1486
14409W        W31933  15.720   5.576  14.715 -0.0329  0.1595  0.1641
14410W        W31934   8.569  12.593  13.237  0.1596 -0.0483  0.0901
14411W        W31935  10.797   7.023   2.795 -0.0437  0.0342 -0.1397
14412W        W31936  14.155  16.890  14.128  0.1240 -0.0269 -0.3609
14413W        W31937   0.097  17.365  11.918 -0.0012 -0.0151  0.0837
14414W        W31938   7.905  11.691   2.229 -0.4109 -0.3205 -0.1152
14415W        W31939  17.880   3.479  15.194 -0.2178 -0.0521  0.1390
14416W        W31940  11.879   5.953   0.518 -0.2278 -0.0235  0.1035
14417W        W31941   5.418  15.325   3.241  0.1247 -0.2165 -0.2525
14418W        W31942  12.656  13.658  10.538  0.0955  0.1754 -0.2932
14419W        W31943   3.576   1.743   0.606 -0.2426  0.3611  0.0784
14420W        W31944  16.189  13.900  15.438 -0.1207  0.0256  0.3300
14421W        W31945  12.896   8.986  13.546  0.0335 -0.1656 -0.0598
14422W        W31946   9.783  17.252  15.269 -0.0765  0.0130  0.1213
14423W        W31947   9.490  13.012   1.800 -0.2241 -0.0239  0.3352
14424W        W31948  16.106   7.177   1.920 -0.0024 -0.2565  0.0004
14425W        W31949  17.875  17.847  13.991 -0.1806  0.4289  0.1399
14426W        W31950  17.683  13.155   5.208 -0.1345  0.3173  0.1278
14427W        W31951   6.030   4.140  12.140  0.1939  0.1103 -0.3411
14428W        W31952   9.414  15.898   3.096 -0.0796 -0.0741  0.2353
14429W        W31953   0.310  12.689  14.955  0.4233  0.0185 -0.1903
14430W        W31954   2.069   8.013  14.082 -0.0397  0.0424  0.1053
14431W        W31955  10.395  10.033  14.648 -0.2134 -0.0510 -0.0044
14432W        W31956   8.560  16.793   1.471 -0.1129 -0.4766  0.1531
14433W        W31957   4.161   6.720   1.716 -0.1799  0.0180  0.2810
14434W        W31958  15.984  17.437  14.061  0.1253 -0.1898  0.0555
14435W        W31959   2.062   9.367  11.278  0.3347 -0.1955  0.2287
14436W        W31960  10.212  17.615   1.863 -0.1934  0.0836  0.1635
14437W        W31961   4.106   2.929  15.843 -0.0492 -0.0570  0.0059
14438W        W31962  12.879   8.008   3.801 -0.0546  0.1641 -0.0875
14439W        W31963   6.327  14.022  11.520 -0.2477  0.3429  0.1372
14440W        W31964   3.314  14.937  11.528  0.3119 -0.2188 -0.0638
14441W        W31965  15.462  13.948   0.945  0.1976 -0.0243  0.1481
14442W        W31966   0.501  13.978  13.825  0.2522 -0.3492 -0.1400
14443W        W31967  14.196  11.844   4.623 -0.2179 -0.2188  0.0233
14444W        W31968   8.054  16.401  14.001 -0.0419 -0.2707 -0.2119
14445W        W31969   0.213   8.452   3.137  0.0686 -0.1752  0.2212
14446W        W31970   3.842  13.707   2.980  0.1387 -0.0782 -0.1427
14447W        W31971   6.891  11.480  15.111 -0.1223 -0.3285  0.0792
14448W        W31972   4.628   6.409  15.703  0.0726 -0.1769 -0.0836
14449W        W31973   5.701   6.776  12.006 -0.1975 -0.1604 -0.1328
14450W        W31974   2.356   4.709  14.314 -0.0456  0.0700 -0.0560
14451W        W31975   4.271  11.567   0.400  0.1056 -0.0511 -0.1174
14452W        W31976  15.374  10.277   4.629 -0.0055 -0.3446  0.0573
14453W        W31977   0.686   5.843  14.642 -0.4290 -0.1973  0.1417
14454W        W31978   9.455   3.787  14.478  0.1842 -0.2703  0.1124
14455W        W31979  14.772   5.532   1.463  0.2239  0.4280  0.0120
14456W        W31980   8.266   5.095  13.972 -0.0346 -0.0465  0.1486
14457W        W31981  14.123   2.535   0.917  0.0645 -0.2300  0.0660
14458W        W31982  13.332   8.650   3.245  0.0124  0.1488 -0.3520
14459W        W31983  14.290  17.257  13.405  0.2931  0.0993  0.2603
14460W        W31984   4.519   3.760  11.362 -0.0071 -0.0289 -0.1672
14461W        W31985  10.183   6.783  11.575  0.1015  0.0283 -0.1493
14462W        W31986   7.206   4.707  11.829  0.1898 -0.0104 -0.2806
14463W        W31987   5.907  17.032   1.165  0.0271  0.0011  0.0423
14464W        W31988   6.737   4.968   0.317  0.1624  0.2934 -0.0269
14465W        W31989   7.699   0.477  12.083 -0.0227 -0.3158 -0.0990
14466W        W31990  12.829  14.532   2.477  0.2964 -0.1337  0.2354
14467W        W31991  14.940   6.984   1.658 -0.1788 -0.0491 -0.2576
14468W        W31992   7.498   5.711   0.316  0.1266 -0.1127 -0.3250
14469W        W31993   0.822  10.193  12.791 -0.4992 -0.1188 -0.1891
14470W        W31994  11.550  13.806   2.839  0.1820  0.0553 -0.1225
14471W        W31995   8.704  10.449  12.315 -0.1718  0.1205 -0.0550
14472W        W31996  17.606  15.636   1.446  0.1809 -0.0117 -0.1692
14473W        W31997   0.003  16.478  11.866 -0.4169  0.2391  0.1439
14474W        W31998  15.473  11.222  14.209  0.3536  0.0818 -0.0007
14475W        W31999  13.965  11.823   3.042 -0.1116 -0.1158  0.3098
14476W        W32000   1.069  15.625   3.781 -0.1490  0.1179 -0.3362
14477W        W32001  14.031   0.606  15.244  0.0296 -0.3303  0.0426
14478W        W32002   5.527   9.448  12.150  0.0723 -0.0810  0.1233
14479W        W32003   4.526   9.166  11.620  0.2851 -0.0810  0.1041
14480W        W32004  12.798   8.448  16.027  0.3034 -0.0422 -0.0714
14481W        W32005  11.704   9.191  15.531 -0.1194 -0.0775  0.4016
14482W        W32006   7.538   8.940   0.993 -0.0483 -0.3065  0.2535
14483W        W32007   1.830   7.889  13.089  0.4022  0.3094 -0.1221
14484W        W32008  16.957   9.088   1.493 -0.1092  0.0829 -0.2093
14485W        W32009  15.574   6.145  12.297  0.1560 -0.0660 -0.0586
14486W        W32010   1.424   3.936   2.230  0.3300  0.0633  0.2080
14487W        W32011   8.129   5.188  14.487 -0.0899 -0.0394  0.2710
14488W        W32012   9.414   7.792   1.819  0.0204  0.1716 -0.0086
14489W        W32013  12.366  12.760   3.606 -0.0204  0.0719 -0.3709
14490W        W32014  10.411   5.870  10.930  0.0927  0.2617  0.0071
14491W        W32015   6.443   9.523   1.126  0.0168  0.2241  0.1633
14492W        W32016   4.749  15.659  12.902 -0.2603  0.1656 -0.2464
14493W        W32017  10.041  10.022  12.849 -0.1366 -0.0896  0.1149
14494W        W32018   6.985   9.774   2.304  0.4524  0.1234  0.1299
14495W        W32019  14.460  13.005  15.233 -0.2151  0.0458 -0.0401
14496W        W32020   3.691  12.529   3.790 -0.3212  0.1805  0.0339
14497W        W32021  11.043   8.004   1.804  0.0289  0.0084  0.0939
14498W        W32022   8.434  17.682   2.972 -0.1268 -0.0039  0.1580
14499W        W32023   5.863   3.185   0.077  0.1147 -0.2850 -0.0805
14500W        W32024  17.100   6.255   2.606 -0.0137 -0.1436  0.3567
14501W        W32025   9.835  15.125   2.803 -0.1982 -0.0184  0.0459
14502W        W32026  14.441   8.421  11.609 -0.0196  0.1177 -0.3843
14503W        W32027   1.011  11.583  11.884  0.1901 -0.3342  0.1376
14504W        W32028   6.169   4.234   1.768  0.2699  0.1340 -0.0125
14505W        W32029  15.352   5.523  15.580 -0.3337 -0.0825  0.1603
14506W        W32030   9.115   1.500   2.664  0.2096 -0.1715 -0.2914
14507W        W32031  14.161   5.752   4.014  0.3148  0.0245 -0.2658
14508W        W32032   6.694   3.278  12.758 -0.1459 -0.3051 -0.1706
14509W        W32033  14.693  15.736   2.597 -0.4012 -0.0377 -0.2350
14510W        W32034   7.718  12.376   3.050  0.0749 -0.0544 -0.0699
14511W        W32035   6.906   1.355   2.277  0.1345  0.0144 -0.1221
14512W        W32036   1.148  13.570  16.034 -0.0796  0.0777  0.1375
14513W        W32037   8.245  15.495   2.069  0.0213  0.0114 -0.1347
14514W        W32038  11.664   4.333   4.155  0.2559 -0.3354 -0.0178
14515W        W32039   4.137   6.837  14.828 -0.2174  0.1231 -0.1817
14516W        W32040   8.087   3.633   4.143 -0.1306 -0.0027 -0.0091
14517W        W32041   5.521   9.066   4.356  0.0304  0.2665  0.0383
14518W        W32042  16.147   9.183  14.258  0.0853 -0.1209 -0.3177
14519W        W32043  14.020  13.017   1.484  0.5357 -0.1192  0.1405
14520W        W32044   6.613   2.226  12.489  0.0194  0.1088  0.1838
14521W        W32045  17.242   7.722   4.125 -0.0431  0.0125  0.0965
14522W        W32046   7.370   1.908   1.550  0.2037 -0.0308 -0.1119
14523W        W32047  17.580   5.934   3.315 -0.2293 -0.0207  0.0971
14524W        W32048   6.388   3.563  15.232  0.0172  0.2402  0.0383
14525W        W32049   4.318   5.442   4.299 -0.0378  0.1098  0.1754
14526W        W32050  11.635   1.163   2.905 -0.0521  0.2061 -0.2794
14527W        W32051   1.413  12.843   1.297  0.0274 -0.1479 -0.0817
14528W        W32052   3.299   8.107  13.581  0.0981  0.2580 -0.0836
14529W        W32053   5.625  11.735  15.973  0.0191  0.1269 -0.1207
14530W        W32054  15.638   2.590   1.603  0.2197  0.4120  0.2170
14531W        W32055   2.088  11.710   0.056  0.0542  0.1622 -0.0686
14532W        W32056  17.797  13.743  14.213  0.1042 -0.3208 -0.1182
14533W        W32057  11.339  14.209   4.693  0.3213 -0.2047 -0.0602
14534W        W32058   3.948  10.561  11.279  0.1547  0.1101  0.1494
14535W        W32059  12.577   4.545  15.747 -0.1790  0.0965  0.1241
14536W        W32060  12.885  11.707   0.919 -0.1537 -0.2618  0.0666
14537W        W32061   5.971   0.979  13.247  0.0262 -0.4256  0.1965
14538W        W32062  17.033   3.525  11.651  0.0261 -0.0625 -0.0089
14539W        W32063  11.676   2.931  11.168 -0.1770 -0.0337 -0.1231
14540W        W32064   2.511  11.629   6.000  0.0985 -0.0177  0.3301
14541W        W32065   8.500   3.772  14.262  0.0404  0.2911  0.0465
14542W        W32066   1.895  15.982   1.250 -0.0589  0.2622 -0.0123
14543W        W32067   5.509  17.531  15.495  0.1438 -0.0755  0.2817
14544W        W32068   9.231  14.189  14.976 -0.0915  0.1216  0.3203
14545W        W32069  12.240   3.531  15.604  0.0986 -0.0650  0.0558
14546W        W32070  15.799   8.540   1.615  0.3885  0.0773  0.4200
14547W        W32071  10.759   2.228   0.698 -0.0302  0.1213 -0.0957
14548W        W32072   5.820   1.147  15.405 -0.1347 -0.2016 -0.1230
14549W        W32073  10.947   9.259   1.418 -0.3261  0.0174 -0.1713
14550W        W32074   1.602  10.371   0.176  0.0372 -0.0484  0.0480
14551W        W32075  10.958  14.292   1.744  0.1712  0.0114 -0.2672
14552W        W32076  11.363  15.620   1.955 -0.0610  0.0807  0.1441
14553W        W32077   4.016  16.051  14.041  0.1223  0.1291 -0.1413
14554W        W32078  13.971   0.791  12.718 -0.1921 -0.3533  0.0703
14555W        W32079   4.443   9.107   2.882 -0.1230  0.0773 -0.1508
14556W        W32080   4.152   4.345  15.553 -0.1447 -0.1072 -0.0690
14557W        W32081  13.189  11.360   2.216 -0.1950 -0.1973 -0.1481
14558W        W32082  15.622   1.086   4.278 -0.1217  0.0476  0.0460
14559W        W32083  12.661  15.219   3.292  0.0491  0.3332 -0.2296
14560W        W32084  12.754   0.322  15.580  0.0552  0.0659  0.0950
14561W        W32085  17.154   8.433  10.337  0.0840 -0.2005  0.4450
14562W        W32086   2.674   3.933   3.114 -0.0227 -0.2106 -0.1425
14563W        W32087   2.765  10.709  14.231 -0.1245 -0.2210  0.1885
14564W        W32088  14.008  11.270   4.997  0.0876 -0.0264 -0.3503
14565W        W32089  11.586   6.403   4.483 -0.1026  0.0848  0.0529
14566W        W32090   9.992   5.693  14.368  0.0996  0.0664  0.0013
14567W        W32091   5.919  16.407   0.634 -0.1629  0.1921 -0.0298
14568W        W32092  14.712   2.458   1.054  0.0215  0.3169  0.2420
14569W        W32093   4.366   0.140  11.721 -0.0690 -0.3066  0.0426
14570W        W32094   6.328   5.583  11.188  0.1617 -0.1765 -0.2850
14571W        W32095   9.132  12.183  15.474 -0.3971 -0.1746  0.0330
14572W        W32096   9.818   8.834   4.665  0.2625  0.2141  0.1820
14573W        W32097   8.748  14.765  13.873  0.0739 -0.0834 -0.1265
14574W        W32098  16.547   3.111  13.459  0.2434 -0.0959 -0.1997
14575W        W32099   2.571   7.008  13.371 -0.1922 -0.0321  0.1844
14576W        W32100   4.668   3.285   2.411 -0.0423 -0.2658 -0.1126
14577W        W32101   5.453   9.118  13.384 -0.2487  0.2052 -0.0086
14578W        W32102  11.627  11.816  13.050  0.1694 -0.1601 -0.2247
14579W        W32103   0.040  14.419  14.238 -0.0468  0.0908 -0.3274
14580W        W32104   0.688  13.105   1.940  0.3452 -0.1025 -0.0019
14581W        W32105   5.810  17.411   4.635  0.0760  0.0315  0.0137
14582W        W32106   5.240   8.984   0.545 -0.4806  0.4094 -0.3111
14583W        W32107   4.627   1.918   3.864 -0.1642 -0.2962 -0.1367
14584W        W32108   7.960   1.101  14.021 -0.1399 -0.0110 -0.1452
14585W        W32109   3.994  15.762  11.708 -0.0812  0.0417 -0.1316
14586W        W32110  13.374  16.349   0.624 -0.0801  0.0355 -0.1378
14587W        W32111  14.192  13.489   1.044  0.1101 -0.2246 -0.0928
14588W        W32112  18.128  17.721  15.608  0.1750  0.0809  0.0013
14589W        W32113   4.372  15.754   2.990  0.2349 -0.1932  0.1681
14590W        W32114   4.908  17.992  14.462 -0.1661 -0.0402  0.0034
14591W        W32115   8.653  14.351   0.530  0.0370  0.0416  0.0615
14592W        W32116  13.105  15.781   2.715  0.0101  0.0511 -0.0470
14593W        W32117  15.724  12.815  15.646  0.3476  0.2899 -0.0113
14594W        W32118   3.396   1.671   1.855 -0.3074  0.0629 -0.2124
14595W        W32119   6.826  14.394  11.942  0.1702 -0.3219 -0.1375
14596W        W32120  12.333  16.532   1.971  0.1870  0.0356 -0.1068
14597W        W32121   9.079   0.325  12.529  0.0555  0.3569  0.2992
14598W        W32122   6.816   1.950   2.119  0.1650 -0.1876  0.3136
14599W        W32123  14.126  13.114   4.716 -0.0639 -0.0788 -0.2807
14600W        W32124   9.083   7.787  12.106 -0.1956  0.0149 -0.0528
14601W        W32125   7.915   5.267  13.050 -0.2805 -0.0159 -0.1330
14602W        W32126   4.731  16.992   3.556 -0.0608  0.1632  0.0233
14603W        W32127  17.705   0.477  12.860  0.0887  0.0044  0.2585
14604W        W32128  17.317   3.402   1.010  0.1361  0.2895  0.2064
14605W        W32129  16.103   3.219  13.221 -0.0175 -0.2583  0.0426
14606W        W32130   5.673   3.643  15.620  0.1607 -0.1856 -0.0640
14607W        W32131   2.669   3.223  13.559  0.1817 -0.0707 -0.1680
14608W        W32132  13.656  17.336   2.269  0.1754 -0.1457  0.0066
14609W        W32133   5.138  13.740   1.399  0.1795  0.0911 -0.2376
14610W        W32134   9.315   8.236  14.767  0.2370  0.0921 -0.0575
14611W        W32135   3.833   5.139  12.762  0.0322  0.0188  0.1221
14612W        W32136  11.529   6.724  14.369  0.1259 -0.1166  0.2727
14613W        W32137  17.466  10.571  13.039 -0.0762  0.0397 -0.0796
14614W        W32138   3.049   2.642  14.780 -0.0786  0.3247 -0.0895
14615W        W32139   2.978   2.880   2.250 -0.0856  0.3215 -0.0972
14616W        W32140   8.569   3.541  12.326  0.1226 -0.1482 -0.0323
14617W        W32141  16.148   3.233  15.033  0.0455 -0.0167 -0.4580
14618W        W32142  13.799  11.963  13.078  0.1683  0.1278 -0.1044
14619W        W32143   5.679   0.451  11.090  0.2445  0.1283 -0.0647
14620W        W32144   5.305   6.481  15.393 -0.1029  0.2780  0.0802
14621W        W32145  14.358   9.305  13.805  0.0031  0.1515 -0.0620
14622W        W32146  11.100  12.484  13.159  0.3683 -0.2569  0.0874
14623W        W32147   1.360   0.039   1.313 -0.1508 -0.1407 -0.1226
14624W        W32148   5.605  17.797  12.383 -0.0299 -0.2831  0.0380
14625W        W32149   7.158  17.331   0.652 -0.0082 -0.2152  0.0633
14626W        W32150   0.938  14.684  12.573 -0.1748  0.1069 -0.1220
14627W        W32151   5.748   2.659  12.460 -0.2304 -0.0230  0.0157
14628W        W32152   7.441  13.509  12.356 -0.1577  0.1842 -0.0812
14629W        W32153  17.646   1.796  10.255  0.0275 -0.1283 -0.0129
14630W        W32154   9.915   1.690   2.346 -0.0181 -0.3165  0.2071
14631W        W32155   9.615   0.839  15.553 -0.0784  0.0486 -0.5203
14632W        W32156  10.698   5.638  15.940  0.2180 -0.0645 -0.0503
14633W        W32157   1.876   0.878  15.552 -0.0389  0.0519  0.0783
14634W        W32158  12.577   9.357   0.612 -0.0384  0.1512 -0.1976
14635W        W32159   8.428   2.995   3.774  0.1091  0.1680  0.0089
14636W        W32160   0.175   8.197   1.078 -0.0109 -0.1112  0.1098
14637W        W32161  16.108  16.923   2.006 -0.0320 -0.2206 -0.1098
14638W        W32162   8.636   5.946  14.009  0.0953  0.1789  0.1013
14639W        W32163   9.896  16.122   2.830 -0.2276  0.2073  0.0351
14640W        W32164   8.230   3.881  13.905  0.0497 -0.1229 -0.0047
14641W        W32165  15.947   7.423  15.379  0.2048 -0.3808  0.1443
14642W        W32166   7.048  16.383   1.303 -0.1533 -0.2800  0.0037
14643W        W32167   0.445  16.023   1.611  0.0142  0.0078  0.0384
14644W        W32168   0.024  13.099  13.924 -0.1032  0.0426 -0.4385
14645W        W32169   3.104  11.018   3.097 -0.0342  0.1970 -0.1567
14646W        W32170   8.222   2.414   5.016  0.0120 -0.1927  0.0163
14647W        W32171  11.088  12.883  13.867 -0.0981 -0.1411  0.1211
14648W        W32172   1.072   0.760   2.461 -0.1618 -0.1006  0.1306
14649W        W32173  10.973   7.036  12.247 -0.0037 -0.0322  0.1481
14650W        W32174  17.800   0.013  10.219  0.0584 -0.0316  0.0037
14651W        W32175  10.433  12.011   0.320  0.0372  0.0142 -0.1432
14652W        W32176   3.235  16.220   1.297  0.1352  0.0672 -0.2359
14653W        W32177   6.693   3.293   0.477 -0.2896 -0.1239 -0.2837
14654W        W32178   8.414   0.479   1.818  0.1984  0.0206 -0.0792
14655W        W32179  14.236   0.174  10.430 -0.1275  0.1240 -0.0312
14656W        W32180   3.156   4.982  12.479  0.2194  0.1448  0.2465
14657W        W32181  11.010   2.322  14.513  0.0833  0.1335 -0.1353
14658W        W32182   2.817   7.692   0.006 -0.0792 -0.0320  0.0753
14659W        W32183  10.378   6.385   4.071  0.1996 -0.1055 -0.2354
14660W        W32184   3.025   1.510   2.154  0.2180  0.0365 -0.1986
14661W        W32185  18.097   8.839   2.841 -0.0219 -0.0429  0.2703
14662W        W32186   8.414   8.030  10.997 -0.2116 -0.1075 -0.1861
14663W        W32187   1.902   3.119   4.022  0.0716 -0.0173 -0.1107
14664W        W32188  13.053   3.820  13.761  0.1027  0.2486  0.1846
14665W        W32189   7.111  17.088   0.233  0.1611 -0.1968 -0.0560
14666W        W32190   5.272  16.099  14.990 -0.1548  0.1753  0.2063
14667W        W32191  15.296   2.454   1.935 -0.0567  0.3564  0.0709
14668W        W32192  11.665  12.699   2.959 -0.1068 -0.1610 -0.1241
14669W        W32193  12.364   5.078   3.693 -0.1811  0.1510 -0.2245
14670W        W32194  10.851  11.249  11.963 -0.0298 -0.1220  0.0109
14671W        W32195   8.410  15.988   0.786  0.2035  0.2951 -0.1124
14672W        W32196  16.074  14.283   2.164  0.0911  0.0874  0.2588
14673W        W32197   1.298  13.911  10.873 -0.1701  0.1478  0.0099
14674W        W32198   4.906  13.215   3.152 -0.6171 -0.1761 -0.1859
14675W        W32199  14.075   7.605  13.483  0.3642 -0.0452  0.0119
14676W        W32200   3.213  10.729   3.872  0.2984  0.0179 -0.2581
14677W        W32201  16.741   4.446  14.030 -0.3352  0.0158  0.2348
14678W        W32202   2.372  17.561  15.358 -0.0335  0.0573 -0.0530
14679W        W32203  14.582   2.442   4.730 -0.0980  0.0631 -0.3309
14680W        W32204   8.462   2.411   0.050 -0.1696  0.0126  0.1214
14681W        W32205   8.156  10.854  12.027 -0.0475 -0.1349  0.0352
14682W        W32206   6.001   9.267  12.250  0.0927 -0.2906  0.1044
14683W        W32207   5.627   8.002  11.442 -0.3409 -0.1382 -0.0389
14684W        W32208   7.724   8.181  11.201  0.0253  0.0830 -0.0105
14685W        W32209   8.374  11.883  15.099 -0.1167 -0.1544 -0.0976
14686W        W32210  16.041   6.392  14.222 -0.0185  0.0386 -0.1609
14687W        W32211   1.991   2.054  15.578 -0.2145 -0.1634  0.0285
14688W        W32212  14.693  14.112   1.636 -0.1459  0.0082 -0.0294
14689W        W32213   4.288   8.134   0.161 -0.0015  0.2481  0.2972
14690W        W32214   9.475  13.235  12.532 -0.0835  0.2130 -0.0416
14691W        W32215   6.284  10.408   2.063 -0.0954  0.0720  0.0050
14692W        W32216  17.071  11.685   2.201  0.3029 -0.3905 -0.2213
14693W        W32217  11.770   3.496   1.785  0.0202  0.0821 -0.2185
14694W        W32218   4.162  11.347   4.441 -0.0701 -0.1862  0.1314
14695W        W32219   6.882  15.155  13.527 -0.1619  0.1581  0.1181
14696W        W32220  15.867   7.216  14.208 -0.2318  0.2406  0.0689
14697W        W32221   5.204  17.176  14.748  0.0503  0.0810  0.2651
14698W        W32222   6.467  17.446  15.579  0.1302  0.0682  0.2838
14699W        W32223   1.020   8.463  12.256 -0.0448  0.3369 -0.2423
14700W        W32224   3.034   4.123  13.827  0.1715 -0.0139 -0.2612
14701W        W32225   5.155  10.394   0.371  0.1041 -0.0800  0.0689
14702W        W32226   2.596   0.203  13.957 -0.1937  0.1747  0.1443
14703W        W32227   4.140  12.896  15.929 -0.0429 -0.2105  0.0594
14704W        W32228   7.765  10.076   2.375  0.2786  0.0918  0.1461
14705W        W32229  13.928  12.881  12.707  0.2272  0.0027  0.1873
14706W        W32230  10.289   1.662  14.681 -0.3227  0.0946 -0.1511
14707W        W32231  15.876   4.811  11.113 -0.1112  0.1095 -0.0388
14708W        W32232  16.338   3.395   0.873  0.0674 -0.0578  0.0871
14709W        W32233  11.671  15.087   0.613 -0.0762  0.0550 -0.0090
14710W        W32234  16.040   5.746  15.645 -0.0626 -0.2595  0.0953
14711W        W32235   5.022  12.717   3.835  0.0906  0.1298 -0.0857
14712W        W32236   5.561   0.887  13.000 -0.0075  0.0449  0.2324
14713W        W32237   9.017   0.127  13.281 -0.3388 -0.0970 -0.1771
14714W        W32238  17.763  12.341   1.420  0.1128  0.0618  0.0055
14715W        W32239   9.640   0.571  15.061 -0.1609 -0.2083  0.0312
14716W        W32240   2.426   8.965  15.735 -0.0703  0.2879 -0.2418
14717W        W32241   8.250  17.831  11.252 -0.0737 -0.0034  0.3488
14718W        W32242   7.906   8.665   0.725  0.0921 -0.0163  0.1206
14719W        W32243   8.103   2.102   3.382 -0.0295  0.2627 -0.0246
14720W        W32244   3.612   5.342   2.290 -0.3186 -0.3115  0.0656
14721W        W32245  13.806   1.036   4.473  0.2780 -0.0649  0.1828
14722W        W32246   3.654   5.520  13.160  0.1322 -0.0772 -0.2334
14723W        W32247   6.254   0.999  15.691 -0.3757 -0.0097 -0.2117
14724W        W32248   8.993   1.800  12.515  0.4907  0.1175  0.2648
14725W        W32249   6.560  15.291  12.176  0.3285  0.3727 -0.0986
14726W        W32250  12.237   3.556   4.212  0.0896 -0.0198 -0.1943
14727W        W32251  15.967   5.917  13.937  0.2103 -0.1835  0.1519
14728W        W32252  12.129  15.903  14.979  0.1185  0.1593 -0.0141
14729W        W32253   8.798   3.812  13.798 -0.2344  0.0417  0.1211
14730W        W32254   3.504   1.906  13.984 -0.2059 -0.0687  0.5013
14731W        W32255   5.577   5.583  13.431  0.0942 -0.2225 -0.0434
14732W        W32256   5.773  10.844  13.406  0.3891  0.0224 -0.0742
14733W        W32257   2.626  10.942  14.805  0.1345 -0.1334  0.1547
14734W        W32258   9.518   2.738   3.351  0.0411 -0.0614  0.1122
14735W        W32259  17.939  15.294  15.312  0.0395  0.2864  0.1378
14736W        W32260  10.789   8.366   2.538 -0.1556 -0.0044  0.0063
14737W        W32261  16.947  17.908   1.790  0.1717  0.4129 -0.2407
14738W        W32262   9.299  17.765  13.135  0.0183  0.0587  0.2597
14739W        W32263  16.575   1.002   3.429  0.2782 -0.2121 -0.0127
14740W        W32264  10.449   4.722   3.740 -0.1499 -0.1643  0.0425
14741W        W32265  15.802  12.110   3.684  0.1129 -0.3487 -0.0678
14742W        W32266  12.344   0.139   0.121 -0.0118  0.4220  0.0311
14743W        W32267  15.291  15.648   5.204 -0.0376  0.0353  0.0796
14744W        W32268   8.370  15.687  14.556 -0.0801  0.1013 -0.1787
14745W        W32269   8.988   1.843  11.811 -0.0958  0.0635 -0.1596
14746W        W32270  17.214  15.070   4.314  0.1835 -0.0345 -0.1620
14747W        W32271  18.079  10.435  14.450  0.0364 -0.2242  0.0504
14748W        W32272   1.045  17.838   4.929 -0.1485 -0.1515 -0.1792
14749W        W32273  13.191   3.181   0.055  0.1832  0.0573 -0.0669
14750W        W32274   2.598  15.157   5.992 -0.0419  0.1617  0.0374
14751W        W32275  13.742  12.713   4.973 -0.1885 -0.0029 -0.0250
14752W        W32276   8.295   6.223  15.802  0.0113 -0.1670 -0.1658
14753W        W32277   3.966   5.393  14.870  0.1234 -0.1922 -0.0261
14754W        W32278  10.422  17.371   1.492  0.3806 -0.0615 -0.0837
14755W        W32279   3.425  13.598   0.054 -0.0770  0.1575  0.2621
14756W        W32280  13.865   6.970   3.421 -0.0583 -0.1217 -0.3963
14757W        W32281  12.539   5.871   5.312 -0.0012  0.1700 -0.1729
14758W        W32282  17.599   0.969   5.078 -0.0284  0.3526  0.2126
14759W        W32283  10.393   6.051   4.491  0.0362 -0.1630  0.4508
14760W        W32284  10.627   0.901  11.190 -0.0317  0.0143 -0.1352
14761W        W32285  15.942   1.658  14.590  0.0331  0.0515 -0.0009
14762W        W32286  14.158   5.323   0.820 -0.0957  0.3229 -0.0878
14763W        W32287   2.277   5.635   3.369  0.1304  0.3377 -0.1662
14764W        W32288   8.368   5.282  12.630  0.0045 -0.0442  0.1384
14765W        W32289   4.089   2.087  11.856  0.0753 -0.0187 -0.2993
14766W        W32290  16.338   2.921   2.299 -0.1913 -0.0322  0.0629
14767W        W32291  11.291  14.862  15.130 -0.0607 -0.1571 -0.2627
14768W        W32292  18.016   4.113  12.144 -0.3712  0.1482 -0.3695
14769W        W32293  15.274   5.924  14.513  0.1030  0.0734 -0.2636
14770W        W32294   7.743   7.422  14.258  0.1373  0.1824 -0.0977
14771W        W32295   9.866   5.991   3.781  0.1082 -0.2176  0.0907
14772W        W32296  12.484  11.041   2.907  0.1550  0.1437  0.0944
14773W        W32297   0.903  17.900   2.527  0.1090  0.0368  0.4881
14774W        W32298   0.411   6.147  12.477  0.0842 -0.1074  0.1144
14775W        W32299  11.103   7.493   2.692 -0.0348 -0.1661 -0.1748
14776W        W32300  16.662  15.592  11.956  0.0556 -0.2068  0.1072
14777W        W32301  11.409   1.624  14.110 -0.1222  0.1391  0.0217
14778W        W32302   5.734  18.002   3.283 -0.2360 -0.1682 -0.1795
14779W        W32303   0.078   5.079   2.408 -0.0575  0.0076 -0.0813
14780W        W32304   3.426  13.370   2.969 -0.0548 -0.1627 -0.1812
14781W        W32305  14.175  17.732  15.009  0.0269  0.1817  0.2978
14782W        W32306  16.399  17.515  14.963 -0.1046 -0.2769 -0.0288
14783W        W32307  13.865   0.363   2.411  0.0338  0.1662  0.2385
14784W        W32308   7.017  14.673  13.614 -0.2165 -0.1381 -0.1156
14785W        W32309   1.466  17.179  15.284  0.0764  0.2048  0.0201
14786W        W32310  18.108  14.482  12.231  0.1010  0.2695 -0.2103
14787W        W32311  12.475  15.280   4.968  0.0913 -0.0082  0.1721
14788W        W32312  16.250   6.069   2.029  0.2144 -0.0246 -0.1378
14789W        W32313   2.534   7.145  14.706  0.0721 -0.2193 -0.0451
14790W        W32314   0.699   7.168   9.908 -0.0331 -0.4481 -0.1433
14791W        W32315   3.685  11.741  13.121  0.0672 -0.1154  0.0227
14792W        W32316  13.403   4.097   2.815  0.0755 -0.0563 -0.1672
14793W        W32317  14.393  16.136   2.808 -0.0203  0.0951  0.2251
14794W        W32318   0.090   1.604   4.291  0.0212 -0.0906  0.1716
14795W        W32319   4.801  11.981   3.025 -0.2532  0.1225  0.0672
14796W        W32320   5.809  11.104  12.992 -0.4002 -0.0114 -0.0600
14797W        W32321  17.543   7.542  13.920  0.1548 -0.0551  0.2268
14798W        W32322   2.559   9.651  12.389  0.1723 -0.0027 -0.0703
14799W        W32323  13.047  16.591   4.142  0.1314  0.1366 -0.1693
14800W        W32324  17.910   0.310  15.993  0.0203 -0.0444  0.0628
14801W        W32325  17.999  17.490   0.744 -0.1255 -0.0003 -0.3739
14802W        W32326  15.066  14.939   0.921 -0.0853  0.0491 -0.1031
14803W        W32327   9.530  10.475  15.671  0.2976 -0.1711 -0.3616
14804W        W32328  12.036   8.042   3.460  0.1765 -0.1266  0.1325
14805W        W32329   9.871  13.116  10.417  0.0774 -0.1285 -0.0204
14806W        W32330  14.457  14.637  13.330 -0.1477 -0.0357  0.2418
14807W        W32331   6.117  12.910   3.344 -0.3062 -0.0112 -0.1483
14808W        W32332  11.735  14.931   4.585 -0.0496 -0.2084  0.3774
14809W        W32333   3.146   4.205   1.346  0.0864 -0.3061  0.1241
14810W        W32334   3.550   4.530  11.641 -0.2557 -0.0162 -0.0495
14811W        W32335  11.250  16.933  15.547  0.2787  0.0080 -0.0183
14812W        W32336  10.364   0.170   4.359  0.1246  0.0466  0.0256
14813W        W32337   4.116  15.612   4.749 -0.2111 -0.0742  0.2319
14814W        W32338  11.445  10.796  11.696 -0.1563 -0.3535  0.0986
14815W        W32339   3.807   1.614   3.449  0.2409  0.0323 -0.1277
14816W        W32340   8.163   5.013   5.697 -0.0576 -0.2511 -0.2280
14817W        W32341   9.470  16.886  14.603  0.1541 -0.1202  0.1747
14818W        W32342   7.077  12.923   2.084  0.0537  0.0083  0.0290
14819W        W32343  10.855   0.280   4.439  0.1543  0.1459 -0.0405
14820W        W32344  15.976  16.221   4.404 -0.2225  0.2150  0.1868
14821W        W32345  11.479   7.222  11.900 -0.2900 -0.2205 -0.1005
14822W        W32346   1.878   3.411   1.598  0.0647 -0.4412 -0.0508
14823W        W32347  17.633   1.244   1.035  0.0584  0.2634 -0.0093
14824W        W32348   2.875   1.059   5.186 -0.0639 -0.0326  0.1733
14825W        W32349  13.649  14.029  15.818  0.3543  0.3513  0.2128
14826W        W32350   5.046  15.274   2.591 -0.5754  0.0222  0.3147
14827W        W32351   3.268  16.330  14.913  0.0079 -0.4636  0.1106
14828W        W32352  17.926   3.589  12.171 -0.4995 -0.0526  0.0834
14829W        W32353   0.968   3.066   3.690 -0.0754  0.1253  0.0996
14830W        W32354   4.760   4.376  13.579 -0.0129 -0.0312  0.2331
14831W        W32355   2.500   4.944  13.143  0.0611 -0.1269  0.0822
14832W        W32356  10.431   4.501   4.546  0.3208  0.2731 -0.1942
14833W        W32357  15.915  14.897   4.463  0.0915 -0.0564 -0.1518
14834W        W32358  15.454   2.966   2.159 -0.0641  0.1203  0.0303
14835W        W32359  10.767  11.176  15.133 -0.0530  0.0515 -0.0633
14836W        W32360   9.645  12.375  15.652  0.2158  0.1328  0.2151
14837W        W32361  16.166  15.231   4.210 -0.1751 -0.0576  0.4123
14838W        W32362   6.896  15.864   4.152 -0.0865  0.2534  0.0704
14839W        W32363  15.500   8.587  14.719 -0.0787  0.1099 -0.1396
14840W        W32364   0.547   8.604  10.876  0.0043  0.1614  0.1849
14841W        W32365   0.283   6.467   1.444  0.1582 -0.1264  0.4205
14842W        W32366   6.891   8.539  13.244  0.0027 -0.3861  0.1276
14843W        W32367  14.371  11.474  15.575 -0.0261  0.3187  0.0293
14844W        W32368  13.232   8.221  15.844 -0.0904  0.2278 -0.1387
14845W        W32369   8.827   7.124  11.182 -0.1930  0.2680 -0.3171
14846W        W32370   8.817  12.650  15.253  0.2895  0.1315  0.0006
14847W        W32371  13.425   0.159   2.358  0.1352  0.1610 -0.0885
14848W        W32372   0.790   7.456   4.707  0.2948 -0.0181  0.0146
14849W        W32373  12.648  13.734   1.439 -0.3478 -0.0007  0.2876
14850W        W32374  13.363  16.235   5.489  0.0251 -0.1304  0.1615
14851W        W32375  16.958  11.739  14.922 -0.2262 -0.1202 -0.2098
14852W        W32376  12.965   5.224   2.084  0.0506 -0.1447  0.0470
14853W        W32377   4.223  10.834  11.593  0.1128 -0.2598  0.3235
14854W        W32378   9.185   2.822  11.633  0.1477 -0.2860 -0.0833
14855W        W32379   3.117   8.260  11.985 -0.0627 -0.0701 -0.2068
14856W        W32380   0.507   0.570  14.265 -0.0811  0.1496  0.0959
14857W        W32381  17.708   2.742   3.852  0.1392 -0.2017 -0.2802
14858W        W32382   7.443  12.716  11.609  0.2171 -0.2879  0.1326
14859W        W32383   5.233  14.200  14.198  0.0022 -0.0840  0.0706
14860W        W32384  11.215  10.890  15.888  0.0184  0.0359  0.1709
14861W        W32385  15.429   0.764  12.647 -0.0745 -0.0522  0.2230
14862W        W32386   3.557  15.988   0.842 -0.0291  0.1333 -0.0603
14863W        W32387  12.333   6.864  12.063  0.0423  0.1215  0.1696
14864W        W32388   8.776   6.529  12.554  0.2069 -0.2082  0.0539
14865W        W32389  12.579   9.640  12.160  0.0176 -0.2351  0.0324
14866W        W32390   3.186  17.889  13.150 -0.3678 -0.0174  0.3903
14867W        W32391  15.238   0.140  16.014 -0.0550  0.0165  0.3290
14868W        W32392  16.522  17.257  10.516  0.0393  0.2724 -0.0894
14869W        W32393   5.446  15.989   5.237 -0.4123 -0.3708 -0.3029
14870W        W32394  10.941  10.919  14.369  0.4579  0.0677 -0.2558
14871W        W32395   6.172   1.540   0.506  0.0273  0.1719  0.1592
14872W        W32396  12.857   3.297  10.983 -0.0325 -0.1241  0.0057
14873W        W32397   9.129   7.924   0.531 -0.1413 -0.1606 -0.0856
14874W        W32398  11.150   3.085  14.983 -0.0346 -0.0549 -0.0282
14875W        W32399   3.656   1.636  10.974  0.0897 -0.0034  0.0144
14876W        W32400   8.162   0.489   2.846  0.1474 -0.2319  0.0832
14877W        W32401   6.065   1.275   2.551  0.2861  0.0102 -0.0763
14878W        W32402   4.146   9.115  11.115  0.3031  0.0230  0.0570
14879W        W32403   4.549   8.818  13.581 -0.2599 -0.0723  0.2804
14880W        W32404   4.845  14.637   3.203  0.0129  0.1385  0.0051
14881W        W32405   3.937   7.800  14.455 -0.0994 -0.1430  0.1812
14882W        W32406   2.244   5.061   1.326 -0.1708  0.3420  0.0279
14883W        W32407  17.440   7.320  13.050 -0.1032 -0.0671  0.2026
14884W        W32408  14.990   5.776   0.812  0.0606 -0.4276 -0.1525
14885W        W32409  17.397   1.536  12.066  0.0050  0.1021 -0.0374
14886W        W32410   4.915  16.547  12.637 -0.1049  0.1710 -0.3658
14887W        W32411  16.753  14.895   2.379 -0.0903  0.0615  0.0552
14888W        W32412  17.589  13.148  13.616 -0.3466  0.0694  0.0883
14889W        W32413   9.535  10.191  12.800 -0.1772 -0.1253 -0.0527
14890W        W32414   9.891   8.692  13.863 -0.0745 -0.0438 -0.1095
14891W        W32415   3.583   4.319  10.359  0.1972  0.2443 -0.1685
14892W        W32416  13.746   3.280  13.966  0.3640 -0.0422 -0.3192
14893W        W32417  15.932  13.419  12.423 -0.0268 -0.0910 -0.0312
14894W        W32418  15.986  13.225  11.033 -0.1025  0.1863 -0.1213
14895W        W32419   8.329  14.508   3.888 -0.0228  0.2321  0.0498
14896W        W32420  18.010  10.052   0.776  0.0615  0.0611 -0.0262
14897W        W32421   8.950  13.132   3.850  0.0150  0.0540  0.0055
14898W        W32422  13.829  10.748   1.570 -0.1097 -0.0012 -0.1054
14899W        W32423   8.496  10.141  13.483  0.0518  0.0225  0.0597
14900W        W32424  14.266  16.209  13.270 -0.1785  0.2483 -0.0751
14901W        W32425  12.434  15.440   5.864  0.2820  0.2564 -0.2062
14902W        W32426  13.782  12.054   1.266 -0.1883 -0.0436  0.0040
14903W        W32427  10.315   2.140  12.433 -0.1890  0.1100 -0.0396
14904W        W32428   7.976   5.825   1.157  0.1250 -0.0530  0.1601
14905W        W32429   0.279  15.541   4.097 -0.2225  0.0738 -0.0034
14906W        W32430   5.909   9.271   1.209 -0.1562 -0.2504 -0.0008
14907W        W32431  14.154   2.019   3.717 -0.0207  0.0351 -0.2009
14908W        W32432   1.615   1.683   0.445 -0.0738  0.2518  0.0215
14909W        W32433   6.103  10.784  14.224 -0.0941 -0.0620  0.0745
14910W        W32434   0.152   0.584  15.443 -0.1657  0.1173 -0.2430
14911W        W32435   3.021  12.096  11.207  0.1214  0.2266 -0.1100
14912W        W32436   6.316   6.113  11.424 -0.3018  0.0519 -0.0383
14913W        W32437   7.952  16.651   1.346  0.0231 -0.0670 -0.2250
14914W        W32438  17.123  11.007  11.294 -0.1491 -0.2253 -0.1039
14915W        W32439   6.204  17.928   3.114 -0.1573  0.0424 -0.0359
14916W        W32440   2.444  10.108  12.322  0.1032 -0.4107  0.0241
14917W        W32441   9.553   6.012   1.184 -0.0344  0.1593  0.0632
14918W        W32442  17.274  10.937   2.703  0.1391  0.1026 -0.0900
14919W        W32443   5.196   9.821  12.479 -0.0756 -0.1779  0.0275
14920W        W32444   8.581   5.649   0.658 -0.1724  0.1513 -0.0804
14921W        W32445  11.420   5.095  13.735  0.2489  0.0172 -0.1025
14922W        W32446  17.909   5.250   2.778  0.2221 -0.0922  0.1311
14923W        W32447   2.757   8.991   3.679  0.1383  0.0212  0.0039
14924W        W32448  12.901  11.291  12.404 -0.0165 -0.0257  0.0890
14925W        W32449   0.643   3.745  15.791 -0.0137 -0.3420 -0.0226
14926W        W32450  13.409  16.017  12.707  0.2170  0.1955 -0.1913
14927W        W32451  10.766  10.496   2.339 -0.0015 -0.1339  0.1338
14928W        W32452  15.909  15.354   4.758  0.1864  0.1066 -0.1085
14929W        W32453   9.823   8.271  14.112  0.0631  0.1128 -0.0795
14930W        W32454  12.149  16.314  12.066 -0.3929 -0.3837  0.1920
14931W        W32455  12.636  11.221   3.359  0.1089 -0.2456 -0.0204
14932W        W32456   8.519  11.840   4.658 -0.0667  0.1385  0.0830
14933W        W32457  17.382   9.831  14.837  0.1645  0.1640 -0.0188
14934W        W32458   0.837   6.623   2.335 -0.2733 -0.0170  0.2668
14935W        W32459   5.663   0.345  11.561 -0.0695  0.0951 -0.1458
14936W        W32460   9.546   3.787  10.651  0.0361 -0.1017  0.2302
14937W        W32461  15.768  18.090   0.749  0.0860 -0.1458  0.0495
14938W        W32462   0.065  13.978  14.004 -0.0150  0.2841 -0.0791
14939W        W32463  17.605   6.612  15.025  0.0565  0.1812 -0.0480
14940W        W32464   1.281  17.343   0.667 -0.1356  0.1530  0.0408
14941W        W32465   6.068   1.039  12.720 -0.2479  0.0817 -0.1620
14942W        W32466   2.058   5.608  13.155 -0.0532  0.0801 -0.0639
14943W        W32467   1.207  14.188   4.884  0.0079 -0.1168 -0.0461
14944W        W32468  10.479  12.542  13.002  0.3015  0.3016 -0.0106
14945W        W32469  12.459   0.189   1.905  0.3679 -0.3121  0.0343
14946W        W32470  13.283   9.206   2.321  0.1388 -0.1528  0.0875
14947W        W32471  14.246  14.396   4.633 -0.1371  0.0789  0.0783
14948W        W32472   0.149  11.085  14.040  0.0556 -0.0050 -0.2064
14949W        W32473  16.032  13.859   0.897 -0.0513 -0.0505  0.1018
14950W        W32474   3.070   0.600  12.171  0.1205  0.1864 -0.3032
14951W        W32475   0.318  15.095   4.381 -0.0494  0.0236  0.3594
14952W        W32476   6.857  12.237  11.520  0.0829 -0.0211  0.0569
14953W        W32477   4.757  10.735   5.071 -0.1868 -0.0363  0.0130
14954W        W32478   9.309  14.307   2.511 -0.0244 -0.0474  0.4100
14955W        W32479  12.873  10.820   0.002  0.2156  0.0570  0.1844
14956W        W32480   0.615   1.819  12.614 -0.2321  0.0074 -0.0595
14957W        W32481   7.331   4.294  13.569  0.1392 -0.0488 -0.2842
14958W        W32482  11.776   1.377  12.100 -0.0959  0.0563 -0.1740
14959W        W32483  12.187   9.031   1.297 -0.1817  0.2313  0.0441
14960W        W32484   8.911   2.704  15.745  0.0926  0.3674 -0.0521
14961W        W32485  15.832   3.521   2.535 -0.2230  0.0320 -0.3379
14962W        W32486   0.585  13.178  15.645  0.2666  0.1709  0.0974
14963W        W32487   3.003   5.440  10.848  0.1494 -0.0883  0.1188
14964W        W32488  10.046   4.004   1.493 -0.3081  0.2007  0.1050
14965W        W32489   1.443  13.199  15.749 -0.1918  0.0312  0.1643
14966W        W32490  11.997  12.336  15.201  0.0770 -0.2047 -0.0462
14967W        W32491   6.960   3.310  11.914 -0.2434 -0.2162  0.1430
14968W        W32492   6.236   8.135  11.783  0.1111  0.2737 -0.0895
14969W        W32493   8.369   8.395  15.085 -0.1363 -0.0630 -0.1753
14970W        W32494   7.731  13.447  13.359  0.1045  0.0271 -0.3245
14971W        W32495   2.227   5.919   1.398  0.2099 -0.1829 -0.1251
14972W        W32496   2.111  15.429   5.055  0.1780  0.2955  0.0774
14973W        W32497   2.472  14.466   4.134  0.0530  0.2714 -0.1221
14974W        W32498   5.565   2.319  15.436 -0.0679 -0.1567 -0.0807
14975W        W32499  10.246   2.463   1.546 -0.0099  0.0159  0.0779
14976W        W32500   3.554   1.756   2.740 -0.1838 -0.1444  0.1647
14977W        W32501   5.387   7.198  10.380  0.0740 -0.3108  0.1686
14978W        W32502   5.318   0.763  13.420 -0.2653  0.2134  0.1114
14979W        W32503   0.545   8.903   0.648 -0.1224 -0.2903 -0.1879
14980W        W32504  17.826  14.868  12.351 -0.1665  0.0396 -0.2660
14981W        W32505   9.757   3.165   1.674  0.4697  0.0743  0.0456
14982W        W32506   1.438   5.146   0.256  0.2073  0.1297  0.0280
14983W        W32507  13.530  10.913   5.665  0.1430  0.2692 -0.0930
14984W        W32508   1.713  16.832  13.402  0.2305  0.0895  0.0045
14985W        W32509  15.555   9.148  13.355  0.0099  0.1227 -0.1624
14986W        W32510   4.613  12.307   1.602 -0.3124 -0.2414 -0.1590
14987W        W32511  10.792   0.093   1.125  0.1918  0.0808 -0.1887
14988W        W32512   9.420   4.642   2.276 -0.0683  0.1673  0.0220
14989W        W32513   7.392  16.523  15.386 -0.1768 -0.4091 -0.2657
14990W        W32514  10.983  13.616  12.687 -0.0988 -0.0438 -0.1939
14991W        W32515   8.276   3.756  15.895 -0.0007 -0.1769 -0.1451
14992W        W32516   4.542  10.348  13.945 -0.0925  0.1015 -0.0107
14993W        W32517   4.816   6.834  14.856  0.2505  0.1769  0.1187
14994W        W32518   7.633  13.665   4.830  0.0025 -0.1178 -0.0224
14995W        W32519   1.292   4.496  11.852 -0.0599 -0.0266  0.0069
14996W        W32520  12.889  12.556   3.573  0.2219  0.2155 -0.0145
14997W        W32521   1.934   2.542  13.000 -0.2608 -0.1587  0.2114
14998W        W32522   3.349   2.360  11.464  0.1375 -0.0423 -0.0248
14999W        W32523   2.682   1.978   4.217 -0.1556 -0.0319 -0.2163
15000W        W32524   6.608  16.937  11.960 -0.3455 -0.3149  0.1984
15001W        W32525   8.833  16.811   2.064  0.1305 -0.4386  0.0677
15002W        W32526  10.564  12.289  12.486  0.1912 -0.2530 -0.0698
15003W        W32527  16.833   3.236   0.138  0.0085  0.0605 -0.0067
15004W        W32528   3.258  10.177  12.588 -0.0601 -0.0206 -0.3643
15005W        W32529  14.379  14.864  15.945  0.0119  0.1614 -0.0932
15006W        W32530   7.834  16.689  11.048 -0.2077 -0.1581  0.1367
15007W        W32531   7.757   0.218   3.150 -0.1807  0.0366 -0.1600
15008W        W32532   4.480   0.076   3.741  0.1137 -0.0909  0.1864
15009W        W32533   8.032   5.098  10.539 -0.1679 -0.1951 -0.0717
15010W        W32534  14.637  10.181   0.522  0.1562 -0.2195 -0.2790
15011W        W32535   1.062   7.218   5.816  0.0756  0.3191  0.1519
15012W        W32536   1.362   3.839   4.806  0.2690  0.0742 -0.0651
15013W        W32537  16.156   0.382  15.832 -0.2538 -0.0190 -0.0775
15014W        W32538  17.622   0.684  11.826  0.1483 -0.1522 -0.1931
15015W        W32539  12.984  16.746   2.879 -0.1623 -0.0760  0.3342
15016W        W32540  15.963  13.957   3.804  0.1085 -0.2732 -0.0687
15017W        W32541   9.768  13.497  12.235  0.2075 -0.0474  0.1796
15018W        W32542   4.597   6.313  12.297 -0.0273  0.3203  0.3224
15019W        W32543   9.843   4.715   2.535  0.1824 -0.2591  0.2254
15020W        W32544  16.960   7.015  10.933 -0.2256 -0.0558 -0.0740
15021W        W32545  10.396   9.930  12.051  0.0364  0.3153 -0.1976
15022W        W32546   8.225  11.273  13.768 -0.0134  0.0424  0.2988
15023W        W32547  13.717  16.086   1.360  0.1484  0.0843  0.1437
15024W        W32548   3.300   5.986  13.219  0.2315 -0.0874 -0.0374
15025W        W32549   9.848   4.497  12.826  0.2448 -0.1008 -0.1528
15026W        W32550  16.267   4.631  14.434 -0.1761 -0.0307 -0.2753
15027W        W32551   2.122   4.883   0.508 -0.2982  0.0943  0.1101
15028W        W32552   7.740  14.785  11.752 -0.0022  0.1078  0.2042
15029W        W32553  17.558   2.345   1.777 -0.0938 -0.2628 -0.0281
15030W        W32554  16.176  15.038   0.228 -0.0400 -0.1169 -0.0648
15031W        W32555  15.446   1.599   2.960  0.1342 -0.2086 -0.1552
15032W        W32556  13.585   7.342  13.332  0.2869  0.0653  0.0805
15033W        W32557  14.008   4.692   1.515  0.1693  0.0432  0.3569
15034W        W32558   2.800  12.021  13.986 -0.0022 -0.0501  0.2854
15035W        W32559   9.800   9.797   0.268 -0.1620 -0.3581 -0.0959
15036W        W32560  12.536   6.278   3.489 -0.3436 -0.1078 -0.3761
15037W        W32561   1.889  10.230   4.518 -0.0195  0.0756  0.0577
15038W        W32562  14.075  15.422   2.715  0.1415  0.2638 -0.0192
15039W        W32563   5.441  14.928  11.846 -0.0157  0.0631 -0.0365
15040W        W32564   2.366  11.376   3.824  0.3404  0.1040 -0.1759
15041W        W32565   7.480  13.081   1.843 -0.0533 -0.0569 -0.3710
15042W        W32566   3.432   5.817   3.938  0.2990 -0.3867 -0.1605
15043W        W32567   3.753  16.231   3.713 -0.2428 -0.0113  0.0500
15044W        W32568  16.757  10.890  15.187 -0.0131  0.1755  0.0198
15045W        W32569   4.461   4.236  15.084 -0.3764  0.2320 -0.2265
15046W        W32570  18.126   3.844   0.956 -0.0483 -0.0549 -0.3901
15047W        W32571   3.959   4.933  11.864  0.1493 -0.1971  0.0993
15048W        W32572   4.172   3.235   1.387 -0.0927  0.1662 -0.1972
15049W        W32573  17.149  13.218   1.190  0.1090  0.0525 -0.2492
15050W        W32574  12.650  17.497   4.176  0.1416 -0.5044  0.2192
15051W        W32575   4.644  10.284   0.786  0.1968 -0.0949 -0.2659
15052W        W32576   8.057   7.253  12.856  0.1290 -0.1619 -0.1254
15053W        W32577   4.370  15.102  13.397  0.0910 -0.1500  0.0716
15054W        W32578   3.477   8.963  14.924 -0.0439  0.0699 -0.1408
15055W        W32579  14.353   3.580   2.404  0.2520  0.3066 -0.2804
15056W        W32580  17.003  10.122  12.474 -0.0335 -0.0738 -0.3033
15057W        W32581   8.020  13.838  13.482 -0.0185  0.1315  0.1777
15058W        W32582  15.780  17.716  15.074 -0.1286 -0.2177  0.1093
15059W        W32583   4.006   8.768   0.951 -0.3185 -0.1098  0.0124
15060W        W32584   1.225   8.715  14.178  0.1963 -0.2150 -0.1012
15061W        W32585   7.622   2.169   2.470 -0.0011 -0.3071  0.0548
15062W        W32586  14.509  11.379   3.285  0.0079 -0.0527  0.0078
15063W        W32587   4.569  12.277   0.643 -0.0174 -0.0399  0.1086
15064W        W32588  14.789  18.105  11.339 -0.0343  0.1143 -0.3195
15065W        W32589  13.900   1.682   4.760 -0.4157  0.2567  0.0820
15066W        W32590   4.737   6.823  15.944  0.1643 -0.1210 -0.2280
15067W        W32591   3.565  13.978  15.442 -0.0145  0.3342  0.1211
15068W        W32592  10.244   5.088  14.936 -0.1309  0.0206  0.3626
15069W        W32593  10.605   6.004  15.148  0.1957 -0.0546  0.1106
15070W        W32594  16.230  12.747   2.556 -0.0421  0.0055  0.0628
15071W        W32595   1.061  15.010  11.457  0.0956 -0.2845 -0.0597
15072W        W32596  17.688  12.547   5.202 -0.0094 -0.2908 -0.1994
15073W        W32597   3.628  15.459  15.559 -0.0741 -0.4007  0.1018
15074W        W32598   7.403   3.443   0.969  0.0203 -0.3426  0.2847
15075W        W32599   6.805  13.386  15.664  0.1429  0.1810  0.1141
15076W        W32600   3.285   4.697   3.904  0.2160 -0.3042  0.0137
15077W        W32601   9.362  14.153  11.744  0.0761 -0.0550  0.2691
15078W        W32602   5.946  12.782  11.949 -0.1596 -0.0713  0.0394
15079W        W32603  12.053  14.534  12.484 -0.0408 -0.0356 -0.0930
15080W        W32604  14.747  16.927   0.147  0.2470  0.0474  0.1023
15081W        W32605   9.907  12.900   4.127  0.1140  0.1685  0.1583
15082W        W32606   4.281   7.992   2.048 -0.3719  0.0717  0.1366
15083W        W32607   8.784   5.474  14.681 -0.0657 -0.0080 -0.0013
15084W        W32608   2.166  16.709  13.312 -0.1161 -0.0387 -0.1242
15085W        W32609   2.328  14.047   0.144 -0.1795 -0.1927  0.1826
15086W        W32610  11.811   3.189   0.722  0.5462 -0.1816  0.2207
15087W        W32611   8.658   8.003   5.588 -0.0249  0.0204  0.0805
15088W        W32612   7.554   7.831  15.187  0.3342 -0.0222  0.0618
15089W        W32613   6.829  12.219   3.722  0.0501 -0.0277  0.2085
15090W        W32614  15.932   2.184   2.947 -0.0161  0.1064  0.5715
15091W        W32615   8.175   0.882   3.771 -0.0626  0.0636 -0.0255
15092W        W32616  11.815   0.577   1.394 -0.3349 -0.2150  0.0248
15093W        W32617  14.887  14.291  10.344 -0.0068 -0.1762  0.2626
15094W        W32618  14.637  11.555   1.051 -0.3489 -0.0208  0.1221
15095W        W32619   3.452   4.521   0.103 -0.2316 -0.3423 -0.1358
15096W        W32620  17.339   8.376   2.731 -0.2841  0.0856 -0.2174
15097W        W32621   4.561   3.545   4.591  0.1766  0.2426 -0.2818
15098W        W32622  10.956   2.984   3.682  0.0478 -0.1626  0.2618
15099W        W32623   4.417   4.716  15.014  0.0019 -0.0434 -0.0076
15100W        W32624  17.995  11.200   2.091 -0.3255 -0.2685  0.1791
15101W        W32625   7.387  13.769  15.116 -0.0891 -0.2922  0.0677
15102W        W32626   3.819   4.812  15.681  0.0599  0.1080  0.1567
15103W        W32627   3.757  16.229   2.641 -0.0790 -0.0065 -0.1498
15104W        W32628   0.933   8.263   4.267 -0.3016 -0.0594  0.0486
15105W        W32629   6.599   5.511  13.683 -0.3020 -0.2347  0.0287
15106W        W32630  10.181  10.967   3.512  0.0144  0.0413 -0.0459
15107W        W32631  11.357   4.846  11.222 -0.0419  0.0648 -0.1362
15108W        W32632   6.263   1.501   3.399 -0.0328 -0.0272 -0.1684
15109W        W32633   4.770  10.588   4.121  0.2955  0.0862 -0.0166
15110W        W32634   6.369   2.445   1.732 -0.1608 -0.0042  0.1546
15111W        W32635  15.993   9.675   2.695 -0.0782 -0.1541 -0.1216
15112W        W32636   7.304   3.105  11.476 -0.0684  0.0826  0.1898
15113W        W32637  10.318   2.934   2.263 -0.2132 -0.0320 -0.1867
15114W        W32638   7.415  11.194   3.227 -0.0683 -0.0387  0.4881
15115W        W32639   3.572   7.304  13.418  0.5056 -0.0883 -0.1145
15116W        W32640  17.176   7.494  13.539 -0.0030  0.0907  0.1337
15117W        W32641  15.973   0.794   4.243 -0.0174  0.0926 -0.0622
15118W        W32642  10.691   8.424  14.287  0.1656  0.0070 -0.1003
15119W        W32643  14.494   8.250   0.541  0.2377 -0.4409 -0.0647
15120W        W32644   3.451  12.183   4.057  0.1511  0.0400 -0.0972
15121W        W32645   2.098  13.137  13.363 -0.2382  0.1528 -0.0212
15122W        W32646  10.911  16.931   0.767  0.1660 -0.1631 -0.0024
15123W        W32647  12.512   2.521  13.882 -0.0233 -0.0317  0.0529
15124W        W32648   7.404   1.433   4.719  0.0647  0.0926 -0.3129
15125W        W32649   8.561  15.965  12.119 -0.2690 -0.2212 -0.1274
15126W        W32650  10.109  15.998   0.942  0.1954  0.2177  0.0789
15127W        W32651   7.912  12.076  16.037  0.1840  0.3048 -0.2905
15128W        W32652   3.965   4.428   2.485  0.0471  0.1382 -0.1248
15129W        W32653  14.894  13.823  15.315 -0.2447 -0.1819  0.0167
15130W        W32654   3.919  15.804  14.448  0.0810 -0.1590  0.1398
15131W        W32655   6.359   5.904   1.228 -0.1724  0.0030  0.1143
15132W        W32656  10.289   7.990  15.121 -0.3309  0.1477  0.1610
15133W        W32657   1.204   5.401   4.262  0.0596 -0.0528 -0.0459
15134W        W32658  14.924   9.600  14.720 -0.0239  0.1013  0.2091
15135W        W32659   3.263   3.220   2.548 -0.1389 -0.0769  0.1248
15136W        W32660   9.995   7.713  13.612  0.1384  0.2774 -0.0780
15137W        W32661   4.337   8.634  14.475  0.3327  0.1058 -0.0259
15138W        W32662  13.659  11.713   4.860  0.3214 -0.1088  0.3000
15139W        W32663  12.336  15.547   1.951  0.4514 -0.0394  0.0403
15140W        W32664   7.834   5.085   2.676 -0.1664 -0.2311 -0.1468
15141W        W32665   1.684   7.477   3.210 -0.1257 -0.1353 -0.3614
15142W        W32666   7.652   2.962   1.763 -0.0060 -0.2158  0.5155
15143W        W32667   2.154  10.036   0.986  0.0642  0.3967  0.4308
15144W        W32668   5.112   0.770   0.617 -0.2383  0.2404 -0.0706
15145W        W32669   7.878   0.924   0.815 -0.3096  0.0708  0.0319
15146W        W32670  12.673   4.820  12.970  0.2572 -0.0451  0.3547
15147W        W32671  15.484  12.472  14.391  0.1409  0.0924 -0.0319
15148W        W32672   8.266   3.403  14.501  0.0779  0.3486 -0.0182
15149W        W32673  15.143   3.354   1.978  0.1609 -0.0643  0.2159
15150W        W32674   5.954   5.445   2.470  0.1921  0.0875  0.0023
15151W        W32675  11.280   3.764  13.613 -0.0636  0.0370  0.2454
15152W        W32676  12.217   6.301   0.952  0.0833 -0.1328 -0.3413
15153W        W32677  17.229   7.194   0.956  0.0948  0.0392 -0.0501
15154W        W32678   6.265  15.604   3.560 -0.1083  0.0300  0.2936
15155W        W32679   9.246   9.102  12.029  0.2628  0.2392 -0.2267
15156W        W32680  11.505  10.727   0.217 -0.3340 -0.1681 -0.0351
15157W        W32681  15.101   6.356   3.718 -0.2435  0.4184 -0.0602
15158W        W32682  12.225  15.617   2.428 -0.1094 -0.3225 -0.2420
15159W        W32683  10.336   7.740   0.272 -0.2628 -0.1783 -0.0919
15160W        W32684   0.362  13.821  12.821  0.1423 -0.1250 -0.5025
15161W        W32685  10.405  13.784  12.708  0.1333 -0.2178  0.0672
15162W        W32686   9.734   4.022  13.403 -0.0903 -0.3004  0.1545
15163W        W32687   1.990   2.365   5.944 -0.0490  0.0935 -0.0042
15164W        W32688   9.477  13.962   3.519 -0.0732  0.1233 -0.2676
15165W        W32689  13.730  17.861   3.449 -0.1947 -0.1608 -0.2667
15166W        W32690   1.632   8.017   3.328  0.0616  0.0858 -0.1088
15167W        W32691   9.719  14.099   0.917  0.1167  0.1276  0.0902
15168W        W32692  14.494  12.134  11.722  0.2033  0.2289  0.1527
15169W        W32693   4.570   0.482  15.315 -0.2793  0.2947 -0.0600
15170W        W32694   0.219  14.537   3.624  0.1590  0.1830 -0.2012
15171W        W32695   0.617   0.360  15.338  0.1194 -0.0154 -0.1459
15172W        W32696   1.319   1.299   0.594 -0.1031 -0.1569  0.0774
15173W        W32697  13.195   6.902  11.313  0.0146 -0.0103 -0.2548
15174W        W32698   5.548   2.362   4.134  0.0706 -0.1931  0.0884
15175W        W32699  16.072   4.410  10.829 -0.4148  0.1090 -0.1409
15176W        W32700  11.386   2.861  13.775  0.2157 -0.0970  0.0473
15177W        W32701   9.953  11.625   0.129 -0.0665 -0.3692 -0.0864
15178W        W32702  15.732   4.568  13.668  0.1062 -0.1051  0.2347
15179W        W32703  14.235   6.538  11.239  0.5038  0.0089  0.0117
15180W        W32704   4.185  12.966   1.531 -0.2855 -0.0603  0.1789
15181W        W32705  17.094  16.326   4.770  0.1289  0.0743  0.0203
15182W        W32706   1.213   3.637  11.110  0.1813  0.1074 -0.3121
15183W        W32707  10.680   1.911  15.229  0.0527  0.4326  0.1119
15184W        W32708  17.419  13.250  11.278 -0.1586  0.1508 -0.2600
15185W        W32709  13.276   4.728   1.056  0.0929  0.1601  0.0145
15186W        W32710  13.288  15.991  15.182  0.1861  0.0117  0.0783
15187W        W32711   4.007  17.153  16.009  0.1322 -0.1591 -0.1150
15188W        W32712   9.230  17.209  14.158  0.2944  0.2323 -0.2182
15189W        W32713   0.138   9.286   0.036 -0.0649  0.2038  0.1197
15190W        W32714   2.488  10.547   2.007  0.0103 -0.1197  0.2814
15191W        W32715   7.550  16.815   4.378 -0.1574 -0.2127  0.0989
15192W        W32716  14.274   5.547   4.522  0.3717 -0.2919 -0.0152
15193W        W32717   4.296   8.273  12.616 -0.1842  0.2124 -0.0786
15194W        W32718  16.665  17.307   3.385 -0.1621 -0.0923 -0.0819
15195W        W32719   7.668  11.249  15.074 -0.0282  0.2302  0.1907
15196W        W32720  12.048  13.584  14.050 -0.2824 -0.0002  0.2702
15197W        W32721   1.314   3.283   0.895  0.0684  0.0655 -0.2976
15198W        W32722  14.480  14.085  14.390  0.3894  0.1040 -0.1326
15199W        W32723   6.208   4.360   2.728 -0.1472 -0.2116 -0.0089
15200W        W32724   0.366  16.331  13.318 -0.2287 -0.0347 -0.1213
15201W        W32725   1.607   4.139  12.145 -0.1816  0.0265 -0.0751
15202W        W32726  11.216   9.466   2.870  0.0914 -0.0215  0.0962
15203W        W32727   3.753   2.698   3.113  0.3547  0.0443 -0.0875
15204W        W32728   5.234   5.527   0.796 -0.0645 -0.1973 -0.1297
15205W        W32729  16.234   2.118  15.665 -0.2181 -0.3236 -0.4365
15206W        W32730   6.469  13.444   2.578  0.0701 -0.1362 -0.0232
15207W        W32731   6.405  14.926   2.545  0.0529 -0.0487 -0.0392
15208W        W32732  14.921   8.009   0.629 -0.0765 -0.1495  0.1319
15209W        W32733  15.542   2.169   0.624  0.3339  0.0341 -0.2760
15210W        W32734   3.002   2.434  12.952 -0.0116  0.1419  0.0229
15211W        W32735  12.761   9.392   0.150  0.3737  0.0667 -0.1270
15212W        W32736  17.771   0.755   4.625 -0.1078 -0.1651  0.1676
15213W        W32737  15.957   6.850  14.573 -0.0966 -0.1239  0.0601
15214W        W32738  15.734  17.079  14.469  0.2603  0.3070 -0.2121
15215W        W32739   7.185   5.623   2.835 -0.0172 -0.1220 -0.0043
15216W        W32740  16.946   5.574   4.447  0.1079 -0.0651 -0.2749
15217W        W32741  14.672   8.622  14.881  0.3282 -0.1862  0.1966
15218W        W32742   7.968   1.688  15.299 -0.1432 -0.0732  0.0178
15219W        W32743   8.537   7.108   4.459 -0.2329 -0.5398 -0.1574
15220W        W32744   6.183   3.235   3.627 -0.0921  0.1462 -0.2863
15221W        W32745   5.740   5.669   4.695  0.2485  0.1485 -0.1193
15222W        W32746  17.048  13.744  14.812 -0.0481 -0.1185  0.0645
15223W        W32747   2.809   0.747   3.999 -0.3405  0.1057 -0.0993
15224W        W32748   7.516  11.929   0.395 -0.0711  0.2684  0.0131
15225W        W32749  16.104  12.374   2.834  0.0672 -0.2227 -0.0715
15226W        W32750  15.784  13.451   2.954  0.0154 -0.2136 -0.0954
15227W        W32751  15.608   8.198   1.976 -0.0209  0.1321  0.1069
15228W        W32752  14.096   7.974   3.562 -0.1898 -0.2378 -0.1636
15229W        W32753  15.330   3.597   0.822 -0.2324  0.1127  0.0641
15230W        W32754   6.255   3.324   5.345 -0.2305 -0.0260 -0.0237
15231W        W32755   8.452   5.361  10.578  0.0714  0.2370 -0.0052
15232W        W32756   9.368  15.452  12.598 -0.2135 -0.0952 -0.0896
15233W        W32757  17.797  15.661  14.530 -0.1046 -0.2002  0.0275
15234W        W32758   3.120  15.021  15.803  0.1842  0.0051 -0.2730
15235W        W32759  10.852   7.687  13.602  0.0065  0.1580  0.3162
15236W        W32760  17.697  12.012   1.835  0.4453 -0.0705 -0.0551
15237W        W32761   4.057  11.166   3.954 -0.0052 -0.0160 -0.0944
15238W        W32762   2.702   5.124   1.183 -0.2939 -0.0540 -0.0259
15239W        W32763  14.945  13.774  11.547  0.0796  0.0579 -0.1452
15240W        W32764  10.812  17.684  15.797  0.3509  0.1199 -0.2147
15241W        W32765   2.160  16.426   0.899  0.1167  0.2349  0.1127
15242W        W32766  12.675  10.183  15.709  0.0587  0.0411 -0.2863
15243W        W32767  16.411  11.365   0.210 -0.0322 -0.2572 -0.0170
15244W        W32768  11.943  14.627  15.778  0.1306  0.1983 -0.3200
15245W        W32769  14.981  10.826   2.554  0.0918 -0.1678  0.3084
15246W        W32770   5.573  17.096  15.764 -0.2323 -0.3436  0.0077
15247W        W32771  12.117  12.210  12.991 -0.2490 -0.0170  0.0103
15248W        W32772   4.855   0.421   0.173 -0.1609  0.1116  0.0937
15249W        W32773   3.704  13.348  13.541  0.1049  0.1010  0.0799
15250W        W32774   5.251  15.749   4.691  0.0422 -0.2110 -0.0024
15251W        W32775  16.868  14.182  14.604  0.2027 -0.0831  0.2083
15252W        W32776   1.493   5.177   2.800  0.3040 -0.1619 -0.1983
15253W        W32777  14.206   8.119  11.991 -0.2517 -0.1259 -0.1988
15254W        W32778  13.143  17.068  11.935 -0.1419 -0.1040  0.1758
15255W        W32779   3.379  17.467  13.374 -0.2314 -0.1296 -0.2670
15256W        W32780  11.317   5.526   1.182  0.0409  0.2429 -0.2570
15257W        W32781   2.096   7.602  12.276  0.2399 -0.1045  0.3226
15258W        W32782   7.474  12.446   4.724  0.0112 -0.0059  0.0492
15259W        W32783   5.669  15.077  13.118 -0.0253 -0.0828  0.0576
15260W        W32784   6.606   4.382   3.027 -0.2683  0.0978  0.1333
15261W        W32785   6.372   9.112  13.906 -0.0229  0.0735 -0.4067
15262W        W32786  14.054   0.034  12.170  0.2515 -0.3412 -0.1964
15263W        W32787  15.168   4.655   1.845 -0.3053  0.1179 -0.2766
15264W        W32788  14.629  11.299  14.673 -0.1318  0.5360  0.3701
15265W        W32789  17.311  12.885   0.425  0.2506  0.1608  0.2386
15266W        W32790  17.474  17.162   2.968 -0.2402  0.1598  0.0010
15267W        W32791   2.278  17.542  13.164  0.1568  0.0651  0.0937
15268W        W32792  13.367  16.100   4.458  0.1271 -0.0909  0.2283
15269W        W32793  11.406   1.147   1.867 -0.0834 -0.1323  0.3296
15270W        W32794  10.399   7.557  13.350 -0.1203  0.0887 -0.0983
15271W        W32795  13.889   1.821   0.964  0.2319 -0.0531  0.1265
15272W        W32796   3.058   7.274  13.541 -0.1088 -0.1210 -0.0585
15273W        W32797   4.416   5.393   0.116  0.0130 -0.0578 -0.0749
15274W        W32798  14.519   6.058  12.390 -0.3673  0.0353  0.1377
15275W        W32799   9.082  12.210   0.906  0.2400  0.1318  0.1036
15276W        W32800  15.098   3.398   2.922 -0.0604  0.2446  0.0541
15277W        W32801   8.565   1.621  13.432  0.0244  0.0080 -0.0392
15278W        W32802  13.175   3.617  11.375  0.1593  0.1241 -0.2082
15279W        W32803   6.663  11.967  12.481  0.2496  0.1931  0.1010
15280W        W32804  14.284   4.508   0.152 -0.0291 -0.2477  0.0158
15281W        W32805  10.600   0.844   1.983 -0.2837  0.0918  0.1200
15282W        W32806  14.706  11.097  13.027 -0.0963 -0.0952 -0.1200
15283W        W32807   6.796  13.388   4.446  0.0685  0.0738  0.2089
15284W        W32808  14.782   2.657   3.563  0.3899  0.3610 -0.2911
15285W        W32809  15.913  11.848   2.560 -0.2010 -0.2591 -0.0053
15286W        W32810  17.283  12.986   4.286  0.2814 -0.0799  0.0085
15287W        W32811   8.846  15.165   2.164 -0.0021 -0.2768  0.0283
15288W        W32812   3.449  13.774   1.060 -0.1897  0.0200  0.1083
15289W        W32813   4.521  17.367  12.857  0.2898  0.4445  0.0851
15290W        W32814   5.434  12.570   2.916  0.1903  0.0741  0.1163
15291W        W32815   3.352  16.977   4.050  0.3409  0.1500  0.1042
15292W        W32816   0.227  12.492  12.739 -0.0707  0.2404 -0.0826
15293W        W32817   9.102  11.463   1.412 -0.1196 -0.1641 -0.0826
15294W        W32818  17.697  12.551   2.408 -0.0838 -0.3498 -0.1458
15295W        W32819   0.856  12.051   1.914 -0.0507  0.3727  0.0557
15296W        W32820   3.564  14.977  15.584 -0.2413  0.3281  0.1154
15297W        W32821   4.081  17.881  12.184 -0.0337 -0.2854  0.2177
15298W        W32822   1.353  12.511   0.483  0.0676  0.1549 -0.0693
15299W        W32823  11.007   1.242  12.028  0.1368 -0.0212 -0.3900
15300W        W32824  10.267   4.988   2.573  0.1321  0.0201 -0.2412
15301W        W32825  17.431  11.214   5.522  0.0012  0.0103 -0.0573
15302W        W32826  14.823  15.402   0.111  0.1060  0.0539  0.1320
15303W        W32827  10.046   7.950  13.033  0.1739 -0.1248  0.1831
15304W        W32828   3.140   0.624  11.383 -0.2540 -0.0755  0.0276
15305W        W32829  11.238   6.122   4.662  0.2273  0.0175  0.3068
15306W        W32830  10.817  12.893  15.963  0.3602 -0.0402 -0.1463
15307W        W32831   1.135   1.735  12.451  0.0107 -0.1955 -0.0155
15308W        W32832  10.735   8.323  11.789 -0.1222 -0.1674  0.2639
15309W        W32833  15.674   6.117  10.991 -0.2536  0.0211  0.1069
15310W        W32834  14.337   2.218  12.650 -0.2366 -0.0951 -0.1329
15311W        W32835   2.562  13.490   3.124 -0.1639 -0.0901 -0.5716
15312W        W32836   7.047   8.366  14.715  0.1782 -0.3280 -0.3090
15313W        W32837   4.036   4.736   5.434 -0.0179 -0.1387  0.1899
15314W        W32838  17.372  17.248  13.452  0.4490 -0.3156 -0.4272
15315W        W32839   4.553  12.084   4.217 -0.1828  0.0270 -0.0403
15316W        W32840  17.901   0.888   3.608 -0.0374  0.3228  0.0316
15317W        W32841   3.216  12.905  14.911  0.0714  0.0707 -0.2072
15318W        W32842  13.125   0.850   2.873  0.3835 -0.0825  0.2540
15319W        W32843   0.490   3.426   4.459 -0.1434 -0.2015  0.1797
15320W        W32844   5.165   3.153   3.343  0.2659 -0.1861  0.0886
15321W        W32845  13.172   9.966  11.796 -0.1492 -0.1302 -0.0944
15322W        W32846  15.024  12.421   0.404 -0.0939 -0.0186  0.0056
15323W        W32847   1.809   4.779   1.134  0.0925 -0.0909 -0.0444
15324W        W32848  14.758   7.541   4.267 -0.0402 -0.1561  0.0595
15325W        W32849   6.990  14.045  12.243  0.0505 -0.0946  0.1558
15326W        W32850   3.033  17.052   3.106  0.0894 -0.1861 -0.4058
15327W        W32851  10.069  14.372  12.846  0.1393  0.0726 -0.0720
15328W        W32852  16.580  18.103   2.758  0.1271 -0.3537  0.1092
15329W        W32853   1.869  17.100   0.363 -0.1442 -0.2056 -0.1844
15330W        W32854   5.317   7.021   1.362  0.2029 -0.1124  0.1835
15331W        W32855   0.946  11.020  11.740 -0.2463  0.0704  0.0717
15332W        W32856   0.616   7.257  13.240 -0.0909  0.2393  0.0019
15333W        W32857  17.275  13.720  12.874  0.0164 -0.0606 -0.2230
15334W        W32858  10.969   3.753  15.665 -0.1896 -0.0086 -0.2278
15335W        W32859   8.873   0.622  12.938  0.0741  0.2908  0.2399
15336W        W32860   3.480   5.703  14.399 -0.1515  0.1726 -0.0342
15337W        W32861   0.624   4.456   3.406 -0.2877  0.1566 -0.0013
15338W        W32862   0.204  16.960   2.040  0.0086 -0.2325  0.1297
15339W        W32863   8.030  11.706  14.123 -0.0433  0.3559 -0.1535
15340W        W32864   7.512   9.142   1.493 -0.1964  0.0377 -0.0257
15341W        W32865  14.877   4.170   4.468 -0.2900 -0.3223  0.0029
15342W        W32866  10.031  13.613   0.946  0.2189  0.2015 -0.1016
15343W        W32867  17.592   0.085   3.111 -0.0185 -0.1271  0.1990
15344W        W32868   6.428  10.570  11.758 -0.0660  0.0046  0.0182
15345W        W32869   7.261   6.455  12.040 -0.0882  0.1378  0.0731
15346W        W32870   4.411  12.369   2.396  0.0887  0.1846 -0.0638
15347W        W32871  18.125   9.577   3.088 -0.0760 -0.0283  0.1838
15348W        W32872   4.132   5.879  10.912  0.2058 -0.1062 -0.1684
15349W        W32873   0.150  12.975  12.497 -0.1375 -0.2523 -0.0968
15350W        W32874  12.192  15.177   0.251  0.2846 -0.0257  0.0044
15351W        W32875  10.043   2.162   4.566 -0.2640 -0.1944 -0.0521
15352W        W32876   9.716   3.862  11.197 -0.0505  0.0700  0.0872
15353W        W32877   0.485   5.338   1.406 -0.2288  0.1262 -0.1245
15354W        W32878  16.422  12.377   5.231 -0.1803 -0.1383 -0.0672
15355W        W32879   2.581  11.420   0.369  0.1554  0.2223  0.0255
15356W        W32880  16.895  16.971   3.625 -0.0629 -0.1847  0.1668
15357W        W32881  12.553  16.785  13.377 -0.3277  0.1503  0.0787
15358W        W32882   2.878  16.142  13.028  0.3187 -0.0865  0.1981
15359W        W32883  16.480  13.396   5.879 -0.4758 -0.2616  0.1355
15360W        W32884   2.211   5.442   4.536  0.0043 -0.0632  0.0267
15361W        W32885   3.413   2.383  13.662  0.0112  0.3575  0.1136
15362W        W32886   7.459   4.554  10.879  0.0423 -0.0264  0.2630
15363W        W32887  14.399  15.184   1.719  0.1957  0.1284 -0.1836
15364W        W32888   1.020   8.858  11.978  0.1938 -0.1030  0.0405
15365W        W32889   4.717   5.563  11.634 -0.1178 -0.1079 -0.3613
15366W        W32890  12.374   0.113   1.020 -0.2206  0.0458  0.3276
15367W        W32891   9.029   8.623  14.376  0.1329  0.1974  0.0160
15368W        W32892  17.256   7.408  12.166  0.1099 -0.3466  0.0454
15369W        W32893   4.019   0.642   1.407 -0.2513 -0.1779 -0.2325
15370W        W32894  13.200  16.779   5.469 -0.0317  0.0278  0.0744
15371W        W32895  16.022  12.582   3.412  0.3100 -0.0503 -0.1523
15372W        W32896   1.011  13.324  15.392 -0.0324 -0.3243 -0.2388
15373W        W32897  15.374   6.748  13.604  0.1207  0.1381  0.1176
15374W        W32898   9.851   6.163  14.272 -0.0726 -0.1775  0.1236
15375W        W32899  10.931   5.859   2.727  0.2961  0.2825 -0.0782
15376W        W32900  16.781  15.606  14.527 -0.1885  0.0424  0.1580
15377W        W32901   7.293   6.653  11.022  0.3564 -0.0361  0.2172
15378W        W32902  17.290   4.809  12.511 -0.3701  0.3517 -0.0741
15379W        W32903   5.011  17.187  11.446 -0.1087 -0.2398  0.2542
15380W        W32904   2.740  11.107   3.606 -0.1255  0.2585 -0.1274
15381W        W32905  17.322   0.508  15.867 -0.0898  0.0868  0.1799
15382W        W32906   7.076   3.510  11.394  0.1132  0.3785  0.2901
15383W        W32907   2.227   5.494   2.307 -0.0627  0.1476 -0.2028
15384W        W32908  14.071   8.747  12.612 -0.0781  0.2495  0.0337
15385W        W32909   8.397   7.367   3.539 -0.2834  0.2565 -0.1680
15386W        W32910   8.149   4.990   0.458 -0.0762  0.0023  0.0194
15387W        W32911   6.009   1.941   3.432  0.0384  0.1424  0.0651
15388W        W32912  10.723   9.651  12.362 -0.2525 -0.0884  0.1041
15389W        W32913  14.755   0.783  15.530 -0.0734  0.1007  0.2129
15390W        W32914   0.372  14.395   5.095  0.2265 -0.0831 -0.1571
15391W        W32915  16.145  15.301   3.737 -0.1006 -0.0325  0.0400
15392W        W32916  14.816  16.717   0.605 -0.0981 -0.1533  0.1585
15393W        W32917   3.931   0.261  14.765 -0.0002 -0.1894  0.0731
15394W        W32918   8.806  12.156  15.041  0.1931  0.0750  0.2670
15395W        W32919  17.468  12.265   0.279  0.2630  0.0600  0.1744
15396W        W32920  17.245  16.363   6.126  0.1278  0.1019 -0.1238
15397W        W32921  16.882  12.934  13.124 -0.0328 -0.1434 -0.0394
15398W        W32922  15.687  17.524  11.228 -0.1999  0.0590 -0.1190
15399W        W32923  11.769   9.368   4.020  0.3435 -0.0320 -0.2887
15400W        W32924   0.784  17.566   1.697 -0.1292  0.1644 -0.3294
15401W        W32925  17.903   1.536  12.154 -0.1955  0.1945  0.1168
15402W        W32926  16.920   8.545  11.825  0.1248 -0.1733  0.1179
15403W        W32927  11.346   7.204   2.329 -0.1369 -0.2280  0.1020
15404W        W32928  16.160  16.943  14.273  0.0746  0.0134  0.0985
15405W        W32929   0.994   6.189  12.638 -0.0335 -0.2450  0.0996
15406W        W32930  15.932   2.423  15.233  0.3190  0.0260  0.0495
15407W        W32931   7.583  10.438   1.996 -0.0483 -0.0247 -0.3001
15408W        W32932   7.636   7.620  11.357  0.0245 -0.1730  0.0434
15409W        W32933  16.985   4.321  13.132 -0.4088  0.3270  0.0525
15410W        W32934  10.998   4.648  15.266  0.0784 -0.1000 -0.4403
15411W        W32935  11.961   7.465   0.048  0.1662 -0.1834 -0.2574
15412W        W32936   0.153   8.972   2.383  0.0458  0.0520  0.1590
15413W        W32937   9.705   9.409   4.615  0.0567  0.0137 -0.0997
15414W        W32938   9.594  14.857   0.169  0.1185  0.0176  0.1708
15415W        W32939  17.186  12.867   3.241  0.3575  0.1517  0.1147
15416W        W32940  11.998   9.111  11.624  0.0763  0.0950 -0.1924
15417W        W32941  11.440  15.129  14.134  0.0131  0.0387  0.1140
15418W        W32942  12.413  10.389  12.441 -0.0333  0.1143  0.0024
15419W        W32943   9.979  14.951  12.999  0.0409 -0.2996  0.1042
15420W        W32944   8.613   4.398  11.097 -0.2746  0.1897 -0.0810
15421W        W32945  12.550   5.721   0.200  0.3109  0.1856  0.1857
15422W        W32946  13.378  17.340   0.019 -0.1141 -0.2266  0.0028
15423W        W32947   6.090   9.326   0.359 -0.3578  0.0005 -0.0421
15424W        W32948  11.382   0.311   0.874 -0.0854  0.2902  0.2596
15425W        W32949  12.156  10.704   4.601  0.0516 -0.3099 -0.1271
15426W        W32950  17.730   4.980   4.894 -0.0741 -0.0074 -0.0508
15427W        W32951   7.442  11.541  11.064 -0.2848 -0.0872  0.0438
15428W        W32952   6.104   3.321  15.673 -0.2552 -0.0050  0.1038
15429W        W32953  16.044   4.870  15.382 -0.1585  0.1684 -0.0505
15430W        W32954   7.664   5.481  15.539  0.2106  0.2039  0.0336
15431W        W32955  16.565   2.668   2.731 -0.2048 -0.4094 -0.1280
15432W        W32956  13.057  11.657  12.698  0.0112  0.1880  0.2926
15433W        W32957   7.498   1.843   5.056 -0.1254 -0.0723 -0.0998
15434W        W32958   1.846   1.969   2.664  0.0007 -0.1042  0.2456
15435W        W32959   8.477   2.531  11.955 -0.1532 -0.2459  0.1165
15436W        W32960   4.797   2.691   0.104 -0.3147  0.0047 -0.0566
15437W        W32961  12.820   8.276  13.796 -0.2134  0.4586 -0.1312
15438W        W32962  17.682  16.204  14.499  0.2088 -0.0452 -0.1316
15439W        W32963   5.336  12.687   0.221 -0.2013  0.2721 -0.2809
15440W        W32964  17.008  15.072  15.100  0.0242 -0.0106 -0.0983
15441W        W32965  13.272   5.882   4.355  0.0101 -0.0172 -0.1997
15442W        W32966  10.822   9.193  14.236 -0.0211 -0.0366  0.0081
15443W        W32967  17.003  14.639   1.129 -0.1738 -0.0620  0.1288
15444W        W32968  14.973   6.125   0.447 -0.1346 -0.1017  0.1381
15445W        W32969  10.589   4.051  11.835  0.3475 -0.1392  0.0161
15446W        W32970  17.695   1.755  12.899 -0.1735  0.2582  0.0767
15447W        W32971   2.323   4.932   2.328 -0.0837 -0.2330 -0.0792
15448W        W32972  11.223   9.796   5.898  0.2995 -0.3132  0.1633
15449W        W32973  11.571  13.067   2.657 -0.1110 -0.1481 -0.0843
15450W        W32974  14.623  10.432  13.074  0.4208  0.1721 -0.2844
15451W        W32975   5.651   6.399  12.684 -0.1333  0.0714  0.1870
15452W        W32976  15.800  15.835   1.327  0.0138 -0.0594  0.0033
15453W        W32977   1.460   6.288   1.764  0.1307  0.2479  0.0499
15454W        W32978   4.133  12.998   4.158  0.1380  0.0753 -0.0656
15455W        W32979   5.282   0.604   2.701 -0.1316  0.0571  0.0258
15456W        W32980  14.037   4.813  14.645 -0.3527  0.0351  0.2386
15457W        W32981   2.147  15.520   1.071  0.0576  0.0694 -0.1025
15458W        W32982   9.848   7.028  15.209  0.2309  0.1021 -0.2035
15459W        W32983   1.244  16.765  13.631 -0.0922 -0.2320 -0.2886
15460W        W32984   6.064   9.909  13.290  0.2658 -0.0249  0.4153
15461W        W32985   0.357   4.399   1.544  0.3306 -0.4093 -0.1813
15462W        W32986   3.905   2.401  13.284  0.0082 -0.2739  0.0360
15463W        W32987  17.618  17.181   6.173 -0.4338 -0.1947 -0.0552
15464W        W32988  15.529  14.438   2.198 -0.2333  0.1366 -0.1264
15465W        W32989  10.056   4.295  12.432  0.0142 -0.0690  0.2069
15466W        W32990   5.117  13.137   0.137 -0.2363  0.3493  0.0353
15467W        W32991  17.660   5.719  15.701  0.1397 -0.3331  0.0099
15468W        W32992  10.307   5.927   0.249  0.2498  0.2497 -0.1719
15469W        W32993   2.943   8.887   0.274 -0.1551 -0.3548 -0.2756
15470W        W32994  16.279   7.180  13.273 -0.1429  0.2605 -0.0274
15471W        W32995  15.410   2.933  16.017 -0.0473  0.0823 -0.0122
15472W        W32996   2.902  10.975  12.299  0.0677 -0.1019 -0.1466
15473W        W32997   2.368   5.381   0.087 -0.1505 -0.1181 -0.0715
15474W        W32998  13.621  15.990   0.892 -0.0731 -0.1827 -0.0995
15475W        W32999   1.228  15.851  15.690 -0.0784 -0.2475 -0.0725
15476W        W33000   4.175   5.771   4.629 -0.1429 -0.1029  0.0641
15477W        W33001  10.978  17.998  13.369  0.0763 -0.2191  0.1831
15478W        W33002  14.653   8.627  14.389 -0.0668 -0.1644 -0.0345
15479W        W33003   8.199   1.432   2.875 -0.3771  0.0147  0.2716
15480W        W33004   5.334   2.827   2.062 -0.4088 -0.2142  0.2536
15481W        W33005   0.639  14.996  12.262 -0.1976 -0.0732  0.1639
15482W        W33006  12.585   7.043   1.486 -0.2784 -0.2932  0.0417
15483W        W33007   1.955   4.377   3.009 -0.0334  0.4107 -0.4043
15484W        W33008  15.942   1.564  15.085  0.0378  0.2419 -0.5834
15485W        W33009  10.102   7.692   2.636 -0.0244 -0.1512 -0.1868
15486W        W33010   1.805   8.282   4.793 -0.0747  0.0399  0.0696
15487W        W33011  10.666  13.871  14.473 -0.0924 -0.0401 -0.1969
15488W        W33012  11.230   1.335  14.926  0.1129 -0.0786 -0.0840
15489W        W33013   0.401   4.214  11.531 -0.3237  0.1999  0.2815
15490W        W33014  13.490  16.161  13.840 -0.1980 -0.0610  0.0740
15491W        W33015   7.749   0.089   0.777 -0.0947  0.3242 -0.3064
15492W        W33016  15.869   1.941   0.981  0.3077  0.0906  0.1289
15493W        W33017   4.811   4.248   1.942  0.0026  0.1137 -0.0804
15494W        W33018  14.654  13.135  15.701  0.1159 -0.3020  0.3063
15495W        W33019  12.167   6.984  14.034 -0.0626  0.1640 -0.1441
15496W        W33020   0.331   1.291   1.841 -0.1046  0.1740  0.0928
15497W        W33021  11.918   1.617  11.647 -0.0446 -0.1894 -0.0191
15498W        W33022   5.636  13.704   3.123 -0.0190 -0.2297  0.1623
15499W        W33023   5.815  11.749   3.020 -0.0330  0.0088  0.1393
15500W        W33024   1.000  10.560   5.366 -0.0124  0.2069  0.1541
15501W        W33025  12.829  17.745  14.996  0.4260 -0.2263 -0.1796
15502W        W33026   4.559  15.259  14.314 -0.1544  0.5387  0.2260
15503W        W33027   7.476   5.617   1.979 -0.0655 -0.0117  0.1399
15504W        W33028   1.170  16.539  14.077 -0.2323  0.1885 -0.1921
15505W        W33029   5.044  10.393   2.787  0.3395  0.1966  0.0557
15506W        W33030  12.826  13.478   2.942  0.0046 -0.2315  0.2581
15507W        W33031   8.081   4.747  12.916 -0.2019 -0.3790  0.1971
15508W        W33032  12.453  12.566  13.003  0.1543 -0.0242  0.2403
15509W        W33033   3.868  14.709  12.959 -0.1091  0.0558  0.1360
15510W        W33034  11.679  14.201   0.577  0.3044  0.2823  0.1090
15511W        W33035   7.397  15.711   3.326  0.0415  0.1830 -0.1307
15512W        W33036   6.026  14.293   5.311  0.3150  0.1943  0.0253
15513W        W33037  14.104   2.122   1.328  0.0847 -0.0166  0.2932
15514W        W33038  17.386  15.312  15.710 -0.0244 -0.0352  0.0220
15515W        W33039   7.994   4.196  12.146  0.0317  0.3023  0.1042
15516W        W33040  17.561  14.818  14.016 -0.0373 -0.0768  0.0868
15517W        W33041   3.486  18.009   2.170 -0.1172  0.0078 -0.2537
15518W        W33042  11.120  15.150  11.620 -0.0599 -0.2036 -0.0698
15519W        W33043   8.586  10.647   3.030  0.0564 -0.2413  0.0049
15520W        W33044  17.559   0.085   5.379  0.0785  0.0154  0.0710
15521W        W33045  15.602   7.367  12.381 -0.0966 -0.1323 -0.3034
15522W        W33046   4.043   0.373   3.957  0.1542 -0.0771  0.3330
15523W        W33047   5.162  13.169   1.406 -0.2541  0.2222  0.1740
15524W        W33048   3.427  13.116  12.053 -0.2245  0.3009  0.1715
15525W        W33049   6.229   0.136   0.190  0.0442  0.2002 -0.2386
15526W        W33050   5.381  14.442  11.671  0.1755 -0.0675  0.2648
15527W        W33051   7.412  14.282   3.763 -0.0820 -0.0420  0.0867
15528W        W33052   2.762  13.042  12.442 -0.2116  0.1289  0.1242
15529W        W33053   4.883   4.055   4.158 -0.0720  0.1003 -0.3481
15530W        W33054   1.793   4.833   2.129 -0.2902  0.0381 -0.0435
15531W        W33055   9.065  12.015   1.952  0.1223 -0.4822  0.3041
15532W        W33056   3.996  17.417  12.662 -0.3113 -0.1144  0.3296
15533W        W33057  12.591  12.865  14.302 -0.0928 -0.1917 -0.0972
15534W        W33058  10.616   7.346  11.624  0.2436 -0.0631  0.0816
15535W        W33059  17.686   2.384   3.482 -0.2970  0.3458  0.2315
15536W        W33060   1.953   8.476  12.490 -0.1206 -0.5103  0.2245
15537W        W33061   0.742  10.435   2.395  0.0866  0.1653 -0.0958
15538W        W33062   0.322  14.904   5.230 -0.0223  0.1545  0.0171
15539W        W33063  13.887   5.395  11.248 -0.0721 -0.3121  0.1352
15540W        W33064   3.454  16.649   2.699  0.3501 -0.4968  0.1794
15541W        W33065   0.790   2.153   2.445 -0.3143  0.2264 -0.0802
15542W        W33066  11.150  10.623   0.607 -0.1133 -0.0267  0.2539
15543W        W33067   2.352  13.951   3.302 -0.0210 -0.2524 -0.0456
15544W        W33068  14.969   6.944  13.826  0.2172 -0.1490 -0.0641
15545W        W33069  12.058   1.956   3.676 -0.0625 -0.1420  0.2116
15546W        W33070  13.179   4.417  13.708 -0.0571 -0.2964  0.1140
15547W        W33071   8.371  14.028  12.656  0.1817  0.2253  0.0841
15548W        W33072  12.505  14.912  11.416  0.3879  0.4143  0.0596
15549W        W33073   8.136  15.553   1.051  0.1022 -0.1314 -0.2211
15550W        W33074  11.069   7.671  14.079 -0.3218  0.0935 -0.0014
15551W        W33075  10.704   3.877  13.442 -0.3105  0.2895  0.1537
15552W        W33076   7.590   8.420   4.566 -0.0546  0.3197 -0.2192
15553W        W33077   5.743  12.376   2.349 -0.2182 -0.5659  0.1172
15554W        W33078   2.778   0.860  13.037 -0.0188  0.0862  0.0198
15555W        W33079   2.962   1.377   3.120  0.1039  0.0099  0.0956
15556W        W33080  10.249   6.049  14.618  0.3430 -0.0824  0.0904
15557W        W33081  11.750  17.284   2.246  0.3112 -0.1254  0.2198
15558W        W33082   2.721  11.463   4.700  0.1334  0.0474 -0.0851
15559W        W33083   0.155  16.538   2.229  0.2457 -0.1223 -0.1537
15560W        W33084   5.790  10.666  11.555  0.0190  0.0032  0.1109
15561W        W33085   0.270  16.206   1.155  0.0657  0.0171  0.0144
15562W        W33086   2.699  16.369  11.972  0.0634 -0.1438 -0.0587
15563W        W33087   8.713   1.943  15.110  0.2873  0.0017  0.0154
15564W        W33088  12.015  16.542  12.633 -0.0883  0.0389  0.1372
15565W        W33089  10.075  10.291   2.341 -0.1096 -0.2217 -0.2007
15566W        W33090   4.914  13.313   3.753  0.0070  0.0544  0.2365
15567W        W33091  13.696   0.682   0.529  0.1782  0.1581  0.1152
15568W        W33092  15.717  16.986   1.612  0.0585 -0.0999  0.1687
15569W        W33093  17.684   0.333  11.459  0.1134 -0.0736  0.0263
15570W        W33094   1.276   1.173   2.729  0.2800 -0.0061 -0.2091
15571W        W33095   6.862  11.897  14.818 -0.0300  0.1172 -0.2408
15572W        W33096  11.806   2.334  15.947  0.1778 -0.1884 -0.3068
15573W        W33097  13.552   6.363  10.144  0.0283 -0.1987 -0.0632
15574W        W33098  15.221   9.680  11.808 -0.0223 -0.0291  0.0183
15575W        W33099   9.656   2.171   0.885 -0.2354  0.2096  0.3098
15576W        W33100   5.341  10.148  13.322 -0.1462 -0.1436  0.2686
15577W        W33101   4.764   6.317   4.811  0.1089 -0.0583 -0.2470
15578W        W33102   2.332  15.779   3.494 -0.1079 -0.4505  0.1098
15579W        W33103   4.933   6.449   2.116 -0.3529 -0.0561  0.0397
15580W        W33104   7.696   1.641   1.275  0.1022 -0.0976  0.2854
15581W        W33105  10.121   7.237   1.612  0.1748 -0.1364  0.2096
15582W        W33106   0.371  18.103   0.941 -0.0391  0.0537  0.0446
15583W        W33107  16.880   5.648   2.452 -0.3608  0.3799 -0.0199
15584W        W33108  14.766   9.806  12.584 -0.1602  0.1398 -0.1114
15585W        W33109   9.561  11.303   0.057  0.0141  0.0641  0.1355
15586W        W33110   1.827   8.395  11.323  0.0089 -0.1173 -0.2154
15587W        W33111   3.774  18.121  12.502 -0.1966 -0.0115  0.0518
15588W        W33112   0.795   0.750  13.929 -0.1056 -0.2806  0.2558
15589W        W33113  15.425  16.281   0.073  0.0175  0.1422  0.0216
15590W        W33114  11.979   9.889   3.056  0.0588  0.0983  0.0769
15591W        W33115   5.506   4.421  13.257  0.3729 -0.0373  0.3193
15592W        W33116   8.614  12.820   3.059  0.2556  0.1147 -0.0453
15593W        W33117   6.324   8.860  14.869 -0.0624 -0.1142 -0.0686
15594W        W33118  13.966   0.205  11.706 -0.0039  0.2009  0.0020
15595W        W33119  11.796   1.267  14.105 -0.0197 -0.3901  0.0428
15596W        W33120   5.943   6.168  13.099 -0.2232 -0.0396  0.1431
15597W        W33121   5.353  14.727  14.432  0.0217  0.0765 -0.0205
15598W        W33122   8.223  15.820  15.401  0.2185 -0.0132  0.2829
15599W        W33123   5.416   9.334  11.649 -0.0241 -0.0379  0.1622
15600W        W33124   8.778   8.631   3.833  0.0123  0.1345 -0.1255
15601W        W33125  17.237  16.104  14.216 -0.2076 -0.1507 -0.0968
15602W        W33126   3.021   0.733   3.529  0.0337 -0.2753 -0.0448
15603W        W33127   0.589   3.335  13.703 -0.1883  0.0092 -0.3088
15604W        W33128  11.091  12.486   1.156  0.4437 -0.2076 -0.0984
15605W        W33129   0.788   8.911  13.837 -0.0841 -0.2726 -0.0720
15606W        W33130  16.449  16.257  13.585 -0.1105  0.0582 -0.2526
15607W        W33131   7.459  10.012  16.020  0.0427 -0.3348 -0.2379
15608W        W33132   3.971  15.171  15.256  0.1795 -0.1473  0.1945
15609W        W33133  12.228   5.525   0.553  0.0052 -0.0401  0.3874
15610W        W33134  16.015   9.139   2.223 -0.0217 -0.1828  0.3210
15611W        W33135   9.911  11.049   3.129 -0.1307 -0.3430  0.2335
15612W        W33136  11.397  11.985  13.448 -0.1315  0.1994 -0.0493
15613W        W33137   1.494  14.283  11.137 -0.1006 -0.2995 -0.0629
15614W        W33138  14.128   6.051  12.008  0.2156 -0.2697  0.1864
15615W        W33139  17.775   6.875   4.385 -0.0271 -0.2289  0.0862
15616W        W33140   6.224   8.770   0.005 -0.0337 -0.1345  0.0961
15617W        W33141   4.967   2.060   3.396  0.0710  0.1077  0.0197
15618W        W33142  15.674   9.330   1.352  0.6768 -0.0195  0.0276
15619W        W33143   3.728   1.301  15.843 -0.1668 -0.0761 -0.0192
15620W        W33144   5.832   4.960   0.157  0.0799  0.2087 -0.0223
15621W        W33145   1.125  10.928  11.197  0.1817  0.1656 -0.1402
15622W        W33146   8.182  13.132  13.196  0.2083 -0.1902 -0.0859
15623W        W33147   3.447  16.324  12.661  0.0596 -0.1798 -0.1676
15624W        W33148   5.354  15.820  11.373  0.0778  0.0230 -0.1376
15625W        W33149  14.940  13.869  13.263  0.2995 -0.0006  0.0194
15626W        W33150   1.236   4.084   0.610 -0.1181 -0.4016 -0.0363
15627W        W33151   7.672  10.394   1.304 -0.0998 -0.0064  0.0457
15628W        W33152  14.030  14.164  14.746 -0.1032 -0.2483 -0.3131
15629W        W33153  13.543  11.716   2.146  0.0544 -0.0008  0.0394
15630W        W33154   4.459   2.219   2.565 -0.0190  0.0905 -0.0436
15631W        W33155   2.019   4.447   0.733 -0.1069 -0.0736  0.2459
15632W        W33156   0.492  12.902   6.389  0.1422 -0.2049 -0.0072
15633W        W33157   0.470  10.973  11.583 -0.1929  0.1650 -0.2006
15634W        W33158   1.138  12.170   0.174 -0.2551 -0.0888  0.0544
15635W        W33159   0.185   3.500  14.903  0.2906  0.1228 -0.0671
15636W        W33160   5.653  16.393  12.004  0.3784 -0.0084  0.0766
15637W        W33161   4.647   8.786  11.945 -0.3127 -0.1466  0.0726
15638W        W33162  10.174  11.664   0.582 -0.0791 -0.1398 -0.3097
15639W        W33163  11.149  15.753   0.344 -0.4673  0.1121  0.2489
15640W        W33164  17.995   4.320  15.118 -0.0175  0.1350  0.4436
15641W        W33165   0.602   3.190  14.197 -0.0968  0.2396  0.3239
15642W        W33166  16.061  14.504   5.285 -0.0601  0.3469 -0.1930
15643W        W33167   9.810   4.720   0.697  0.2840 -0.3126 -0.3583
15644W        W33168  10.820  14.955   1.174 -0.0608 -0.1639 -0.0879
15645W        W33169   3.702   7.621   3.957 -0.1625 -0.2121 -0.0770
15646W        W33170  10.581  14.279  11.431  0.2783 -0.0689 -0.0837
15647W        W33171   1.380  12.632  15.770 -0.0336  0.0605 -0.1958
15648W        W33172   4.586   2.867  14.250 -0.2060  0.0535  0.3554
15649W        W33173  16.007   3.448   3.020 -0.2230 -0.2525 -0.2224
15650W        W33174  13.029  12.542  11.792  0.3354  0.1273  0.0728
15651W        W33175   6.875   9.446  11.497 -0.1129  0.0298 -0.0061
15652W        W33176  17.466   1.656  15.542  0.1122 -0.3928 -0.1175
15653W        W33177   4.252   8.695   3.190  0.1953 -0.0182  0.1707
15654W        W33178   9.955   9.469   3.585 -0.2290 -0.3681  0.2568
15655W        W33179   7.491  14.839  10.523  0.0330  0.4612  0.1666
15656W        W33180   4.823  13.821  12.099  0.1145 -0.1639  0.2149
15657W        W33181  13.462  11.374  15.423 -0.1163 -0.0340  0.0097
15658W        W33182  13.995  14.796  10.375 -0.1646  0.1278 -0.0180
15659W        W33183   3.411  13.803  14.131 -0.0354  0.1222 -0.2182
15660W        W33184   7.778  14.702  13.602  0.0425  0.1735 -0.0300
15661W        W33185   7.114   1.693   1.184  0.1336 -0.0118  0.1837
15662W        W33186  16.300   3.821   0.640 -0.0917 -0.1292  0.0838
15663W        W33187   6.155   3.845  15.594 -0.0632 -0.0410  0.0034
15664W        W33188  12.600  15.542   5.377  0.1136 -0.0305  0.0491
15665W        W33189  11.691  12.359   0.988 -0.0589 -0.0394  0.2186
15666W        W33190   5.171   0.708  13.948  0.0945  0.1021 -0.0931
15667W        W33191  12.886   3.000  11.946 -0.0499  0.0793 -0.0302
15668W        W33192   0.889  13.628  13.192 -0.0361  0.2224  0.1231
15669W        W33193  17.912   4.402   0.093 -0.1549  0.0295 -0.2359
15670W        W33194   9.189  17.089  13.652 -0.0021  0.0664  0.1274
15671W        W33195  14.447  16.691   4.807  0.4604 -0.0208  0.0218
15672W        W33196   7.849  12.798   0.859 -0.0268  0.0281  0.0994
15673W        W33197   4.108   7.471   5.281  0.3573  0.0268  0.3458
15674W        W33198   6.641  16.322   3.046  0.0730  0.0360 -0.1192
15675W        W33199   8.526   1.539   2.004 -0.1187  0.1585 -0.1071
15676W        W33200  17.173  16.774  12.499 -0.2135 -0.4070 -0.1254
15677W        W33201   6.662   8.296   4.348  0.1616  0.3098 -0.0894
15678W        W33202  14.352   4.083  13.454 -0.1607 -0.0532 -0.1031
15679W        W33203  14.394  10.098  12.780 -0.1915 -0.0196 -0.0473
15680W        W33204  11.728  17.171   3.373 -0.4198  0.1090  0.1888
15681W        W33205   5.490   0.302   3.467  0.0026  0.1229  0.0350
15682W        W33206  12.076  18.120   3.648 -0.0043 -0.0516  0.2310
15683W        W33207   5.014   0.293  12.591 -0.0842 -0.2823  0.0079
15684W        W33208  12.125  10.358  13.384 -0.3125  0.0502 -0.1934
15685W        W33209   4.107  11.808  11.540 -0.1183 -0.0924 -0.0302
15686W        W33210   8.330  11.590  15.932  0.2081 -0.2304 -0.0145
15687W        W33211   7.875  17.582  13.550 -0.1211 -0.4013  0.0578
15688W        W33212  13.663  16.065  15.824  0.0402 -0.0722  0.0667
15689W        W33213  13.976  18.132  15.567 -0.1185  0.2431 -0.0744
15690W        W33214  17.164  12.845  11.323 -0.1167 -0.0489  0.0312
15691W        W33215  13.864  15.002   1.643 -0.1301 -0.0682  0.2582
15692W        W33216   6.404   1.752  13.495  0.1108 -0.0253 -0.0733
15693W        W33217  16.426   4.787  15.697  0.2375  0.1717  0.1060
15694W        W33218  13.221  13.203   1.037  0.0107  0.3059 -0.1798
15695W        W33219  15.005   0.686  14.134 -0.0034  0.4215 -0.1065
15696W        W33220  17.379   4.645   2.164 -0.2093  0.1106  0.2305
15697W        W33221   1.277   4.333  15.765  0.1752 -0.0143 -0.1200
15698W        W33222   6.511   9.766   1.968  0.1318  0.0549 -0.1713
15699W        W33223  14.089  11.873  11.816  0.1785 -0.2779  0.0076
15700W        W33224   7.424   2.611  15.693 -0.2922 -0.5119 -0.0190
15701W        W33225  11.646   3.785   0.153  0.1775 -0.1857 -0.2860
15702W        W33226  17.596   6.440   3.492  0.0080 -0.0361 -0.3058
15703W        W33227  11.818   4.532  14.560 -0.1876 -0.1061 -0.0788
15704W        W33228   8.257  11.957   2.518 -0.1713  0.0884  0.1428
15705W        W33229  14.300   0.952   2.173 -0.0665 -0.0692 -0.0686
15706W        W33230  14.737  11.238   0.653 -0.0350 -0.1859  0.0591
15707W        W33231   0.958   9.368   2.270  0.0405 -0.0385 -0.0472
15708W        W33232   8.398   7.602  11.766  0.2459 -0.0061 -0.0464
15709W        W33233   7.763   8.612  15.306 -0.1986 -0.3782  0.0045
15710W        W33234  16.705  17.840  12.099  0.0005 -0.0600  0.3415
15711W        W33235   7.041   9.276  14.350 -0.1010  0.1330 -0.2244
15712W        W33236   0.215  14.297   3.179 -0.0247 -0.0729  0.1541
15713W        W33237  16.684  10.918  11.528  0.0790  0.1715 -0.0026
15714W        W33238  10.937  16.476   5.058  0.3259  0.1397  0.2224
15715W        W33239   9.735  16.229  11.361 -0.0600  0.0023  0.0100
15716W        W33240   0.094  12.781  14.294  0.0249  0.2399  0.1053
15717W        W33241  15.838   3.592  13.816 -0.0863  0.2882  0.1228
15718W        W33242  15.879  15.365   2.580 -0.2002 -0.2292  0.1014
15719W        W33243   1.920  14.642   2.656  0.2472  0.1196  0.0367
15720W        W33244  17.941  10.573  12.757 -0.0516 -0.3048  0.1318
15721W        W33245   9.055   5.646  10.635 -0.4242  0.0861 -0.2390
15722W        W33246   5.504   2.489   0.501  0.0853 -0.2525 -0.1678
15723W        W33247  16.818   9.524   0.003 -0.0353 -0.0607  0.1849
15724W        W33248  13.697   9.928  15.285 -0.1471  0.0326  0.2277
15725W        W33249  14.873  13.582   2.255  0.1073  0.1579  0.5021
15726W        W33250   8.995   0.265  13.891  0.0293 -0.3124  0.1314
15727W        W33251   4.674  11.706   2.579 -0.0193  0.2987  0.1744
15728W        W33252  14.446   9.762  13.601 -0.1643 -0.0554  0.0540
15729W        W33253  12.883  10.300  11.580 -0.1108 -0.0144 -0.3219
15730W        W33254  11.414  15.694   2.956 -0.0485 -0.0519  0.2029
15731W        W33255   8.486   9.418   3.401  0.0583 -0.1423 -0.2193
15732W        W33256  13.553  15.495   0.633  0.1280  0.0626 -0.1709
15733W        W33257  15.432  14.644   0.652  0.0962  0.0105  0.0249
15734W        W33258   3.474   5.265  14.591 -0.1499 -0.1830  0.0490
15735W        W33259  14.373  17.006   0.480 -0.0211  0.2429  0.0692
15736W        W33260   4.311  15.037   1.206 -0.0546  0.0459 -0.0695
15737W        W33261  12.254  17.447   1.574  0.1034  0.2001  0.2086
15738W        W33262  14.082   3.859   4.205  0.4313  0.1780  0.3443
15739W        W33263  13.510   2.536  11.735  0.0810 -0.3946 -0.2200
15740W        W33264   9.278   3.462  14.136  0.0143 -0.1159 -0.3465
15741W        W33265  12.842   4.746   2.488 -0.1669  0.0095  0.1606
15742W        W33266   8.581  14.460  15.290  0.1368  0.0616 -0.0129
15743W        W33267   2.809   3.132  14.065 -0.2610  0.0225 -0.0145
15744W        W33268   7.556   0.156   2.280 -0.5112  0.1546 -0.2219
15745W        W33269   6.452   5.472   2.234  0.0373 -0.2412  0.1411
15746W        W33270  14.782  16.248  12.502  0.1459  0.2764 -0.0714
15747W        W33271  11.610  11.082  12.425 -0.0456  0.0608  0.0465
15748W        W33272  14.535  12.577   5.505  0.0817  0.0540  0.2855
15749W        W33273  17.318   0.471  13.904  0.0325  0.1411 -0.1016
15750W        W33274   0.109   3.959   3.026 -0.0623  0.0652  0.1225
15751W        W33275   4.445  16.362   0.568  0.1010  0.2742 -0.0859
15752W        W33276   5.322  16.801  11.600  0.0284  0.2999 -0.1710
15753W        W33277  17.164   1.354  14.319 -0.1907  0.1831  0.0901
15754W        W33278  11.689  11.466  13.469 -0.3018 -0.2148  0.1101
15755W        W33279   3.991  15.353   0.377  0.3362  0.0101  0.1261
15756W        W33280  10.641   3.499  11.891  0.0399 -0.2278 -0.1738
15757W        W33281  11.212   8.083  14.377  0.1003  0.3233 -0.0260
15758W        W33282   1.248  12.600   2.258  0.1757  0.0439 -0.0038
15759W        W33283   6.141   5.385  10.302  0.0345 -0.0868  0.1822
15760W        W33284   0.830  13.438  14.561 -0.0798  0.0832 -0.0251
15761W        W33285   4.985  13.450   4.297  0.0896  0.1474 -0.1524
15762W        W33286  13.079  13.176  14.941 -0.1881 -0.0322  0.0450
15763W        W33287  17.459   4.398  13.384  0.1306 -0.0673  0.3529
15764W        W33288   6.069   9.489  15.405 -0.0633 -0.4135  0.1111
15765W        W33289  15.772  12.818  14.176  0.1436 -0.0129  0.1019
15766W        W33290   4.834   0.844  12.641 -0.2669  0.1591 -0.1017
15767W        W33291   7.173  11.052  13.464 -0.0390  0.0421  0.1930
15768W        W33292  10.419   8.085  15.950  0.5870  0.2183  0.1552
15769W        W33293   9.784   5.549  12.199  0.2476 -0.2884 -0.0582
15770W        W33294   1.638   8.822   2.275 -0.0153 -0.0533 -0.1013
15771W        W33295  13.338   5.500  13.853 -0.0504 -0.2350 -0.0033
15772W        W33296  10.040   0.359  16.000  0.1581  0.0869  0.3348
15773W        W33297  15.391  10.623  14.965 -0.2294  0.0397 -0.2077
15774W        W33298   5.948  15.224   2.565  0.1944 -0.2227  0.0841
15775W        W33299  12.533   9.700   2.947 -0.1730 -0.0586  0.1176
15776W        W33300   8.526  16.490   4.601 -0.0401 -0.0349 -0.0928
15777W        W33301   3.398  10.018  12.121 -0.0041 -0.1083 -0.1820
15778W        W33302   0.846   9.656   2.676  0.0526  0.3448 -0.1445
15779W        W33303   0.869   9.708  13.565 -0.4995  0.0923  0.0052
15780W        W33304   1.777   9.583  12.089 -0.0759 -0.0224 -0.1734
15781W        W33305   5.041   2.545   1.272 -0.2877  0.0991 -0.3172
15782W        W33306   7.875  12.186   3.716 -0.0298 -0.0149 -0.1267
15783W        W33307   5.221  10.620   3.408  0.0187  0.2822  0.0332
15784W        W33308   5.208   5.165  15.018 -0.1879 -0.3157  0.0363
15785W        W33309  11.726   5.937  12.985  0.0624  0.3013 -0.1664
15786W        W33310   1.286  14.211  15.063  0.1007  0.0051  0.0307
15787W        W33311   8.858   2.895   2.239 -0.2190 -0.3108  0.2094
15788W        W33312  17.264  13.860  14.315 -0.0314  0.0304 -0.0269
15789W        W33313  17.840  11.067   3.896 -0.0108  0.1892 -0.0895
15790W        W33314  11.454  16.785  11.365 -0.3148  0.0463 -0.1460
15791W        W33315   6.968   7.142  14.137  0.0813 -0.0641  0.1034
15792W        W33316   7.626  11.057  15.561 -0.2468  0.0919  0.1971
15793W        W33317  17.444   0.235  11.908  0.1960 -0.2056  0.3063
15794W        W33318   5.405   2.738  13.132  0.0813  0.1200 -0.1322
15795W        W33319   1.783   3.859  14.159  0.3433  0.2456 -0.0834
15796W        W33320  13.702   8.549   1.129 -0.3278 -0.0726 -0.0965
15797W        W33321  11.968  10.759  12.448  0.0795  0.1284 -0.1638
15798W        W33322   1.795  10.315  12.676  0.0063 -0.1099  0.0401
15799W        W33323   2.671  16.766  15.549 -0.1617 -0.1240 -0.0515
15800W        W33324  17.613  17.616  12.288 -0.0547  0.1762 -0.0003
15801W        W33325   0.405   0.308  11.854 -0.0459  0.0395  0.1111
15802W        W33326   9.463  15.573   3.560 -0.2883 -0.1414 -0.1859
15803W        W33327   5.558   5.613   3.464 -0.0491  0.0077 -0.0027
15804W        W33328   3.485   7.230   4.520 -0.1748  0.1282 -0.0160
15805W        W33329  14.127  10.986  11.681  0.2154 -0.0829 -0.2186
15806W        W33330   9.588   0.976  16.009  0.1806  0.0662  0.0588
15807W        W33331   2.991   6.475  14.032  0.1799 -0.2984 -0.1211
15808W        W33332   4.452   1.390   0.007 -0.2373  0.3700 -0.0127
15809W        W33333  18.017   8.082  10.452 -0.1649  0.4659 -0.3967
15810W        W33334  16.951  14.443   1.881  0.2048 -0.2623  0.0472
15811W        W33335  15.084   3.464   3.476 -0.0179  0.1142 -0.2234
15812W        W33336   0.054   3.759  11.827  0.1038 -0.1873 -0.3750
15813W        W33337  14.430   4.201   4.199  0.3117  0.0294 -0.2024
15814W        W33338  12.782  17.485  15.541 -0.1494  0.0735  0.0113
15815W        W33339  12.022  10.686  12.978 -0.0609  0.1911  0.2072
15816W        W33340   2.589  10.863  11.415 -0.0992  0.2356  0.0971
15817W        W33341   5.065  17.396  13.318 -0.1146  0.2237  0.3159
15818W        W33342   0.471  11.622  14.855 -0.2277  0.0413  0.0252
15819W        W33343  11.815   3.238  11.542  0.2482 -0.1364 -0.1752
15820W        W33344   8.003   7.699   2.879  0.2413  0.2770 -0.2037
15821W        W33345  16.490   3.010   4.212  0.0787 -0.0981  0.3859
15822W        W33346   6.380   0.140  14.796 -0.2825  0.3070 -0.0479
15823W        W33347  17.554  17.321   0.449 -0.1238  0.1257  0.0433
15824W        W33348   1.352   0.412  13.271 -0.0251  0.0321  0.0918
15825W        W33349   8.859   7.670   2.585  0.0122 -0.2360  0.0415
15826W        W33350   1.079  17.034  13.173  0.0483 -0.2020 -0.0316
15827W        W33351  10.872   9.709  15.483 -0.0303  0.1351  0.1565
15828W        W33352   5.533  14.526   4.391 -0.1338 -0.0500 -0.1329
15829W        W33353  13.141  15.541  13.553 -0.0392 -0.3007 -0.2563
15830W        W33354  10.152   9.558   0.553  0.0278  0.1210  0.0529
15831W        W33355   1.285  11.616  15.570  0.3359 -0.3620  0.3455
15832W        W33356   9.633   7.919  12.733 -0.0708 -0.1023 -0.1780
15833W        W33357  12.252   9.781   0.949 -0.1198  0.2299 -0.1477
15834W        W33358  18.003  16.137  14.936 -0.0308  0.1444 -0.0162
15835W        W33359   8.523  11.019   3.854  0.3485 -0.0458  0.2387
15836W        W33360  15.685  14.315   0.343  0.1241  0.2626  0.0134
15837W        W33361  11.769   2.858  15.986  0.3105 -0.2059 -0.0168
15838W        W33362   2.025   4.635   5.532 -0.2344 -0.1005 -0.1192
15839W        W33363   9.920  12.588   3.312  0.4305  0.2045  0.1911
15840W        W33364  15.907  11.367  14.433 -0.3344  0.1433 -0.1853
15841W        W33365  11.824   2.418   2.390 -0.1023 -0.2762  0.0057
15842W        W33366   5.611   0.916   2.458  0.0042  0.0105 -0.4456
15843W        W33367  15.518  12.466   5.196 -0.1484  0.0674  0.0098
15844W        W33368  13.313   0.140   5.204 -0.1582  0.0298  0.0810
15845W        W33369   5.148  16.215   4.398 -0.1525 -0.2276 -0.1621
15846W        W33370   5.179  10.751   4.381 -0.2399  0.1096 -0.3114
15847W        W33371   4.433   4.559   2.174  0.1922  0.2461 -0.1650
15848W        W33372  10.492  10.728   3.950  0.1655 -0.1232  0.1697
15849W        W33373  17.487   4.436  12.867  0.1255 -0.0243 -0.2989
15850W        W33374   2.558  12.180   5.229 -0.0022  0.1792 -0.1447
15851W        W33375   1.680  17.638   0.515  0.0605 -0.0095 -0.2105
15852W        W33376  13.001   6.079  14.412  0.0549 -0.3145 -0.1229
15853W        W33377   5.962  12.515  14.143  0.0399 -0.2859 -0.0554
15854W        W33378   1.854   8.622  10.783  0.1325 -0.2820 -0.1231
15855W        W33379   7.392   6.498   3.684 -0.1575 -0.0564 -0.0194
15856W        W33380   6.074  12.996   0.489  0.3508 -0.1492 -0.1234
15857W        W33381  15.142   0.575   0.308 -0.1174 -0.1881  0.0663
15858W        W33382   5.449  17.958   1.444  0.0561  0.0461  0.1586
15859W        W33383  11.553   3.503  10.623  0.1386  0.1711 -0.0495
15860W        W33384  14.285   0.009  14.223  0.1122  0.0532  0.1334
15861W        W33385   8.846   5.918  14.485 -0.0697 -0.0069  0.1650
15862W        W33386   6.799   6.427  12.753 -0.0931  0.0234  0.0313
15863W        W33387  13.282  15.553   5.139  0.0343  0.1195 -0.0148
15864W        W33388  10.089   0.773  14.908 -0.1728 -0.1367 -0.0510
15865W        W33389  12.485   6.058  13.559  0.1103  0.1630 -0.1105
15866W        W33390   6.887   2.887  15.707 -0.0182 -0.0663 -0.1001
15867W        W33391  15.608  18.048   2.462  0.0691 -0.0963 -0.0152
15868W        W33392   2.623   4.801   2.716 -0.2319 -0.0910  0.1584
15869W        W33393  14.524   5.995  15.690  0.0707 -0.2086  0.0974
15870W        W33394   7.771   9.188  13.191 -0.3477  0.4320 -0.1087
15871W        W33395   7.035   0.921  13.326 -0.2920  0.0690 -0.2108
15872W        W33396  12.737   0.471  15.080  0.2885  0.0155  0.0141
15873W        W33397  11.969  12.827  14.586 -0.1589 -0.0776 -0.0767
15874W        W33398  17.088   9.570   1.275 -0.1161 -0.2194  0.2330
15875W        W33399  13.531   4.397  14.021 -0.0467  0.3608  0.1456
15876W        W33400  14.218   9.661   4.408  0.2415  0.3224  0.0325
15877W        W33401   1.230  13.880   2.046  0.0347 -0.3719 -0.0144
15878W        W33402  17.774   3.869  13.369  0.2209  0.0758 -0.2723
15879W        W33403   4.883  10.355   2.266  0.3717 -0.0614  0.0238
15880W        W33404  10.949   8.467   2.039  0.3665 -0.1861  0.1507
15881W        W33405   1.938   3.261  11.569  0.2344 -0.1270 -0.3323
15882W        W33406   6.184   5.483  12.547 -0.1198  0.1194 -0.2488
15883W        W33407   5.155  11.366  14.374 -0.3791 -0.3046 -0.0181
15884W        W33408   8.480   6.256  14.415 -0.0787 -0.1256 -0.1829
15885W        W33409  16.420  10.419   5.448 -0.1249  0.1208  0.1192
15886W        W33410   0.535   9.782   4.337  0.1589 -0.0590 -0.0329
15887W        W33411   1.879  12.369   6.006  0.1835 -0.2029 -0.0327
15888W        W33412  15.439  12.864  11.798  0.0486  0.1546 -0.0781
15889W        W33413   1.015   7.350  15.700 -0.0333 -0.1920 -0.0680
15890W        W33414   4.068   0.385   0.527 -0.0304  0.1452 -0.0180
15891W        W33415   5.706  17.711   0.272  0.2354  0.1771 -0.1045
15892W        W33416   2.610   3.631   4.021 -0.2055 -0.0045  0.1260
15893W        W33417  12.812  18.108   0.061 -0.1901 -0.0077 -0.4014
15894W        W33418   0.688   7.190   3.594 -0.1361  0.1660  0.0353
15895W        W33419   3.553  17.409   0.837  0.0021  0.0033  0.1621
15896W        W33420   9.362   5.780   3.031 -0.1749 -0.0243 -0.0108
15897W        W33421  18.018   5.057   1.576  0.1700  0.0289  0.0704
15898W        W33422   0.231  10.260  12.908  0.0362 -0.2753  0.4115
15899W        W33423   3.159   2.193  11.952 -0.0933 -0.0497  0.0289
15900W        W33424   6.105   0.153   0.705  0.1340 -0.0884  0.2204
15901W        W33425  10.877   0.504   2.606  0.0091  0.1690 -0.0023
15902W        W33426   9.140  13.976   3.188  0.0943  0.0425  0.1391
15903W        W33427   6.359  17.847  14.436 -0.0639  0.0381 -0.4472
15904W        W33428   7.125   1.874  14.655  0.1745  0.1983  0.0031
15905W        W33429   2.579   9.527  11.060  0.0011 -0.0896 -0.0771
15906W        W33430  12.342  15.728   0.214 -0.0599  0.0389  0.0132
15907W        W33431  14.757   4.115   1.395  0.1693 -0.2781  0.0652
15908W        W33432  13.783   3.588   3.459 -0.0162  0.0731  0.1040
15909W        W33433   3.390   9.595   2.802 -0.0668  0.0804  0.1039
15910W        W33434   0.703   1.138   4.366  0.0801 -0.1338  0.3198
15911W        W33435   5.471  15.681   0.379 -0.2110  0.1856  0.2130
15912W        W33436  17.443  14.847  12.080  0.3025  0.0222 -0.0638
15913W        W33437   5.307   7.847  12.717 -0.1704 -0.0134 -0.1528
15914W        W33438   0.337  17.198  14.042 -0.2312  0.0502 -0.1659
15915W        W33439   3.795  14.026   4.296  0.0808 -0.1455  0.0977
15916W        W33440  17.656   1.989   0.795 -0.0580 -0.0920 -0.1779
15917W        W33441   7.312   8.394   2.589 -0.4010  0.3548 -0.1745
15918W        W33442  15.578   9.905  12.630 -0.0461  0.3056 -0.0427
15919W        W33443   1.936   6.557   2.919 -0.0955 -0.1025 -0.1302
15920W        W33444   7.719   6.699  12.129 -0.1690  0.0069  0.0156
15921W        W33445   5.099   6.993   3.975  0.1739  0.0835  0.0769
15922W        W33446   6.028   2.287   0.713 -0.0445 -0.0238 -0.1926
15923W        W33447   7.625   4.611  11.549 -0.0941 -0.1560  0.0861
15924W        W33448   1.800   9.141  14.871 -0.0674 -0.1909  0.3657
15925W        W33449  10.489  14.519   0.391  0.0449 -0.0497  0.2269
15926W        W33450  14.298  17.084  12.532  0.1414  0.3066 -0.0289
15927W        W33451  18.052   3.069  14.887 -0.0196  0.0008 -0.1901
15928W        W33452   7.739  16.640   0.872 -0.1697  0.0052 -0.2326
15929W        W33453  10.106  14.809   0.681  0.1293 -0.1511 -0.0728
15930W        W33454   9.597  14.872  14.396  0.1270  0.4401  0.0752
15931W        W33455  12.798   5.080   0.912  0.1736  0.1143 -0.0598
15932W        W33456   4.254   8.726   4.289 -0.0453  0.2311  0.0058
15933W        W33457  11.283   0.363  13.530 -0.1351  0.2605  0.0915
15934W        W33458   3.347   9.738  11.332  0.0582 -0.2393 -0.0526
15935W        W33459   5.985  10.436   2.537 -0.2150 -0.0510  0.2272
15936W        W33460   1.088  12.027  14.205 -0.2252  0.0230 -0.0299
15937W        W33461  11.542  13.853  12.420 -0.1081  0.0646  0.1456
15938W        W33462   7.409  14.103   4.737 -0.0027 -0.1149 -0.1920
15939W        W33463  17.506   3.747  11.866 -0.0059 -0.0357 -0.0845
15940W        W33464  15.906  12.702   4.433 -0.0050  0.1401 -0.1531
15941W        W33465  16.443   8.094  13.180  0.0334 -0.1316  0.2801
15942W        W33466  14.685   4.972   3.635  0.0074 -0.0945  0.0974
15943W        W33467   6.603   2.489   1.307  0.0049  0.1939 -0.0089
15944W        W33468  17.624  17.285   1.974 -0.2265  0.1929 -0.1826
15945W        W33469  11.614   4.694   0.637  0.1678  0.2476  0.0637
15946W        W33470  11.371   5.840  10.476  0.0579  0.2316  0.1460
15947W        W33471  11.216  17.427   1.182 -0.2208 -0.1871 -0.2202
15948W        W33472   0.004  13.401  11.591  0.2793 -0.1505 -0.0400
15949W        W33473   8.784  17.795   1.362  0.1130  0.1817 -0.1274
15950W        W33474  12.094   4.593   4.040 -0.0646  0.2336  0.3412
15951W        W33475   7.946   8.159   0.887  0.3653 -0.1466  0.0312
15952W        W33476  17.248   2.778  11.128  0.1227  0.1669  0.0321
15953W        W33477  17.183   6.587   4.527  0.0903 -0.1356 -0.1367
15954W        W33478   6.649  11.294   4.848 -0.0703 -0.2411 -0.1944
15955W        W33479   2.475   2.324   1.144  0.1659 -0.1318  0.0956
15956W        W33480   3.828  12.484  12.601  0.0575 -0.0213  0.1189
15957W        W33481   6.706  17.801  15.367 -0.4228 -0.1249  0.3118
15958W        W33482   6.439   9.325  15.113 -0.0762  0.0068  0.3391
15959W        W33483   2.502   5.540  15.470  0.1329  0.2148 -0.1521
15960W        W33484  16.726   0.899   3.915 -0.0070  0.0828 -0.0550
15961W        W33485   8.974   8.267  11.621  0.2872  0.0697 -0.0318
15962W        W33486  12.247   1.577  12.002  0.1525 -0.0626 -0.0320
15963W        W33487   5.237  12.419   4.801  0.2813 -0.0419  0.1432
15964W        W33488  15.092  10.675   4.750  0.4446 -0.0328 -0.2194
15965W        W33489  11.771  14.110   4.433  0.2101 -0.2552  0.1689
15966W        W33490   1.326   6.033  12.187 -0.0189 -0.1897  0.0620
15967W        W33491  10.819   6.328   4.366 -0.1793  0.2386 -0.0450
15968W        W33492   5.910   7.819   2.381  0.4949 -0.1625  0.2318
15969W        W33493   8.384  15.923   1.880  0.1246  0.0627  0.3931
15970W        W33494   7.912  13.195  11.093  0.1970  0.0786  0.1020
15971W        W33495   3.138   3.186  15.682 -0.0325 -0.0905 -0.1728
15972W        W33496   1.906  17.911  14.824  0.5181 -0.0367  0.2746
15973W        W33497   8.444   2.019   3.731 -0.0298  0.2094  0.3428
15974W        W33498   9.326  16.359  13.143 -0.0036 -0.4274  0.1069
15975W        W33499   0.931  17.676   3.578 -0.0529 -0.1569 -0.0301
15976W        W33500   3.806   0.967  10.089  0.0641 -0.2514  0.1090
15977W        W33501   9.665  14.993  13.415 -0.1665  0.1387  0.0819
15978W        W33502  10.011  17.895  12.473 -0.0443 -0.2545  0.4394
15979W        W33503   6.989   9.433   0.387  0.1559  0.1018  0.2487
15980W        W33504   9.075   2.479  13.262  0.0244 -0.0109 -0.0154
15981W        W33505  17.474   1.507   1.885 -0.0643  0.0622 -0.2959
15982W        W33506  17.222  13.803   3.716 -0.0426 -0.1376 -0.0903
15983W        W33507   3.504  14.698  13.812 -0.0555  0.1884  0.0773
15984W        W33508   2.960  11.259   4.053  0.4516  0.3095  0.0948
15985W        W33509  15.837   0.468   4.802  0.1529 -0.1250  0.0722
15986W        W33510  14.182  17.150   3.651 -0.0754  0.4097  0.1319
15987W        W33511   0.526   4.937  13.348 -0.0485  0.1170 -0.3329
15988W        W33512  12.448  12.414   3.239  0.0411  0.4382 -0.0678
15989W        W33513   8.633  15.993   2.544 -0.2186  0.1120  0.1386
15990W        W33514   3.085   1.397   0.010  0.1830  0.0746  0.0881
15991W        W33515   8.582  11.414   2.359 -0.2243  0.0312 -0.1863
15992W        W33516   3.057   4.220  15.992  0.0802 -0.2860 -0.0802
15993W        W33517   8.174  11.624   5.419 -0.3990  0.0578 -0.2957
15994W        W33518   4.680  11.352  14.714 -0.0682 -0.1736  0.2842
15995W        W33519  10.081   5.648   5.230 -0.2914 -0.2477 -0.1755
15996W        W33520   0.612   9.669  11.421 -0.1965  0.1854  0.0447
15997W        W33521  13.917   5.639  13.753  0.1417  0.4896  0.1016
15998W        W33522   9.087  16.873  11.999 -0.1572  0.2270 -0.2476
15999W        W33523   0.340   0.452   5.173 -0.1380  0.1612  0.0483
16000W        W33524  12.270   7.216   0.332 -0.1359 -0.1114 -0.1730
16001W        W33525   8.536   9.265  12.683  0.0620 -0.0092  0.1954
16002W        W33526  12.354  10.650   3.340 -0.1532  0.0890 -0.0243
16003W        W33527   7.216   7.343  11.477 -0.3275  0.0046  0.2389
16004W        W33528   2.112  10.183  16.052  0.2578  0.0967  0.3045
16005W        W33529   3.892   0.439  11.054  0.1664 -0.1176 -0.0449
16006W        W33530  10.618  15.072  10.902 -0.0059 -0.2566  0.2871
16007W        W33531   5.769  13.715   4.347  0.1356  0.0534  0.0286
16008W        W33532   7.150   6.906  15.251  0.2058 -0.0129 -0.0807
16009W        W33533   0.055   9.433  12.079 -0.1584 -0.1814  0.0191
16010W        W33534  13.472   5.505   0.739 -0.2187 -0.0934 -0.1691
16011W        W33535   2.314  16.607   0.425  0.1816 -0.1429  0.2241
16012W        W33536  13.256   1.336   1.495 -0.0543  0.0166 -0.0381
16013W        W33537   5.321  12.134  15.993 -0.0873 -0.0843  0.1246
16014W        W33538  14.040   7.902  14.224 -0.1907 -0.0847  0.0000
16015W        W33539   6.592   4.529  11.440 -0.2711  0.3199 -0.0270
16016W        W33540   3.879   9.039  15.794 -0.0679  0.0960  0.3914
16017W        W33541   2.396  12.369  14.770 -0.2831 -0.1633  0.0471
16018W        W33542  12.721  14.384   0.314  0.1086  0.0149 -0.1719
16019W        W33543  11.054  16.703   3.894 -0.0133  0.0104  0.2436
16020W        W33544  14.967   3.298  10.234  0.1210 -0.1403 -0.1120
16021W        W33545  16.050  11.202   0.701 -0.2591  0.0660  0.2784
16022W        W33546   8.677  17.381  15.032  0.0717 -0.1128 -0.1532
16023W        W33547   4.310   9.894   3.981  0.0310  0.0964  0.0690
16024W        W33548  16.002   2.656  14.349  0.1352  0.3629  0.2066
16025W        W33549  16.442   9.113   4.644  0.1608  0.0777  0.2125
16026W        W33550   6.250  16.252   2.788  0.0163  0.0959 -0.0303
16027W        W33551  15.971  12.952  15.220 -0.0502 -0.2967  0.0393
16028W        W33552  14.149  11.012   3.407 -0.2999  0.1791 -0.1634
16029W        W33553  10.520   5.199  12.795 -0.1007 -0.0379 -0.0669
16030W        W33554   8.678   0.613  14.602  0.0525  0.0172  0.1302
16031W        W33555  16.561   5.040  14.554 -0.1726 -0.1208  0.0504
16032W        W33556  12.975  12.222   1.708 -0.0749  0.1172 -0.4850
16033W        W33557   3.184  11.549   2.354  0.1420 -0.0217  0.1995
16034W        W33558   2.991   6.120   1.010  0.2552 -0.1597 -0.2417
16035W        W33559  17.223   7.898   2.454 -0.0900 -0.0054 -0.0382
16036W        W33560   0.976   1.649  11.306  0.2619 -0.0613 -0.1696
16037W        W33561   9.426   5.794   3.620  0.2715  0.0964  0.1161
16038W        W33562  17.602   1.508  13.376 -0.1984  0.1246  0.2888
16039W        W33563   2.508   2.521  11.518 -0.1834  0.0765  0.0309
16040W        W33564   2.215  17.623   5.866  0.0593 -0.2213  0.2471
16041W        W33565  14.552   7.192   1.936  0.1968  0.1429 -0.0196
16042W        W33566  12.811   5.050  10.026  0.0152 -0.2528 -0.0834
16043W        W33567   0.191  15.428   3.485  0.3022 -0.2020 -0.0669
16044W        W33568  17.886   2.755   4.773 -0.1491 -0.1349  0.0171
16045W        W33569  15.321  10.488   2.153 -0.0316  0.2555  0.1593
16046W        W33570  17.600   6.675  14.401 -0.0991  0.0965 -0.2194
16047W        W33571   0.843   4.715   2.100  0.1438  0.0282  0.2735
16048W        W33572  16.034   0.046   0.301  0.0517 -0.0010  0.1136
16049W        W33573  14.633   3.551   3.720  0.1683  0.1190  0.0090
16050W        W33574   7.778   6.208   0.394  0.1939  0.0174  0.0068
16051W        W33575  16.111   8.486  15.770 -0.5100 -0.0179  0.2351
16052W        W33576   5.341   5.902  10.957  0.3815 -0.0739  0.0687
16053W        W33577   2.075   8.273   0.135  0.3499  0.2419  0.0512
16054W        W33578  12.179  12.269   3.610 -0.1333  0.2288  0.3767
16055W        W33579  10.324   4.741  14.503  0.3333  0.0022  0.2045
16056W        W33580   4.733  12.446  11.790 -0.0066 -0.2962  0.1274
16057W        W33581  11.879  12.751   4.322  0.2106 -0.1018 -0.1500
16058W        W33582   0.145  17.945  14.826 -0.1983  0.2888 -0.1648
16059W        W33583   3.346   8.282   4.608 -0.0110  0.2807 -0.1739
16060W        W33584   1.727   1.168  12.076 -0.2735 -0.1436  0.2483
16061W        W33585   0.055  16.659   0.279 -0.3469  0.0680 -0.2424
16062W        W33586   8.915   3.182  11.270  0.0271 -0.0680  0.3224
16063W        W33587   9.297  16.373  14.235 -0.2355 -0.2513 -0.1039
16064W        W33588   3.295   7.643  13.758 -0.0034 -0.4021  0.1317
16065W        W33589   4.835  14.210   2.972 -0.2123  0.0512 -0.1966
16066W        W33590   8.587  11.622  13.001  0.2454  0.2266 -0.3729
16067W        W33591   9.934   9.577   4.220  0.0551  0.0411 -0.1541
16068W        W33592   7.977  12.526   4.661 -0.1100 -0.1455 -0.2232
16069W        W33593   9.390   1.747  13.826  0.0917 -0.1124 -0.0291
16070W        W33594   4.047   1.178  12.312  0.1534 -0.1961 -0.1335
16071W        W33595  14.395  12.260  14.908  0.1000 -0.0829 -0.0158
16072W        W33596  18.046  16.288  13.553 -0.3008 -0.1103  0.0766
16073W        W33597  12.334   0.462  11.800 -0.0220 -0.2077  0.0668
16074W        W33598   6.737   0.526  13.086  0.0772 -0.3475 -0.2164
16075W        W33599   0.419  10.003   1.610  0.0508  0.1659  0.0343
16076W        W33600  14.569  10.933  15.316  0.4055 -0.0817 -0.1841
16077W        W33601   2.899  17.083  14.413  0.4341 -0.0100  0.0410
16078W        W33602  17.405  18.059  13.997 -0.1193  0.0581  0.1660
16079W        W33603  12.839   2.348   0.492 -0.0411 -0.0528  0.0707
16080W        W33604   8.980  13.619  15.130 -0.0001 -0.0249  0.1183
16081W        W33605  11.366   0.901  12.028  0.2431  0.0779 -0.0674
16082W        W33606   1.128   1.371   2.293  0.1369 -0.2187  0.1625
16083W        W33607  16.992   4.367  15.567 -0.1564 -0.2078 -0.1362
16084W        W33608   9.538   8.620   1.280 -0.0097 -0.0271  0.4601
16085W        W33609   2.529   0.466  14.421 -0.0524  0.1380  0.5022
16086W        W33610  17.822   0.259   5.762  0.1726 -0.2694 -0.4687
16087W        W33611   0.276   6.186  11.625 -0.1593  0.0055 -0.1072
16088W        W33612   6.099  12.613  13.059  0.0666  0.0653 -0.0563
16089W        W33613  13.848   1.100  15.127  0.1305 -0.0644  0.1018
16090W        W33614   1.489  13.419  11.548  0.0889  0.0151 -0.0565
16091W        W33615  17.658  17.837  13.567 -0.0297  0.2371 -0.0191
16092W        W33616   1.453  13.349   1.842 -0.0652  0.2331 -0.0903
16093W        W33617  14.469   7.771   0.472 -0.1448 -0.0419  0.3824
16094W        W33618  17.833   1.297   4.563 -0.1932 -0.0100  0.0352
16095W        W33619  15.915   1.806  14.094 -0.0681 -0.0034  0.0232
16096W        W33620   3.278   4.430  12.387 -0.1402 -0.5011  0.2114
16097W        W33621  15.755   3.197   4.428 -0.1547  0.0020  0.0506
16098W        W33622  15.254   0.349  11.977  0.0397 -0.3475  0.0184
16099W        W33623  15.068   9.189   1.095  0.1796 -0.2220 -0.1230
16100W        W33624   4.199  11.537  14.592 -0.2413  0.0061 -0.1899
16101W        W33625   5.037  16.092  13.017  0.2023  0.1008 -0.1662
16102W        W33626   3.301   3.000   4.282  0.2052  0.2990  0.1793
16103W        W33627   4.462  14.818  14.003 -0.1457  0.1402  0.0704
16104W        W33628  15.609  11.261  12.634 -0.4289  0.0921 -0.2618
16105W        W33629  11.928   9.125   2.362  0.0417  0.0080 -0.1500
16106W        W33630   4.560   3.254  11.637  0.0333  0.4315  0.1620
16107W        W33631   0.367   0.941  11.559 -0.3003 -0.3860  0.1815
16108W        W33632  17.323   0.807  13.106  0.0925  0.0679 -0.0147
16109W        W33633   3.237   4.715   4.430 -0.0060  0.2686 -0.1276
16110W        W33634   0.620   2.727   2.112 -0.1355 -0.0504  0.0168
16111W        W33635  17.685  15.472   1.942  0.0669  0.0740 -0.1901
16112W        W33636   1.640  10.279   0.837  0.1510 -0.2867 -0.1081
16113W        W33637  14.459   3.725   1.407 -0.1463 -0.1728  0.1133
16114W        W33638   1.405   7.401   1.439 -0.1951  0.1674  0.0682
16115W        W33639  16.832   9.238  14.469  0.0549 -0.0822  0.3569
16116W        W33640   0.601  17.460  13.723  0.0376  0.0817  0.1064
16117W        W33641   5.448   5.320  11.957 -0.0545 -0.1892  0.2284
16118W        W33642  16.456  17.200   2.902 -0.2190  0.1884 -0.1873
16119W        W33643   0.650   2.791  13.812 -0.2753  0.1963  0.1404
16120W        W33644  12.461  16.237  13.025 -0.1137  0.1266  0.0567
16121W        W33645   3.590   7.549  14.758 -0.1247  0.4240 -0.0890
16122W        W33646  11.828   8.787  15.280  0.0133 -0.2523  0.2518
16123W        W33647   0.514  14.845   3.976 -0.0154 -0.0289  0.0489
16124W        W33648   6.842   8.446  11.403  0.0932  0.2092  0.1840
16125W        W33649   3.233  16.612  11.114 -0.2133 -0.3812  0.2174
16126W        W33650  12.896   1.800  11.429 -0.0187 -0.1426  0.0756
16127W        W33651   8.514  13.847  14.307 -0.0135  0.0328 -0.3597
16128W        W33652  10.692   9.289  13.205 -0.1504  0.0089  0.1804
16129W        W33653  13.756   5.473   3.827 -0.0237 -0.1673 -0.1163
16130W        W33654   9.877   8.515   0.869 -0.0956  0.2140  0.0109
16131W        W33655   7.562   2.920   0.687 -0.0883 -0.2432  0.2510
16132W        W33656  14.356  11.631   2.577  0.0137  0.0884  0.0284
16133W        W33657   7.159  13.605  12.018  0.3384 -0.1452 -0.2016
16134W        W33658  12.755  12.584  15.667  0.3379  0.0661  0.6031
16135W        W33659  16.625  10.552  14.451 -0.1573 -0.1949  0.0685
16136W        W33660  16.907   2.598  11.465 -0.0413 -0.3294  0.0243
16137W        W33661   5.767  16.085  11.646  0.1841 -0.0102 -0.1155
16138W        W33662  17.777  11.143  15.049 -0.0360 -0.1790  0.1916
16139W        W33663   0.938  14.186   4.327 -0.0838  0.2285  0.2517
16140W        W33664   0.601  12.965   0.928 -0.3953  0.2673 -0.0321
16141W        W33665  10.464   5.281  13.500 -0.2801  0.3125 -0.0227
16142W        W33666   4.236  14.502   2.360  0.1520  0.2010 -0.2463
16143W        W33667  13.524   3.054  12.533 -0.1237  0.2257  0.3602
16144W        W33668   3.873  11.146  14.730  0.1443 -0.0712  0.1025
16145W        W33669   4.145   5.209  12.311  0.2652  0.1422  0.0157
16146W        W33670   2.545  14.483   2.361 -0.2550  0.3070  0.2016
16147W        W33671   6.260   1.528  14.193  0.2680 -0.0865 -0.1669
16148W        W33672  17.931   2.434  13.620 -0.0838 -0.2157  0.0629
16149W        W33673   0.118   6.675  15.970 -0.0937 -0.0995 -0.0819
16150W        W33674  13.296  16.157  14.587  0.0914 -0.0818 -0.0700
16151W        W33675  11.353   7.783  13.282  0.0018 -0.1141  0.1415
16152W        W33676  11.409   1.177  12.431  0.0821  0.0725  0.2701
16153W        W33677   9.466   2.457  10.208  0.2155 -0.4781 -0.2972
16154W        W33678   2.506  14.412  14.196 -0.0597 -0.0122 -0.1764
16155W        W33679   7.061   1.196  12.509 -0.1533 -0.1862 -0.1633
16156W        W33680   7.827   9.590  14.191  0.2057 -0.2505 -0.0871
16157W        W33681  16.052   1.149   0.406 -0.0743  0.0636  0.0312
16158W        W33682  16.539  14.567  15.895 -0.0929 -0.0041 -0.3282
16159W        W33683   4.454   1.117   2.891  0.1430  0.1382  0.0310
16160W        W33684   8.746  15.691  14.092  0.0717 -0.1191 -0.1786
16161W        W33685   3.896  16.867   1.230  0.1318 -0.1325 -0.0136
16162W        W33686  14.816  11.369   4.098  0.1246  0.0034 -0.1645
16163W        W33687   3.225  18.109  12.313 -0.1994  0.2659  0.0689
16164W        W33688   1.359  14.832  14.552 -0.0544  0.0693  0.1940
16165W        W33689  12.477  16.403   1.462 -0.1785  0.0564 -0.0865
16166W        W33690  12.514  16.890   1.643 -0.2613 -0.1380 -0.1970
16167W        W33691   3.991   2.883  14.232  0.0133  0.0091 -0.0341
16168W        W33692  11.915   8.145   4.354  0.2943  0.0832  0.0981
16169W        W33693  10.466  17.402  11.092 -0.2872 -0.0585  0.0358
16170W        W33694   4.582  11.435  14.232 -0.3436 -0.4106  0.2175
16171W        W33695  14.028   6.894  13.228 -0.1413  0.1124 -0.1304
16172W        W33696  13.609   4.833  14.920  0.1133  0.0800 -0.1731
16173W        W33697  17.033   4.200   2.900 -0.0147 -0.3462  0.0863
16174W        W33698  16.563   9.161   1.127 -0.1219  0.1587  0.1284
16175W        W33699   4.778  15.789  13.921 -0.2460 -0.1411 -0.1564
16176W        W33700  14.573   0.199   4.671 -0.1004  0.0165  0.1291
16177W        W33701   7.866  18.098  11.431 -0.2490  0.0178 -0.2644
16178W        W33702   6.425   3.479   2.738 -0.2930  0.2765 -0.2246
16179W        W33703   3.774   8.321   1.541  0.1103  0.4167  0.2965
16180W        W33704  15.057  10.956  14.527  0.2901 -0.0528 -0.1097
16181W        W33705   0.509  12.569  14.466  0.3443  0.0432  0.1046
16182W        W33706  16.011  10.350   1.431 -0.1348  0.1237  0.0124
16183W        W33707  14.006   6.138  15.769  0.1987  0.0117 -0.2252
16184W        W33708   1.194   1.566  15.195  0.0008 -0.5029 -0.2686
16185W        W33709   1.131   5.510  10.304  0.4825  0.0509 -0.1274
16186W        W33710   6.848  18.005  12.741 -0.1382 -0.1379 -0.2262
16187W        W33711   4.823   1.468   1.946 -0.0619 -0.1627 -0.0770
16188W        W33712  10.135   4.567   4.133  0.3440  0.0064  0.2631
16189W        W33713  14.964  17.495   2.172 -0.1158 -0.1928  0.1795
16190W        W33714  17.584  15.412   4.204 -0.0740  0.2920 -0.1024
16191W        W33715   3.927   7.155   0.939 -0.1458 -0.0549  0.0474
16192W        W33716  10.891   1.373  12.465  0.1456 -0.1248 -0.0489
16193W        W33717   4.735   0.548  14.156 -0.1562 -0.1186 -0.1095
16194W        W33718   8.031   5.976   2.698 -0.1780 -0.2295 -0.0572
16195W        W33719  12.075   3.957   0.365  0.0999 -0.2233  0.3479
16196W        W33720  16.456   9.819   2.654  0.0765  0.3090 -0.2023
16197W        W33721   7.047   3.304   1.336 -0.2117  0.4457 -0.0613
16198W        W33722  16.108  14.517   0.117  0.0316 -0.0250 -0.1368
16199W        W33723   7.938   6.740   3.212  0.0113  0.0953 -0.3424
16200W        W33724   2.288   3.288   1.189 -0.1333  0.0281 -0.1596
16201W        W33725  15.916  10.951  14.088 -0.3163 -0.1345  0.1033
16202W        W33726  12.100   9.261   0.815  0.0895  0.1811 -0.0617
16203W        W33727  16.803  12.854   1.144  0.0537  0.2003  0.2550
16204W        W33728  10.045   9.224   1.031 -0.0133 -0.2769 -0.1106
16205W        W33729   3.285  12.902   2.545 -0.0144 -0.3550 -0.2026
16206W        W33730   4.299   5.378   0.637  0.1765  0.0612  0.0753
16207W        W33731   1.573   1.277  15.521 -0.2123  0.2907  0.1007
16208W        W33732  11.269   0.344   2.268  0.2523 -0.0452 -0.1961
16209W        W33733   3.537   6.568  14.116 -0.1564  0.1233  0.0130
16210W        W33734   6.248   1.649  15.168 -0.0462 -0.4052  0.3590
16211W        W33735   2.495  17.922  10.176 -0.0043 -0.1992  0.0707
16212W        W33736  11.234   6.167  12.210  0.0481  0.2945  0.1362
16213W        W33737  13.909   6.795  12.639  0.0217  0.0565 -0.1368
16214W        W33738  12.531  14.838   0.399 -0.1067 -0.2441  0.1643
16215W        W33739  15.601   8.008  14.595  0.0170  0.1849 -0.0630
16216W        W33740  17.821  10.612   1.837  0.0534 -0.0421 -0.2210
16217W        W33741   5.554  14.323  13.811  0.1704 -0.0913  0.0086
16218W        W33742  12.984   0.837  15.517  0.2348 -0.1524 -0.3356
16219W        W33743   3.714  11.912   3.654  0.2221  0.0762  0.1725
16220W        W33744  11.400   9.635   4.852  0.0979  0.0472  0.1498
16221W        W33745   7.927  17.405   2.433  0.2059 -0.2414 -0.0505
16222W        W33746   4.220   7.948   5.463 -0.0128 -0.0338  0.0207
16223W        W33747   5.320  16.020  14.511  0.1345 -0.1878  0.0997
16224W        W33748   3.244   9.393  14.553 -0.0414 -0.2148  0.2288
16225W        W33749   5.270  12.784   5.160 -0.1521  0.0142 -0.0831
16226W        W33750   2.188  13.754   2.881  0.0712 -0.0183 -0.0638
16227W        W33751   3.834   9.008   4.527  0.1123 -0.2986 -0.0274
16228W        W33752  13.099   8.505   2.130 -0.0139  0.0542  0.0908
16229W        W33753  13.608  15.975  14.250 -0.1789  0.1652  0.0270
16230W        W33754   4.221   7.115  11.312 -0.2102  0.0659  0.1430
16231W        W33755   5.500   2.407  11.654 -0.2170 -0.0146 -0.2504
16232W        W33756  12.553  11.762   5.518 -0.0288 -0.1326 -0.1324
16233W        W33757   1.557   5.121   4.031 -0.1646  0.0100 -0.2197
16234W        W33758  10.995   0.880   3.533  0.0810  0.1836 -0.1654
16235W        W33759   1.302   2.593  14.437 -0.3081  0.1972  0.4872
16236W        W33760  14.739  10.031   4.384 -0.0639 -0.1706 -0.1759
16237W        W33761   7.949   9.012  15.567 -0.0114  0.1882 -0.0129
16238W        W33762  16.420   4.809  11.111 -0.0159 -0.0528  0.0521
16239W        W33763  17.976   0.884   1.243  0.0659 -0.1602 -0.1126
16240W        W33764   3.194   4.039  14.416 -0.1773  0.4289  0.1188
16241W        W33765  15.601  13.302   0.507 -0.0101  0.1115 -0.3446
16242W        W33766   3.840  10.232   1.472  0.0298 -0.3472  0.2705
16243W        W33767  13.698  11.472   0.367  0.1540 -0.4001  0.0997
16244W        W33768   0.866  12.908  14.320 -0.0561 -0.0044 -0.3069
16245W        W33769  10.227  13.180  12.022 -0.0044 -0.2474 -0.2059
16246W        W33770  14.007  12.793  11.929 -0.3017  0.0528  0.1210
16247W        W33771   5.687   8.476  15.419 -0.1851 -0.2671 -0.2683
16248W        W33772   4.948   4.102  11.501  0.1743  0.1559  0.0624
16249W        W33773   9.009   5.148   4.029 -0.1320 -0.0970 -0.0459
16250W        W33774   1.388  13.706  14.870 -0.3274 -0.1526 -0.1006
16251W        W33775   9.283  11.490   3.785 -0.0554 -0.0724 -0.1374
16252W        W33776  13.536  10.093   0.727  0.1677 -0.0173 -0.0725
16253W        W33777  10.423   7.523  13.878  0.0011 -0.2562  0.0758
16254W        W33778   6.114  17.156  12.777  0.4161  0.2843  0.1073
16255W        W33779  13.391   0.517   0.899  0.2311  0.0993  0.0226
16256W        W33780  13.630   5.048   5.513 -0.1419  0.1640 -0.1911
16257W        W33781   3.866   1.618   3.943 -0.0447  0.0698 -0.1826
16258W        W33782   2.253  17.417  14.866  0.1468  0.1006 -0.0573
16259W        W33783   2.165   9.794  15.405 -0.0109  0.1398 -0.1144
16260W        W33784   3.109   8.643  11.131  0.0567 -0.0121 -0.1383
16261W        W33785   2.931   3.368  12.657 -0.1033 -0.0023  0.1564
16262W        W33786  10.201   0.328   3.572  0.1003 -0.2207 -0.1934
16263W        W33787  15.341  17.146  13.746 -0.0045  0.0791 -0.0143
16264W        W33788   9.691  14.506  15.782  0.1113 -0.2257 -0.0558
16265W        W33789  15.960  13.529  14.614  0.0801 -0.0567 -0.1561
16266W        W33790  17.431   2.147  15.659 -0.4699 -0.1140  0.2625
16267W        W33791   8.675   5.956  13.450  0.1950  0.3055  0.1973
16268W        W33792   9.266  11.625  11.189  0.0914 -0.1220  0.0485
16269W        W33793   9.468  13.172  15.536 -0.0840  0.0645 -0.0749
16270W        W33794   4.488   7.051   0.371 -0.1672  0.2181  0.0204
16271W        W33795  16.200  13.664  13.326  0.2872 -0.0315  0.2708
16272W        W33796  12.620   7.038   3.089 -0.1130 -0.0048  0.1561
16273W        W33797   1.170  14.210  12.695 -0.0733  0.2394  0.2962
16274W        W33798   4.445   9.419  14.912 -0.0074 -0.1539  0.0194
16275W        W33799   8.818  13.844  14.751 -0.0951 -0.1312 -0.1997
16276W        W33800   8.732  10.747   5.983  0.3640  0.2745  0.0802
16277W        W33801   0.371   0.624  10.550 -0.0956 -0.2724  0.1524
16278W        W33802   2.173  17.442   4.042 -0.0646  0.0803  0.0455
16279W        W33803  15.892  15.697  14.779  0.1105 -0.1964  0.0315
16280W        W33804  13.071   1.329  11.683  0.1318  0.0295  0.0515
16281W        W33805   7.389  14.001  12.676  0.1669  0.0335 -0.2070
16282W        W33806   7.007   2.334  14.960  0.1080 -0.0868  0.0290
16283W        W33807   9.342  11.061   1.234 -0.0935 -0.1166 -0.0745
16284W        W33808   2.066   7.438   0.534  0.1598 -0.1305  0.0338
16285W        W33809  11.326   2.631  14.781  0.1139 -0.0269 -0.3067
16286W        W33810  12.364  13.748  15.517  0.0130  0.0993  0.2116
16287W        W33811   0.509   2.055   1.652  0.4715 -0.0721  0.0901
16288W        W33812  14.180   8.488   3.765  0.0835  0.2026 -0.1341
16289W        W33813   2.843   4.113  12.350  0.1049 -0.0761 -0.1261
16290W        W33814   0.194  10.749  12.024  0.1040 -0.1340  0.0890
16291W        W33815   3.135  16.695  15.296 -0.1945  0.1700 -0.2083
16292W        W33816   3.374  10.882  11.478 -0.0982  0.0152 -0.0932
16293W        W33817   0.962  15.107  14.634 -0.0431  0.2188 -0.0808
16294W        W33818   0.246   4.303   2.592  0.0732 -0.1067 -0.1741
16295W        W33819   7.734   7.983  13.543 -0.1906 -0.1682 -0.3992
16296W        W33820   8.695  12.273   2.647 -0.1076  0.2728  0.1988
16297W        W33821   1.394   6.272   4.184 -0.1476 -0.2461 -0.1805
16298W        W33822  11.241   6.514   4.944 -0.0130 -0.1768 -0.1684
16299W        W33823   4.517   6.750   2.093 -0.1251  0.1159 -0.3281
16300W        W33824  16.547   4.200  13.450  0.3442 -0.1831 -0.0958
16301W        W33825   3.356   8.990  14.184  0.3294 -0.1661  0.1936
16302W        W33826   9.959  11.364   1.892 -0.2759  0.2756  0.2695
16303W        W33827   4.518   7.179   2.473  0.0377  0.0528 -0.0844
16304W        W33828  11.442  13.905  12.870  0.3564  0.0287 -0.1764
16305W        W33829   8.577   1.778  14.622  0.1858  0.2386  0.0436
16306W        W33830   5.071  17.674   0.787 -0.0244  0.0745  0.0237
16307W        W33831  14.974  16.055   5.311 -0.2503  0.3001  0.0084
16308W        W33832  15.315   3.338  14.337  0.0431 -0.0039 -0.1288
16309W        W33833   4.945   5.651   3.449  0.1808  0.1680  0.0207
16310W        W33834   5.925  16.007   2.200 -0.0205 -0.0373  0.1114
16311W        W33835   1.380   5.883   4.506 -0.0565 -0.2511 -0.3716
16312W        W33836  11.714   6.956  13.702 -0.0602  0.1966 -0.0481
16313W        W33837  14.677  12.230   2.031  0.2301  0.3420  0.0041
16314W        W33838   6.864  15.234  11.525 -0.0436  0.1756  0.1930
16315W        W33839   4.924   1.622  14.296 -0.1708 -0.0918 -0.3491
16316W        W33840   4.205  10.836  14.065 -0.0369 -0.0096 -0.0842
16317W        W33841  14.859  17.932  13.897  0.2491  0.4050  0.1697
16318W        W33842  14.455  11.537  14.211  0.0702 -0.2740 -0.0902
16319W        W33843   8.874  13.440  14.377  0.1549 -0.2118  0.0708
16320W        W33844   2.314   2.496   4.963  0.1491  0.2834  0.2056
16321W        W33845   1.151  10.239   1.900 -0.1618  0.0530 -0.1347
16322W        W33846   8.763  16.831   3.372 -0.2060  0.1366 -0.1758
16323W        W33847   7.267  13.908   2.234 -0.4022 -0.1835 -0.0097
16324W        W33848  17.745   4.630  13.719  0.0884 -0.2459  0.2553
16325W        W33849  10.230   4.907   5.682 -0.0974  0.1967  0.1491
16326W        W33850   9.636  11.503  13.112  0.0800 -0.1808 -0.0063
16327W        W33851  14.678   4.654   1.551  0.2537 -0.3462 -0.0595
16328W        W33852  12.256   1.073   1.475 -0.3148 -0.1850 -0.3000
16329W        W33853  17.370  16.282  12.445  0.1157 -0.1525 -0.0257
16330W        W33854  14.010   2.992   1.150 -0.4123 -0.0460  0.3583
16331W        W33855   8.476  15.289   3.408  0.1436 -0.1450 -0.2531
16332W        W33856   8.992  13.764  11.624  0.2157  0.1877  0.0526
16333W        W33857   8.743   5.158  13.002 -0.3352 -0.2451 -0.1615
16334W        W33858   8.151   8.315  13.610 -0.1060 -0.0610 -0.2204
16335W        W33859  15.365  13.560   1.979 -0.1118  0.2868  0.1320
16336W        W33860  13.184   6.301   1.159  0.0926 -0.1635 -0.2943
16337W        W33861  12.739   9.854   0.736 -0.1642  0.3224 -0.1766
16338W        W33862   4.034   8.065  12.234  0.1224 -0.0076  0.2690
16339W        W33863   1.575  16.554   4.583  0.0203 -0.2245  0.1217
16340W        W33864  11.546   7.890  12.372  0.1598 -0.0626 -0.3088
16341W        W33865   4.333  10.793   0.924  0.0685 -0.0982  0.0483
16342W        W33866  12.929  17.125   0.720  0.1510  0.1064  0.2721
16343W        W33867  17.234   3.075   0.576 -0.2335  0.0331  0.0454
16344W        W33868   0.906  17.881  15.577 -0.0531 -0.1176  0.4092
16345W        W33869  16.945  11.309   3.545  0.0554  0.0097  0.0862
16346W        W33870  13.998  10.314  15.971  0.2603 -0.3134 -0.3137
16347W        W33871  14.773   3.317  12.878  0.2615 -0.1586  0.0076
16348W        W33872  16.459  15.665  15.728  0.2327 -0.2485 -0.0643
16349W        W33873  11.576   8.518   5.188  0.1979  0.1251  0.0224
16350W        W33874   3.508  14.395  14.221  0.0431 -0.2148  0.0712
16351W        W33875   3.311  10.465   2.979 -0.0314  0.0233  0.4162
16352W        W33876   9.954   4.719  15.327  0.0058 -0.3848  0.0352
16353W        W33877  10.115   9.395  15.339 -0.0003 -0.1922  0.1092
16354W        W33878  12.695  13.406  15.185  0.0020 -0.0717 -0.2354
16355W        W33879  15.062   7.731  15.856 -0.1866  0.1142  0.2156
16356W        W33880  11.089  16.480   3.158  0.0184  0.1048  0.5232
16357W        W33881  14.499  14.149   2.993  0.4068  0.0580  0.2283
16358W        W33882   0.704   4.827   0.289  0.1047  0.1290 -0.1471
16359W        W33883   0.535  13.664   1.964  0.0301 -0.0004  0.1423
16360W        W33884   6.779  17.369  12.168 -0.0722 -0.0860  0.1258
16361W        W33885   5.630  13.076   0.255  0.2473 -0.1682  0.0669
16362W        W33886  17.816  12.245  15.967 -0.0864  0.0453  0.5424
16363W        W33887  13.640   0.706  14.797 -0.0050  0.4919  0.2254
16364W        W33888  11.182   4.368   1.780 -0.0753 -0.0025  0.0694
16365W        W33889  17.300   6.025   3.666 -0.0322  0.0239 -0.0650
16366W        W33890   2.665  18.122  14.433  0.1624 -0.0793 -0.0724
16367W        W33891   1.977  13.594  13.112 -0.1068  0.0154  0.0040
16368W        W33892   2.298  13.871   1.401 -0.0239 -0.1120 -0.0430
16369W        W33893  14.044   9.822   1.367 -0.1311 -0.1433  0.2500
16370W        W33894  12.254  13.037   0.882  0.0473  0.0291  0.0931
16371W        W33895  11.197  13.882   1.898  0.2340  0.5320  0.1001
16372W        W33896   6.652   2.549   2.105 -0.2619 -0.1898 -0.0431
16373W        W33897   2.868   6.255  15.034  0.0739 -0.1071 -0.0561
16374W        W33898   4.544  17.809  14.112 -0.3153 -0.0191  0.0680
16375W        W33899   6.871  10.814  11.804 -0.2279 -0.0131  0.4793
16376W        W33900   0.080   7.617  13.382  0.1100  0.2009  0.0717
16377W        W33901   8.514   4.288   0.506 -0.0219  0.1386 -0.1451
16378W        W33902   4.535   7.260   0.876  0.0866  0.2450 -0.1804
16379W        W33903   3.584   6.888   4.900  0.3281 -0.0035  0.3180
16380W        W33904   9.411  10.288  11.802  0.0238 -0.3330  0.2730
16381W        W33905  14.602  10.805   0.446  0.0030  0.0082  0.0502
16382W        W33906  14.594   6.223   0.089 -0.0207  0.1736 -0.0739
16383W        W33907   2.738   9.973  13.344  0.2512 -0.3365  0.0349
16384W        W33908   3.695  12.211   2.016  0.2816 -0.0414 -0.1073
16385W        W33909  10.667   9.048   3.324 -0.0172 -0.4461 -0.0225
16386W        W33910   7.180  11.563   4.763  0.0451  0.0338 -0.1947
16387W        W33911  17.402  13.005  16.002  0.0970 -0.2475 -0.4715
16388W        W33912  10.697   1.659   2.424  0.1124  0.0166 -0.0606
16389W        W33913   0.405  14.025  12.339  0.0366 -0.1306 -0.0094
16390W        W33914   0.006   8.060  14.824  0.0995 -0.0970  0.0495
16391W        W33915  16.176   0.555  13.075 -0.3269  0.1842  0.1216
16392W        W33916  17.280  16.669   5.187  0.0327  0.1310  0.0778
16393W        W33917  15.521   2.083   2.704  0.4088  0.1353  0.4716
16394W        W33918  13.624   7.633   3.568  0.1326 -0.1918 -0.0088
16395W        W33919  14.300   8.493   2.778  0.0686  0.2813  0.0069
16396W        W33920  12.948  11.146  13.411 -0.1137 -0.0906  0.2428
16397W        W33921  14.557  17.122  13.890  0.0457 -0.3022 -0.1400
16398W        W33922  13.470   3.251   2.918 -0.0735  0.4809 -0.0487
16399W        W33923  13.217   2.004  13.614  0.0782  0.1432  0.2607
16400W        W33924   7.547   9.234   4.317 -0.0542  0.0337  0.0949
16401W        W33925  11.864   8.317  13.121  0.4393 -0.0721  0.0779
16402W        W33926  10.759   1.952   3.976 -0.2402  0.1180  0.0274
16403W        W33927   9.368  16.169   2.025 -0.1475 -0.0971 -0.1382
16404W        W33928   0.385   3.265  11.075 -0.3422  0.1650  0.0237
16405W        W33929   2.637  13.991  12.684  0.0205  0.1634  0.0879
16406W        W33930  15.167   2.219   1.292 -0.1159  0.1901  0.2142
16407W        W33931  15.943  15.626  13.278  0.2480  0.1302  0.1685
16408W        W33932  16.165  10.589  13.803  0.1221 -0.3206  0.0022
16409W        W33933  17.653  16.646   4.762  0.1090  0.1237  0.0227
16410W        W33934   7.200   9.111  13.268 -0.0429  0.1044  0.2586
16411W        W33935   4.598   5.817  13.755 -0.0930 -0.3660 -0.1206
16412W        W33936   9.323   1.395  11.890  0.1507 -0.0404 -0.0439
16413W        W33937  14.326   6.724   5.844  0.0908 -0.0120  0.0768
16414W        W33938  10.649   9.269   4.736 -0.0690 -0.0231 -0.1110
16415W        W33939  15.503  15.088   4.693 -0.0739  0.2645  0.1371
16416W        W33940   2.543   4.129   4.088  0.0049  0.0551  0.2749
16417W        W33941  13.034   1.150  13.695  0.2857  0.2281  0.0745
16418W        W33942   8.586  15.824  14.976 -0.2940  0.2323  0.2607
16419W        W33943   7.448   8.738  12.474 -0.1293  0.0729 -0.0241
16420W        W33944  13.584  16.426   2.349  0.2420  0.0304 -0.0322
16421W        W33945   6.137  12.415  13.653  0.2288 -0.0735  0.0683
16422W        W33946  15.780   1.916  15.401 -0.2650  0.0030 -0.2745
16423W        W33947   3.384  14.010   0.447 -0.1466 -0.3161  0.2477
16424W        W33948   2.767   8.669  11.877 -0.0925  0.3543  0.5747
16425W        W33949   9.680  18.004  12.809  0.0809  0.0257  0.0273
16426W        W33950   5.905   0.522   2.554  0.0448 -0.1255  0.1230
16427W        W33951  16.147  15.559  12.086 -0.1006  0.1068  0.0222
16428W        W33952   7.055   4.871  10.949 -0.3600  0.1039 -0.1044
16429W        W33953   6.450   8.510  12.277  0.1544  0.0521 -0.1218
16430W        W33954   0.667  11.618  12.286 -0.0015 -0.2829 -0.1066
16431W        W33955  15.461  13.316   6.061 -0.1553 -0.0038  0.0150
16432W        W33956  11.703  13.969   5.045 -0.1769 -0.3957  0.0607
16433W        W33957   2.899   2.159  11.406  0.2458 -0.1048 -0.0275
16434W        W33958   8.409   1.695   3.357  0.2861  0.3653 -0.1615
16435W        W33959   3.108  10.629   5.090 -0.0454 -0.0551  0.2443
16436W        W33960  12.250   7.755  14.404 -0.3875 -0.0664  0.0018
16437W        W33961   2.751   2.222  15.848  0.2017 -0.2179 -0.0359
16438W        W33962  17.854   9.032  12.583  0.5246 -0.0043 -0.2240
16439W        W33963  17.525  13.207   4.726 -0.2082  0.0571 -0.0126
16440W        W33964   6.690  13.685   1.758  0.3198 -0.1657  0.1328
16441W        W33965   0.169   6.223   1.903  0.3004 -0.1441  0.0667
16442W        W33966   1.681   9.558  10.696  0.1822  0.0565  0.4553
16443W        W33967   3.340   3.058   1.017  0.2227  0.1963 -0.0227
16444W        W33968   7.886   6.720   2.727 -0.0577  0.1410 -0.0513
16445W        W33969  13.685   5.239  13.564  0.1313  0.4112  0.0871
16446W        W33970  12.383   8.179   0.074  0.2764 -0.0189  0.0665
16447W        W33971   4.119   5.948   0.362  0.1334  0.2523 -0.0283
16448W        W33972   1.546   7.385  14.707  0.0201 -0.2127 -0.1158
16449W        W33973  14.683   7.646  14.702  0.1389 -0.2994 -0.0197
16450W        W33974   8.475  16.288  15.993 -0.0346 -0.1995  0.2897
16451W        W33975  15.890   8.310  14.878 -0.0231  0.2735 -0.1515
16452W        W33976   9.466   5.324   3.437  0.0298 -0.0951  0.0791
16453W        W33977  12.260  15.390  13.046 -0.0391 -0.2240  0.2033
16454W        W33978   7.186  16.001  13.890  0.2636 -0.1171 -0.6982
16455W        W33979   9.248  11.517   0.916  0.0522  0.2594 -0.0072
16456W        W33980  15.984  15.293   3.092 -0.3772  0.0271 -0.1864
16457W        W33981   0.993  15.107   0.721  0.1194  0.2661  0.1382
16458W        W33982  14.209  10.118   2.602  0.1902 -0.0759  0.1093
16459W        W33983  10.289  15.108   4.639  0.1540 -0.1450  0.1162
16460W        W33984   6.635   3.590  14.446  0.1435  0.1292  0.0203
16461W        W33985   9.467  13.663  11.710  0.1253  0.1922  0.1018
16462W        W33986   9.191   8.726  14.934 -0.1638  0.1566 -0.0825
16463W        W33987   3.209   0.400  15.667 -0.0538 -0.0605  0.0031
16464W        W33988  11.069   9.930  12.545  0.1681  0.0815  0.1572
16465W        W33989   5.165   7.952   1.185  0.2659  0.1583 -0.1614
16466W        W33990  13.624   3.322  15.884 -0.1871 -0.0264 -0.1136
16467W        W33991   7.067   8.722   6.153  0.0016  0.0657 -0.1686
16468W        W33992  15.621  15.821  11.481  0.2085 -0.0088  0.0108
16469W        W33993  13.741   9.808   4.568  0.2559  0.0762 -0.0912
16470W        W33994   6.656  12.338   1.202 -0.1331  0.0700 -0.1187
16471W        W33995   4.233   0.214   1.549 -0.0716 -0.1658  0.1599
16472W        W33996   2.903   4.960   0.678  0.1076  0.2025  0.2377
16473W        W33997   3.089  13.404   1.011 -0.0856  0.4156  0.0539
16474W        W33998   0.498   8.212  14.892 -0.1818  0.1532  0.2039
16475W        W33999   8.847   0.768  15.482  0.0460 -0.0938  0.1140
16476W        W34000   0.358  16.809  14.700  0.0571  0.4531 -0.1727
16477W        W34001  16.651  18.043   2.254 -0.0037 -0.0999 -0.0432
16478W        W34002  12.858   5.667  13.649  0.0540  0.0877 -0.1039
16479W        W34003  15.279   2.487   2.987 -0.3396 -0.0567 -0.3174
16480W        W34004  12.190  11.614  13.995 -0.0243 -0.1888 -0.1931
16481W        W34005   6.851   8.127  10.989 -0.0890 -0.0334 -0.0426
16482W        W34006  12.041  11.081   2.600  0.2051  0.1069  0.1363
16483W        W34007   8.493   0.004   0.981  0.0955  0.0315 -0.0435
16484W        W34008   4.918  17.962  14.998 -0.0944 -0.2843  0.1746
16485W        W34009  15.709  10.421  15.854  0.2724 -0.0963  0.1124
16486W        W34010   1.026  13.133   1.178  0.0424 -0.2123  0.1589
16487W        W34011  11.716  11.722  15.881  0.1044  0.0914 -0.0960
16488W        W34012   7.875   4.741  11.119 -0.1121  0.0221  0.0768
16489W        W34013   0.514  10.787  11.037  0.4455 -0.0611 -0.2843
16490W        W34014   2.894   4.193  12.826  0.0668 -0.2013  0.0201
16491W        W34015   2.357  15.873   4.866 -0.1101  0.1180 -0.1496
16492W        W34016   3.762  17.731  13.488 -0.0585 -0.0408 -0.1571
16493W        W34017   8.887   1.616   0.408  0.0968  0.0851 -0.0160
16494W        W34018   4.019   1.916   2.597 -0.0307  0.2378 -0.0757
16495W        W34019   3.443  17.283   3.507 -0.0512 -0.0226  0.0512
16496W        W34020   4.298  10.720  13.110 -0.0754 -0.0371 -0.1541
16497W        W34021   9.661  14.432  14.955  0.0037 -0.0341  0.2814
16498W        W34022  11.008  12.611  14.695  0.0778  0.0754  0.2466
16499W        W34023   7.614  16.911   0.092 -0.3418 -0.1109 -0.2081
16500W        W34024   7.539  13.377  14.242 -0.3000  0.1496  0.2310
16501W        W34025  11.358  12.131  14.551  0.1862 -0.4388  0.0255
16502W        W34026  16.886   1.739   1.232  0.0797 -0.2541 -0.1861
16503W        W34027  13.680   1.783   2.181 -0.0911  0.1618  0.0258
16504W        W34028  12.334  15.007  14.755  0.2998 -0.0997  0.0821
16505W        W34029   2.886  14.357   4.490 -0.0438 -0.0148 -0.1784
16506W        W34030  17.387   0.428   4.573 -0.0083 -0.0684 -0.3458
16507W        W34031  12.287   0.073   5.449  0.0668  0.3042 -0.2363
16508W        W34032   0.450   6.728  15.049  0.0033 -0.0199 -0.0536
16509W        W34033   1.872  12.784  15.893  0.0833  0.0691 -0.1286
16510W        W34034   6.581   1.930  14.598  0.1941 -0.0927  0.1430
16511W        W34035   2.132  14.462  13.022  0.0316 -0.0402  0.0281
16512W        W34036  17.726   1.439   3.404 -0.0376  0.0148  0.1032
16513W        W34037   8.487   4.303  13.755  0.1561 -0.0594 -0.1528
16514W        W34038  14.383  15.327   6.089 -0.1575  0.0778  0.1499
16515W        W34039   0.040  15.771   5.108  0.3468  0.2401 -0.1182
16516W        W34040  13.627   9.598  14.449 -0.0683 -0.0772  0.1987
16517W        W34041   8.117   6.873  15.042 -0.0703 -0.0243 -0.2160
16518W        W34042   2.329  10.721   1.564 -0.1161 -0.0769  0.2452
16519W        W34043   3.455  12.893  14.449 -0.1630 -0.0179 -0.2337
16520W        W34044   7.965  13.166  12.695  0.1008  0.0884 -0.0714
16521W        W34045  15.710   0.227  15.702 -0.2510  0.2673  0.0440
16522W        W34046   7.807  11.283  12.856 -0.0174 -0.1909  0.2098
16523W        W34047   9.073   2.398   4.745  0.1117 -0.2561 -0.0432
16524W        W34048  12.601  10.604  13.373 -0.0356 -0.1161 -0.1386
16525W        W34049   8.178   4.984  16.055  0.0899 -0.4457  0.2614
16526W        W34050   7.719   6.954  15.355  0.0782  0.2614  0.1389
16527W        W34051  10.170  15.829  12.738 -0.1124 -0.6010  0.1460
16528W        W34052   7.550  17.140  14.398  0.0510 -0.1522  0.2530
16529W        W34053   5.912   6.777   2.104  0.0442  0.0473 -0.0511
16530W        W34054  12.256   9.517   1.460 -0.0769  0.0465  0.0020
16531W        W34055   2.234   1.093  11.521  0.0079  0.1273 -0.0925
16532W        W34056   9.764   0.609   3.647  0.0459 -0.0101 -0.2401
16533W        W34057  13.219   2.604   1.246 -0.0435  0.1260  0.1726
16534W        W34058   9.198  11.635   2.801 -0.0884 -0.0965  0.2970
16535W        W34059   6.136   2.747   3.916 -0.2036  0.0392 -0.1297
16536W        W34060   0.840   7.433  11.530  0.1397 -0.0536 -0.2208
16537W        W34061   7.395  13.161  11.865  0.1176  0.0872  0.0836
16538W        W34062  11.792  13.429   1.408  0.0262  0.1785  0.2652
16539W        W34063  13.335   9.231  14.390 -0.0291  0.3789 -0.1814
16540W        W34064   0.206   1.095  12.459 -0.1504 -0.1999 -0.2691
16541W        W34065  16.403  15.821   1.170 -0.0943 -0.1556 -0.1120
16542W        W34066  16.239   7.160  11.649 -0.2369  0.0159  0.1155
16543W        W34067   9.217  14.322  12.794 -0.0534  0.1910  0.0923
16544W        W34068   7.392   1.267   3.945 -0.2598 -0.2597 -0.2327
16545W        W34069  17.868   5.362  15.466  0.1416  0.5491  0.1342
16546W        W34070  17.501   8.585  14.276  0.4870  0.0015 -0.0379
16547W        W34071  11.696   6.342  12.187 -0.1884  0.3015  0.2597
16548W        W34072   7.215  12.979  12.863 -0.1436 -0.0404  0.0912
16549W        W34073   0.977  13.368   2.687  0.0207  0.0553  0.2610
16550W        W34074  18.109  11.882  11.350 -0.0688 -0.0060  0.0980
16551W        W34075  14.577   2.559  15.062 -0.0108 -0.3295 -0.1420
16552W        W34076  15.016   9.816   1.684  0.0065 -0.1286 -0.4408
16553W        W34077  16.062   5.118  14.381 -0.2441  0.1430 -0.3826
16554W        W34078   8.022  17.451   0.555  0.0958  0.1631  0.3152
16555W        W34079   9.215   3.614  11.027 -0.1343 -0.2055  0.1648
16556W        W34080  15.098  17.579  13.530  0.2101 -0.0101  0.1461
16557W        W34081  13.247  14.735  10.731  0.0180  0.2536  0.1758
16558W        W34082  11.261  14.819  12.985 -0.2080  0.1144 -0.2697
16559W        W34083   4.031  16.818   2.109  0.0393 -0.1578  0.0278
16560W        W34084  16.665  10.874  13.471 -0.1543  0.0409  0.1183
16561W        W34085   3.552  11.215   0.661 -0.1205 -0.0275  0.4861
16562W        W34086   4.662   9.959   1.961  0.0560  0.0889  0.2443
16563W        W34087   2.532  13.893   0.605 -0.1722 -0.0947 -0.0510
16564W        W34088   6.868   5.204   2.696  0.0930 -0.1041  0.0718
16565W        W34089  14.729   2.466  12.421 -0.0734 -0.1654 -0.1386
16566W        W34090   5.801  10.071  14.788  0.3062  0.3039 -0.0766
16567W        W34091  11.276  10.030  13.220  0.2856  0.1040 -0.2800
16568W        W34092   5.212   2.634  14.521  0.0890  0.0685 -0.1165
16569W        W34093   5.824   2.728   2.016  0.0872  0.0105  0.0003
16570W        W34094   6.661  10.634  11.325 -0.1178  0.0266 -0.0745
16571W        W34095   0.662   4.473  13.084  0.0505 -0.3060  0.0184
16572W        W34096   7.625  17.658   4.135  0.0569 -0.0044  0.3325
16573W        W34097   3.498  17.092   4.642  0.1001 -0.2176  0.1251
16574W        W34098   2.543   9.665   3.487  0.3661  0.1536 -0.0901
16575W        W34099   1.807   0.109  15.859  0.0347 -0.1410 -0.3287
16576W        W34100   1.935   0.024  12.532  0.0995  0.3029  0.3347
16577W        W34101   6.620   7.776  12.188 -0.0570 -0.3257  0.1947
16578W        W34102   0.531  10.566  15.004  0.0799 -0.1751  0.1245
16579W        W34103   1.388   5.078  13.147  0.0019  0.0413  0.1109
16580W        W34104   7.566  13.159  10.763  0.1032 -0.2818  0.0613
16581W        W34105  15.481  12.557   2.171  0.2630  0.1125  0.1478
16582W        W34106   6.325   8.058   4.674 -0.1501  0.2090 -0.2170
16583W        W34107   4.324  10.088  12.085  0.1180  0.3665  0.0655
16584W        W34108   1.427  16.030   1.288  0.2506 -0.1869 -0.2065
16585W        W34109  11.136   4.301   4.962  0.0013  0.0343 -0.0831
16586W        W34110   0.816   2.930   0.105  0.1322 -0.3642 -0.1655
16587W        W34111   7.261  14.086   0.106  0.0262  0.1183  0.2274
16588W        W34112   9.766  13.525   4.743 -0.1100 -0.1209 -0.2885
16589W        W34113   0.697  14.951   2.965 -0.4787 -0.1109 -0.3048
16590W        W34114   5.781   5.980  11.651 -0.0771 -0.1755 -0.0906
16591W        W34115  13.355  14.092  15.243  0.0896 -0.2288 -0.0138
16592W        W34116  15.264   7.645   0.614 -0.0334  0.0219 -0.1410
16593W        W34117   5.503  13.812   0.617  0.1729 -0.0420  0.0381
16594W        W34118   8.928   7.065  14.206 -0.1296 -0.1470 -0.0252
16595W        W34119   0.657   4.275   1.997  0.0794 -0.0125  0.1528
16596W        W34120   4.291   1.426   2.237 -0.3446  0.0173  0.1573
16597W        W34121  15.133   7.925  11.494 -0.1528  0.0393  0.0451
16598W        W34122  13.474   4.415  13.223 -0.0913 -0.1985 -0.0092
16599W        W34123   4.019  14.963   3.567 -0.0569  0.0969  0.0564
16600W        W34124   7.834   4.831  10.151  0.2936  0.2551  0.1877
16601W        W34125  16.868   2.965  12.799 -0.1356  0.2163  0.0096
16602W        W34126   7.328   5.998  11.102  0.1369 -0.0330  0.2049
16603W        W34127   6.214   6.698  12.126  0.0548 -0.3306  0.0049
16604W        W34128   9.407  14.627   2.953  0.0935  0.0460 -0.0226
16605W        W34129  17.948  12.726   1.105 -0.0215 -0.0203  0.0254
16606W        W34130  11.774  10.249   0.306  0.0031 -0.2246  0.1002
16607W        W34131   8.485  14.661   4.322  0.0212 -0.3549 -0.1688
16608W        W34132  13.507   1.892  15.569 -0.3002 -0.2302  0.0800
16609W        W34133   9.219   2.952   5.750 -0.0763 -0.0139 -0.0331
16610W        W34134  10.463   9.499  14.022  0.1276 -0.1469 -0.1588
16611W        W34135   1.503  10.744  14.419 -0.1412 -0.0145  0.0699
16612W        W34136   4.237  14.808   3.980 -0.1634  0.2870  0.0103
16613W        W34137  11.046   8.933   2.938 -0.2268 -0.1606 -0.0541
16614W        W34138   0.137   4.135   3.610 -0.2966  0.0843  0.3463
16615W        W34139   2.182  13.081  14.523  0.0493  0.2669  0.0382
16616W        W34140  16.046   8.133  13.927 -0.0385  0.1424 -0.3232
16617W        W34141   8.740  14.389  14.760 -0.2225 -0.4991 -0.2128
16618W        W34142   6.306   5.757  13.013  0.1144  0.0273 -0.1763
16619W        W34143   2.119   1.313  13.775 -0.0780  0.0750 -0.2432
16620W        W34144   4.166  16.664   4.686 -0.1169  0.2083 -0.0067
16621W        W34145   2.178  16.799  15.683 -0.2809 -0.1083  0.0268
16622W        W34146  17.473   4.044   2.603  0.1538  0.0373 -0.0826
16623W        W34147  12.292   4.864  13.660 -0.0785 -0.0456  0.1830
16624W        W34148  12.821  17.183  15.119 -0.1981  0.0681 -0.0447
16625W        W34149  14.468  10.572  11.946  0.1870 -0.2502  0.0780
16626W        W34150  11.976   2.811   1.752 -0.3758 -0.1442  0.1867
16627W        W34151   1.345   9.440  14.849 -0.1564 -0.1474  0.1803
16628W        W34152  10.596  11.581   5.657 -0.0010  0.0486 -0.1149
16629W        W34153  14.153  17.324   3.201  0.1018  0.2287  0.3274
16630W        W34154   6.618  13.587  11.386 -0.0292 -0.1833  0.3838
16631W        W34155   4.159   7.292  15.554 -0.1490  0.1152  0.2259
16632W        W34156   4.973  11.957   3.557  0.0173  0.0437 -0.2851
16633W        W34157  17.990   0.360   1.688 -0.3520  0.0415 -0.1943
16634W        W34158  15.129   4.198  13.226  0.0440 -0.1496  0.1848
16635W        W34159   1.585  11.805   4.295 -0.1346 -0.0803 -0.3042
16636W        W34160   7.537   7.892  13.128  0.0191  0.0160 -0.1847
16637W        W34161   3.912   4.073   1.623 -0.2050  0.0517  0.1263
16638W        W34162  13.276  14.331   1.526  0.3441  0.0570  0.1630
16639W        W34163   5.653  12.018  12.509  0.1550  0.2433 -0.4306
16640W        W34164   1.565  16.191   4.951 -0.2228  0.0095  0.1163
16641W        W34165   6.230   1.093  10.629  0.0927 -0.2114  0.1328
16642W        W34166  11.464   7.439  13.607  0.0470 -0.5741 -0.1367
16643W        W34167   7.091  18.101  13.199  0.2026  0.1371  0.2601
16644W        W34168  10.182   9.531  11.149  0.2847  0.0221  0.2864
16645W        W34169   7.528  11.983   3.330  0.0822  0.1422 -0.3602
16646W        W34170   8.096  14.419   5.444 -0.0739 -0.1145 -0.0062
16647W        W34171  10.034  11.639  13.666  0.1000 -0.2744  0.1746
16648W        W34172   7.110   5.249   3.806  0.2399 -0.2447  0.1070
16649W        W34173   4.016   9.365   2.238 -0.0039  0.0642 -0.0177
16650W        W34174   9.519   6.504  13.061 -0.0427 -0.0417 -0.0039
16651W        W34175   6.821  11.092  14.270  0.0736  0.1808  0.1010
16652W        W34176   6.400  10.559   3.789  0.1183 -0.0026 -0.1327
16653W        W34177   7.861   1.033  11.388 -0.0469 -0.0203 -0.0940
16654W        W34178   3.259   0.027   1.184  0.0840 -0.0244 -0.0089
16655W        W34179   1.569   7.913   2.862 -0.0673  0.1261 -0.0704
16656W        W34180   6.164   1.436  11.085  0.3293  0.1471 -0.0796
16657W        W34181   1.144  11.630   4.704  0.1704 -0.0239  0.1119
16658W        W34182  14.092   3.694   1.776  0.2732  0.3121 -0.1422
16659W        W34183   9.543   6.376   0.743 -0.0576  0.2011  0.2082
16660W        W34184  16.056   4.981   2.277 -0.1444 -0.1283 -0.2808
16661W        W34185  13.959   8.071   2.376 -0.0401 -0.0311 -0.1578
16662W        W34186   1.598  15.939  10.562  0.0125  0.0145 -0.0620
16663W        W34187   3.867   2.385  14.050 -0.0256 -0.0424 -0.1533
16664W        W34188  16.246  12.209  13.464  0.0209 -0.4007 -0.3491
16665W        W34189   1.941   4.745  12.085 -0.2778  0.1160  0.0944
16666W        W34190  17.617   3.843  14.401 -0.1680 -0.1675  0.2372
16667W        W34191   0.651   7.546   3.088  0.0969  0.0237  0.1628
16668W        W34192   4.483   4.769  13.789 -0.1927  0.1816 -0.0356
16669W        W34193   8.660   1.464   4.616 -0.1309 -0.0955  0.1617
16670W        W34194  12.712  12.367  12.218 -0.0667  0.0340  0.0189
16671W        W34195   3.479  17.857  11.517  0.3154 -0.1041  0.1572
16672W        W34196  15.673  14.056  10.655 -0.0302  0.0168  0.0432
16673W        W34197   0.548  17.153  11.527  0.1129  0.0399  0.2908
16674W        W34198   0.687   6.138   3.097 -0.1863  0.1394  0.0980
16675W        W34199  15.954  11.946   0.004  0.1751  0.0618 -0.0002
16676W        W34200  12.456   7.293  15.220  0.2612 -0.2615  0.1074
16677W        W34201   9.928   6.912  14.240 -0.2277  0.0027  0.0268
16678W        W34202  14.683   5.775  11.971  0.1036 -0.3149 -0.2871
16679W        W34203  18.071  17.758   3.991 -0.0465  0.0028 -0.0777
16680W        W34204   2.578  12.069  15.911 -0.0344  0.0347 -0.0160
16681W        W34205  16.584  16.808  13.248 -0.3351 -0.2813 -0.2233
16682W        W34206  10.055  15.778   4.345 -0.1934 -0.0104 -0.2911
16683W        W34207   2.447   9.602   0.797 -0.1761 -0.2392  0.1977
16684W        W34208   3.725   0.262   6.021 -0.1536 -0.1272 -0.1020
16685W        W34209  10.764   4.448   4.115 -0.0437 -0.0351 -0.2307
16686W        W34210   2.716  12.214   0.914 -0.0396 -0.1927  0.0281
16687W        W34211   0.459   8.806   2.874 -0.1803 -0.0465 -0.3493
16688W        W34212   1.770   8.502   4.286 -0.0378  0.1706  0.1149
16689W        W34213   8.407   6.838   0.959 -0.1041  0.0117  0.0312
16690W        W34214   6.095  18.067  13.546  0.1004 -0.2797  0.2484
16691W        W34215  12.075   9.706   2.305 -0.1241 -0.0102 -0.1234
16692W        W34216   9.165   6.327   2.012 -0.3246 -0.1637  0.0366
16693W        W34217   0.538  15.941   5.050 -0.0007 -0.0800  0.0798
16694W        W34218  15.233  10.044   4.138 -0.1792 -0.0073  0.0241
16695W        W34219   6.821   4.847   1.015 -0.2100  0.0371  0.0680
16696W        W34220  10.094  10.004  14.223 -0.2389 -0.0198  0.3570
16697W        W34221   9.215   3.563  15.637  0.3511 -0.0566  0.0705
16698W        W34222  15.441   7.366  12.941  0.2186  0.2233 -0.1827
16699W        W34223  14.989  13.042   4.726 -0.4269  0.1583  0.0942
16700W        W34224  16.485  11.117   2.904 -0.1668 -0.0787  0.0825
16701W        W34225   1.020   7.967   4.690  0.0225  0.0752  0.1980
16702W        W34226   8.774   9.135  11.928  0.1743 -0.1654  0.1892
16703W        W34227   5.708  14.746   0.758  0.1872  0.0522  0.1044
16704W        W34228   7.113   9.062   1.182  0.0473 -0.0271  0.0220
16705W        W34229  11.118   4.208  12.520 -0.0344  0.1031  0.2139
16706W        W34230   9.414  16.106   1.553 -0.1630  0.1051 -0.2997
16707W        W34231   0.949   8.979   3.679  0.2157 -0.1125  0.1109
16708W        W34232  17.471   5.292  13.314 -0.1165  0.2530 -0.0168
16709W        W34233  17.319   6.607  12.222  0.1894 -0.3602  0.1544
16710W        W34234   5.011  16.130   2.401 -0.0046  0.1240 -0.1993
16711W        W34235   5.992   9.003  15.328  0.1053 -0.0225 -0.2007
16712W        W34236  13.441  12.417  11.451  0.1466  0.2160  0.2212
16713W        W34237   6.103  13.352   5.015 -0.1790  0.1300  0.0226
16714W        W34238  12.041   0.068  11.939  0.1154 -0.0825  0.3284
16715W        W34239  12.536   6.026   2.360 -0.1694 -0.1060  0.0839
16716W        W34240   5.706   7.608   0.204 -0.2233  0.2636  0.1138
16717W        W34241   6.618  17.378  11.671  0.3797  0.0720  0.0525
16718W        W34242  11.850  14.273   3.007 -0.0077 -0.1285  0.0690
16719W        W34243  12.038  16.820  15.185 -0.1448 -0.4514  0.0577
16720W        W34244   9.875   4.025   3.333 -0.2870 -0.2170  0.0982
16721W        W34245   4.992  16.602  11.282  0.1400 -0.1233  0.3020
16722W        W34246  15.839   7.922  15.491 -0.4858 -0.1004  0.0991
16723W        W34247  16.941  16.451   3.503  0.3092 -0.1003 -0.3114
16724W        W34248  14.788  17.894   4.190  0.0623 -0.3741 -0.1066
16725W        W34249   6.666   6.218   2.436  0.0216  0.4105  0.2539
16726W        W34250  10.700   4.591  15.680 -0.0609 -0.1689  0.1861
16727W        W34251   9.453   2.335   3.700  0.1540 -0.2202 -0.0199
16728W        W34252  18.040   3.620   1.631  0.1617 -0.2242  0.0295
16729W        W34253   6.282   0.359  13.852 -0.0806  0.2880  0.0140
16730W        W34254   4.399  10.177   4.836 -0.2289  0.0625  0.1080
16731W        W34255   6.146  13.059  15.463  0.2358  0.2114  0.0751
16732W        W34256  17.449  15.401   4.705  0.1947 -0.1609  0.1486
16733W        W34257   3.516   5.154  11.672  0.0795  0.0430 -0.0389
16734W        W34258  14.257   1.640   0.561 -0.0186 -0.1923 -0.0725
16735W        W34259  16.710   3.795   2.179 -0.0139 -0.2411 -0.2388
16736W        W34260  10.624  14.410  15.516 -0.1299  0.4629 -0.1980
16737W        W34261   5.270   3.822  14.378  0.1384  0.0659  0.3761
16738W        W34262   0.763   2.097   1.225 -0.2644 -0.1462  0.0771
16739W        W34263   5.374   9.962  15.592 -0.3770 -0.0333  0.1481
16740W        W34264  11.890   9.557   3.594  0.0333 -0.0768  0.0487
16741W        W34265   5.133   1.175  10.891  0.2623  0.2808  0.1888
16742W        W34266   6.720  15.794  13.973 -0.2559  0.1016  0.3834
16743W        W34267   2.026  10.563   1.985  0.1663 -0.1864  0.2797
16744W        W34268  12.845  11.192   0.910  0.0530  0.3301 -0.2074
16745W        W34269  14.030   1.736  13.003 -0.2914 -0.0874  0.1263
16746W        W34270   6.085   5.087  13.860  0.1524 -0.1352  0.0546
16747W        W34271   5.194   4.202   4.592 -0.0578 -0.1285  0.0850
16748W        W34272   6.819  10.500   3.512  0.0917  0.2278 -0.4474
16749W        W34273  11.844   7.557   3.280  0.1354  0.0627  0.0312
16750W        W34274  10.321  11.880  12.348 -0.4000 -0.1892 -0.1634
16751W        W34275  12.475   8.350  11.978  0.1104 -0.1063  0.2754
16752W        W34276  12.374  15.458   1.082 -0.1552  0.3029 -0.0439
16753W        W34277   4.942   0.237   3.948  0.2001 -0.0390  0.1754
16754W        W34278   3.156   8.736  12.155 -0.4532  0.0651 -0.2103
16755W        W34279   7.775   7.827   0.136 -0.1443 -0.1512 -0.3609
16756W        W34280   6.428   7.571   0.676 -0.1306  0.1504  0.0155
16757W        W34281   2.314   1.953  12.204  0.2418 -0.0025  0.2734
16758W        W34282   9.334  10.361  14.504 -0.3293 -0.0255  0.0346
16759W        W34283   3.933  17.670  11.724  0.2494 -0.0588  0.1660
16760W        W34284  16.741   6.107  13.479 -0.0111  0.1665 -0.0945
16761W        W34285  13.673   3.556   3.935 -0.1034 -0.1315  0.2664
16762W        W34286   0.276  16.717   4.501 -0.0451  0.0993  0.2804
16763W        W34287  15.799   9.892  15.931  0.3253  0.1763  0.0624
16764W        W34288  16.619   1.543  13.563 -0.1665  0.0069  0.0207
16765W        W34289   3.791  15.291   1.345  0.1328 -0.2361  0.1033
16766W        W34290  14.993   8.763   2.478 -0.0062  0.0527  0.5342
16767W        W34291   5.682   5.062  13.275  0.0398 -0.2825  0.0469
16768W        W34292  11.996   6.719  12.384 -0.1350  0.0374 -0.0784
16769W        W34293   3.438   2.334  15.523  0.6263  0.0560 -0.0486
16770W        W34294   7.773   6.248  14.500 -0.0057 -0.0257 -0.0165
16771W        W34295  13.496   6.874  15.070 -0.2524  0.1770  0.2219
16772W        W34296   3.934   9.561  14.151 -0.2572 -0.1242 -0.0560
16773W        W34297   8.823   3.960   3.301 -0.0091  0.1464 -0.0075
16774W        W34298   1.070   3.646  11.970 -0.1985  0.0193  0.0168
16775W        W34299   8.407   9.854   0.345  0.1872 -0.0603  0.0464
16776W        W34300  17.706  17.277   3.588 -0.1947  0.0438 -0.1711
16777W        W34301  13.211  16.037   2.299  0.2622  0.0750  0.0988
16778W        W34302  15.710   2.743  11.430  0.1130 -0.2581 -0.0313
16779W        W34303  14.271  13.087   0.641  0.2009 -0.2991  0.0276
16780W        W34304   1.087   4.907   4.068  0.1539 -0.2043  0.0367
16781W        W34305   4.354   4.958   3.852 -0.1266  0.2468  0.3218
16782W        W34306   1.835   0.807   1.942 -0.0274  0.2012 -0.0451
16783W        W34307   6.285   0.421  13.332 -0.1234  0.0173  0.1698
16784W        W34308   4.867   2.618  12.311 -0.4455 -0.0269 -0.0219
16785W        W34309  14.872   1.598  14.861 -0.0541  0.1740 -0.0168
16786W        W34310   9.747  10.108   5.067 -0.1543 -0.0994  0.0960
16787W        W34311   4.288   2.840   3.945  0.0386  0.1195 -0.1587
16788W        W34312  11.537   1.663  12.396  0.0831 -0.0355 -0.2523
16789W        W34313  17.161  11.165  11.810 -0.2041 -0.1735  0.0233
16790W        W34314   9.114   7.188   3.649 -0.2129 -0.1832  0.0407
16791W        W34315  11.496   9.144  13.534  0.2069 -0.1673 -0.1583
16792W        W34316  17.477   4.926   1.765  0.4229  0.2931 -0.2399
16793W        W34317   6.487   3.340   1.984 -0.3225  0.0062  0.0056
16794W        W34318  12.867  14.502  13.543  0.1997 -0.0757 -0.0216
16795W        W34319  16.561   0.585   1.724 -0.4325  0.0455 -0.2889
16796W        W34320  15.210   3.704   5.628  0.0733 -0.2121 -0.2973
16797W        W34321   0.691   9.268  12.695  0.2388 -0.1018 -0.1700
16798W        W34322   3.745   0.848   4.248 -0.1056  0.0094  0.0545
16799W        W34323   6.535   6.399   1.223 -0.1807 -0.2476  0.0676
16800W        W34324   8.114   1.187   0.470 -0.0003  0.1181 -0.1787
16801W        W34325  10.456  14.158   0.998  0.0661 -0.2597  0.0564
16802W        W34326  10.014   2.195   5.061 -0.1489  0.1530 -0.0777
16803W        W34327  14.066   9.168  14.953  0.0157  0.1623 -0.2332
16804W        W34328  16.392   2.036   0.121  0.1001  0.1318 -0.2700
16805W        W34329   4.830   8.138   3.829 -0.3281 -0.6178 -0.0213
16806W        W34330  11.131   5.445   2.820 -0.1143 -0.2364  0.0225
16807W        W34331  10.587  15.685  13.112  0.2444  0.1163 -0.0090
16808W        W34332  11.615  10.249  14.423  0.0607  0.2038  0.0729
16809W        W34333  12.061   0.965  15.321  0.1985  0.0863  0.1203
16810W        W34334  17.354   7.121  12.599 -0.0442 -0.0633  0.0060
16811W        W34335  17.793   0.994   4.141  0.0104  0.1229  0.0545
16812W        W34336  12.862   7.157  14.346 -0.1582  0.0808  0.2579
16813W        W34337  12.750   3.203   0.866 -0.0249 -0.2298 -0.0069
16814W        W34338   1.992   1.564  13.390 -0.5825 -0.0852 -0.1110
16815W        W34339  14.322  10.707   1.286  0.0378 -0.0318 -0.1833
16816W        W34340   9.633   1.319   1.154 -0.2181 -0.3652 -0.0181
16817W        W34341   0.595   6.498   1.885  0.2337  0.5057 -0.0695
16818W        W34342   9.776   6.120  11.063  0.0833 -0.2469  0.3095
16819W        W34343   7.893   6.365  13.491 -0.1716 -0.1040  0.1507
16820W        W34344  10.506  10.935  11.131  0.0246 -0.0822  0.3313
16821W        W34345  10.503  18.079  14.231 -0.0544 -0.1122  0.0504
16822W        W34346   1.945  15.298   3.483 -0.2822 -0.2254 -0.0465
16823W        W34347  10.088  16.898  14.826 -0.3837  0.0308  0.0703
16824W        W34348   4.970   3.529  14.986 -0.1927 -0.0861 -0.1832
16825W        W34349  10.579   1.376   2.824  0.0876 -0.0385  0.0580
16826W        W34350  16.540   9.966  11.793 -0.0336  0.3440 -0.0100
16827W        W34351   3.513   0.900   0.726 -0.1915 -0.3755  0.1218
16828W        W34352  11.929  16.242   1.753  0.0437 -0.2026  0.2683
16829W        W34353  17.792   7.843   4.055  0.4888 -0.0386  0.2711
16830W        W34354   6.615  11.781  11.424 -0.0129 -0.2136  0.2629
16831W        W34355  10.284   0.538  12.152 -0.0113  0.2696 -0.1150
16832W        W34356   9.929   7.065   3.238 -0.1030 -0.1972 -0.1399
16833W        W34357   1.561   5.805   1.659  0.1242 -0.1365 -0.0645
16834W        W34358   4.062  17.150   0.746 -0.0072 -0.2761 -0.0499
16835W        W34359  14.992  12.510  14.473  0.3493 -0.1879  0.1105
16836W        W34360   3.346  11.814   1.895 -0.1217  0.0626 -0.0777
16837W        W34361   5.603   9.576   3.064 -0.3072 -0.0324  0.1943
16838W        W34362   8.896   1.773   3.165  0.1828 -0.0246  0.0807
16839W        W34363   9.002  10.207  13.597  0.0953  0.0463 -0.0738
16840W        W34364  10.609   2.384  13.449  0.2016 -0.0109 -0.1368
16841W        W34365   9.477  17.483   1.396  0.1418 -0.2583 -0.2383
16842W        W34366   3.706   9.263  14.502  0.0310  0.1743 -0.0367
16843W        W34367  12.659  14.752  15.521  0.0416  0.2323 -0.0137
16844W        W34368   3.566  10.008   1.068 -0.1244 -0.1617 -0.0335
16845W        W34369  16.994  17.814  11.606 -0.0818  0.0274  0.4005
16846W        W34370   7.183   2.928  15.309 -0.4856  0.3060  0.1641
16847W        W34371   6.101  17.774  13.981  0.0317 -0.1083 -0.0471
16848W        W34372   6.962   6.948  10.316 -0.3446  0.2179  0.0866
16849W        W34373  10.850  11.804  13.270  0.0641 -0.3242 -0.3268
16850W        W34374   9.313   8.205   1.550  0.2074 -0.0965  0.1765
16851W        W34375   1.009   8.064  15.053 -0.2757  0.4507 -0.1999
16852W        W34376  15.251   1.789  12.562 -0.0149 -0.2608 -0.0211
16853W        W34377   8.899  10.746  15.118  0.2017  0.1419  0.1887
16854W        W34378   6.033   9.817   1.913  0.1087  0.2363  0.2329
16855W        W34379   0.745  13.654  15.752 -0.0601  0.0629 -0.1701
16856W        W34380   4.133  14.998   2.166 -0.1422  0.2942  0.3574
16857W        W34381   5.656   7.173   0.494  0.2131  0.0970  0.1314
16858W        W34382  11.695   4.243   2.791 -0.3484  0.1322  0.0260
16859W        W34383   3.035   7.226   1.274 -0.1232 -0.0602  0.2556
16860W        W34384  14.174   4.899   0.491 -0.1155 -0.2078  0.0837
16861W        W34385   1.315   8.517  11.452  0.1364  0.2460 -0.0645
16862W        W34386  15.542   2.588  14.887 -0.1907  0.0307  0.1708
16863W        W34387   3.073  16.277  12.313  0.1629 -0.0412  0.1906
16864W        W34388   1.657  14.713   0.402  0.0324 -0.0368  0.2902
16865W        W34389  16.121  11.692   0.459  0.1484  0.0530  0.0341
16866W        W34390   6.249  17.672  11.135  0.0497 -0.1064  0.1838
16867W        W34391   3.138   7.070   2.550 -0.3248  0.0317 -0.1574
16868W        W34392  15.477   7.880   2.432 -0.3732  0.0467  0.1943
16869W        W34393   6.770   9.141   2.690  0.1743 -0.0030  0.2102
16870W        W34394   0.413   6.909   0.265  0.1199  0.0261  0.1116
16871W        W34395   3.667   0.746   4.697 -0.1060 -0.0646  0.1873
16872W        W34396   7.748  16.411   4.102  0.2769  0.4432  0.0638
16873W        W34397   9.866   5.746  15.434 -0.3125  0.0654 -0.0630
16874W        W34398  12.821   0.310   3.335 -0.1732  0.1068 -0.0816
16875W        W34399   9.935  10.300   4.270 -0.2754  0.0114  0.2481
16876W        W34400  15.804   4.204  13.980  0.0821  0.1377 -0.1504
16877W        W34401  12.517  12.356  15.231 -0.0070 -0.1403  0.1247
16878W        W34402  15.021  11.757   2.144 -0.2904  0.1213  0.1761
16879W        W34403  10.724   3.768   3.028 -0.2626  0.1679 -0.2780
16880W        W34404   9.201   4.119   4.436 -0.2434 -0.3276  0.3560
16881W        W34405   5.089  13.070   0.639  0.2865  0.4084  0.2468
16882W        W34406   1.509   9.900   4.672 -0.0295 -0.4294  0.3303
16883W        W34407  15.422   2.392   0.089  0.0439 -0.0541 -0.0110
16884W        W34408  14.652   0.271   1.525  0.1519 -0.0204  0.3858
16885W        W34409  17.107  14.315   3.808 -0.1830 -0.2292 -0.2796
16886W        W34410   6.087  11.604  14.284  0.2013 -0.0084  0.1892
16887W        W34411   1.405   2.282  10.935  0.2449 -0.1722 -0.3645
16888W        W34412   6.506   0.593  14.504  0.0629  0.1126  0.0479
16889W        W34413   5.003  10.270  12.114  0.2207  0.0838 -0.0568
16890W        W34414   7.847   9.058   2.606  0.1544 -0.0863 -0.1598
16891W        W34415  14.826  14.891   0.033  0.0092 -0.0745  0.1479
16892W        W34416   3.802  14.635  15.924 -0.0831  0.0948 -0.0385
16893W        W34417   5.686   6.487  15.025 -0.0754  0.2994 -0.0110
16894W        W34418   0.843  17.781  12.879  0.3769 -0.2633  0.1026
16895W        W34419  11.624  17.679  14.261 -0.3637  0.0195  0.3788
16896W        W34420   6.146   0.647  16.042 -0.0986  0.1292 -0.0422
16897W        W34421  11.802   4.673  11.078 -0.1743  0.4020  0.2015
16898W        W34422  18.013   2.824  13.929  0.0492 -0.0597 -0.0453
16899W        W34423   5.056  13.815  14.489  0.0144 -0.0343 -0.1656
16900W        W34424   6.033   3.275   1.593 -0.0444 -0.3741 -0.2484
16901W        W34425  13.225   6.333   4.031  0.0790  0.2280  0.2071
16902W        W34426   9.645   4.328   4.312  0.1418 -0.0222 -0.0966
16903W        W34427   0.177  11.620  12.086  0.0323  0.3380  0.0238
16904W        W34428  14.848  14.248   0.209  0.0453 -0.2911 -0.1312
16905W        W34429  14.616  16.449   1.904  0.1114  0.0487 -0.0360
16906W        W34430   1.621  16.952  12.257  0.1969  0.0048 -0.0433
16907W        W34431  16.057  14.182  13.608  0.0667  0.0891  0.2118
16908W        W34432  15.130   5.141   0.346  0.0600  0.3435 -0.2701
16909W        W34433  15.545   2.549   2.451  0.2767 -0.0565 -0.0535
16910W        W34434   7.104   4.049   2.208 -0.1408 -0.3477  0.2501
16911W        W34435   0.309   7.460   3.745  0.1189  0.3759  0.1631
16912W        W34436   4.193  16.662   0.832 -0.0743 -0.0553  0.1368
16913W        W34437   0.295   7.860  15.193  0.1019  0.1457 -0.2086
16914W        W34438  10.303   8.115  14.546  0.0037 -0.2004 -0.0306
16915W        W34439   3.002  16.081   0.657 -0.0249  0.2944  0.3263
16916W        W34440   1.259  13.361   3.409  0.3961  0.0378 -0.0144
16917W        W34441   9.366   5.608  12.611  0.0522 -0.0274 -0.1790
16918W        W34442   1.661  13.688  12.699  0.1770 -0.0949  0.1613
16919W        W34443   4.071  14.223  11.799 -0.1816  0.1403 -0.2491
16920W        W34444  16.308   5.656   2.428  0.0484  0.0377  0.0646
16921W        W34445   8.792   7.310   1.272 -0.3179  0.3035  0.2498
16922W        W34446   3.136   1.839   0.424 -0.0352  0.0179  0.1213
16923W        W34447   8.423   5.313   3.643 -0.1839 -0.0405  0.3950
16924W        W34448  12.339  15.010  15.797 -0.1671 -0.3438  0.0705
16925W        W34449   6.167  11.188  13.401  0.1973 -0.1323 -0.2563
16926W        W34450   9.049   9.157  15.157  0.0964 -0.0201  0.1163
16927W        W34451  13.610   9.418  13.710 -0.0103  0.1222 -0.0764
16928W        W34452   6.263   5.838   0.622  0.0826 -0.2985  0.0046
16929W        W34453  10.557   2.804   3.965 -0.1553 -0.1592  0.2174
16930W        W34454   0.972   7.875  13.801 -0.1292  0.0100  0.3679
16931W        W34455  17.564  17.489  13.049  0.2011  0.2666 -0.0937
16932W        W34456   3.827   6.775  16.023  0.2114 -0.2693 -0.1738
16933W        W34457  14.438  10.998   5.884 -0.2405 -0.1128 -0.1156
16934W        W34458  16.745  16.133  14.378  0.0852  0.0734  0.1671
16935W        W34459  11.533  14.133   3.429 -0.0526 -0.2387  0.1875
16936W        W34460   1.249   0.191   5.279 -0.0123  0.1363 -0.0113
16937W        W34461  14.754  16.963   3.255 -0.0393 -0.1830  0.0162
16938W        W34462  15.907  15.477  15.241  0.2109 -0.0503  0.1197
16939W        W34463  13.291   4.432   3.927  0.1548  0.0424 -0.1737
16940W        W34464   2.963  17.342  14.003 -0.1811 -0.2203  0.1744
16941W        W34465   3.839  16.072   2.061  0.0751 -0.3240  0.0444
16942W        W34466  11.754   9.191   0.424  0.2731  0.2159 -0.3194
16943W        W34467  13.391  13.954  14.149  0.1800 -0.1207 -0.1542
16944W        W34468   0.232  10.308   2.326  0.0782 -0.0324  0.3139
16945W        W34469   1.221  17.168   2.869  0.2755  0.2536 -0.1702
16946W        W34470   6.087  11.852  12.406 -0.0559  0.1737 -0.1303
16947W        W34471  14.094   5.298  15.003 -0.0812  0.0048 -0.0115
16948W        W34472   4.464   5.216   4.770  0.0023 -0.1932  0.1024
16949W        W34473   6.396  11.986  10.029 -0.1821 -0.0209 -0.3080
16950W        W34474  13.427   5.367  11.135  0.3504 -0.0232 -0.1083
16951W        W34475   9.614  14.098   2.961  0.0354 -0.1263 -0.0636
16952W        W34476  15.824   5.952  14.433  0.0155 -0.2396  0.0124
16953W        W34477  15.256  17.952  14.264  0.1764  0.0948  0.0632
16954W        W34478  10.235  12.959  13.749  0.0828 -0.0719  0.1113
16955W        W34479   2.427  12.674   0.083 -0.3288  0.1946  0.3940
16956W        W34480  13.812   7.241  12.924  0.0288  0.0226  0.3316
16957W        W34481  15.960   9.251  13.740  0.0087  0.0405  0.1795
16958W        W34482  13.970   1.999  14.545 -0.0880 -0.3989  0.1043
16959W        W34483   4.004  15.388   3.086 -0.1091 -0.3061 -0.2703
16960W        W34484   0.927  12.579   3.099 -0.1312 -0.2123  0.2245
16961W        W34485   1.312  14.727  11.021 -0.0952 -0.0660  0.2988
16962W        W34486  17.344  10.927  15.174 -0.0059  0.5078 -0.1538
16963W        W34487  15.598  11.002  15.779 -0.0006 -0.1336  0.1396
16964W        W34488  16.833  12.225   1.557  0.2306  0.0603 -0.1690
16965W        W34489   4.245   9.255  12.769 -0.0868  0.1148 -0.0093
16966W        W34490  13.096   1.876   3.374  0.4182  0.4038 -0.1447
16967W        W34491   7.860   3.791  11.141  0.0605  0.1629 -0.1277
16968W        W34492   0.571   6.959  15.467 -0.2515  0.0304  0.3512
16969W        W34493  14.066   6.027  14.047 -0.1035  0.1366 -0.0151
16970W        W34494   2.792  12.497  13.846 -0.2131  0.1845  0.1231
16971W        W34495   6.896  11.409   2.712  0.0529 -0.2739 -0.1412
16972W        W34496   4.954   5.637  10.648 -0.2038 -0.1813  0.0813
16973W        W34497   0.734   9.786  12.287  0.2779  0.0788 -0.4963
16974W        W34498   8.207  14.500   2.045 -0.3394  0.3370  0.2151
16975W        W34499   7.331   1.292  13.040 -0.0404 -0.0597  0.3007
16976W        W34500   8.400  17.455  11.479 -0.0678  0.0092  0.1377
16977W        W34501   4.620   9.986   2.510 -0.1411  0.1208 -0.3267
16978W        W34502   6.999   7.800   1.468 -0.0199  0.0231 -0.1080
16979W        W34503   8.221   1.994   4.742  0.0450  0.0792  0.3798
16980W        W34504   3.580  13.992  14.579  0.2137 -0.0779  0.2493
16981W        W34505   7.663   5.626  15.069 -0.2724  0.2291  0.0065
16982W        W34506  15.202  11.316   2.370  0.2455 -0.0752  0.1659
16983W        W34507  10.368   9.706   3.998  0.0261 -0.0225 -0.3519
16984W        W34508   0.744   7.978  12.892 -0.1656 -0.0733 -0.1573
16985W        W34509  12.289   5.357  11.963  0.1011  0.0760  0.0740
16986W        W34510   6.247   7.597  15.174  0.2740 -0.2507  0.0719
16987W        W34511  17.024   2.260  15.369  0.0712  0.0504  0.1366
16988W        W34512  10.142  10.520  11.036  0.3055 -0.0870 -0.1281
16989W        W34513   1.934  13.307   2.126  0.1566  0.0638  0.0181
16990W        W34514  11.580  12.192  16.026  0.0223  0.0404 -0.0782
16991W        W34515   6.956   0.189   3.694  0.0868 -0.0266  0.0298
16992W        W34516   9.931  15.349  11.845  0.1645  0.1305  0.0093
16993W        W34517  13.261  11.755  15.609  0.1220 -0.0917 -0.1393
16994W        W34518   7.591  16.403  12.174 -0.1025  0.3076  0.0926
16995W        W34519  11.865  15.033  14.902  0.0444  0.1013 -0.2908
16996W        W34520   3.366   7.000  11.961 -0.1200 -0.0009 -0.3010
16997W        W34521  15.334  14.819  15.844 -0.3234 -0.1348 -0.1188
16998W        W34522  13.341  17.989  14.985  0.3847  0.2371  0.0129
16999W        W34523  14.345   8.277  14.199  0.0383  0.1363 -0.2390
17000W        W34524   3.311   3.215   5.602 -0.1065 -0.1408  0.1274
17001W        W34525  15.465  16.577   3.537  0.1927  0.1653 -0.3613
17002W        W34526   2.285  17.904   2.357  0.0998 -0.2117 -0.1357
17003W        W34527   5.431  15.112  13.768  0.0501  0.0691 -0.0719
17004W        W34528  16.947  17.067   0.796 -0.4580  0.1499 -0.4177
17005W        W34529   2.708   3.280  11.951  0.0910  0.2430 -0.1349
17006W        W34530   9.616   6.773  10.763 -0.1374 -0.1297 -0.2249
17007W        W34531   3.601  12.608   3.326 -0.3384 -0.0154  0.2365
17008W        W34532  16.324  17.684  11.824 -0.1250  0.2362  0.1943
17009W        W34533   1.054  17.022   5.230 -0.0557  0.1959 -0.3373
17010W        W34534   2.613  15.475   1.286  0.1231 -0.1769 -0.0115
17011W        W34535  14.538   7.460  11.181  0.0763 -0.2229 -0.0736
17012W        W34536   1.657  15.334  11.558  0.0518 -0.1210  0.1589
17013W        W34537  16.564  12.276  14.045 -0.0587  0.0131  0.0960
17014W        W34538   5.294  15.081   1.108 -0.1106  0.0941 -0.1202
17015W        W34539   0.114   6.065   0.569 -0.1569  0.3274 -0.1875
17016W        W34540   8.416   7.634  12.760  0.3034 -0.0079 -0.0496
17017W        W34541  11.499  16.939   3.893  0.0763  0.0637 -0.1557
17018W        W34542  12.491   4.552  13.346 -0.3086 -0.1451  0.2263
17019W        W34543   7.420  17.051   1.886 -0.0893 -0.1838  0.1254
17020W        W34544   3.676   3.548  11.923 -0.0423 -0.0824 -0.1150
17021W        W34545   9.220   9.383   5.371  0.1088  0.3897 -0.0275
17022W        W34546  12.297  12.556  14.822  0.4102 -0.1917  0.3685
17023W        W34547   0.387   7.602  13.785 -0.0267  0.0720 -0.0808
17024W        W34548   5.503   6.477   0.115 -0.0590 -0.0530  0.1209
17025W        W34549   1.082   9.713  12.617  0.0697 -0.1277 -0.2222
17026W        W34550   0.325   6.810   0.994 -0.2204  0.3280  0.0757
17027W        W34551   8.379   3.428   0.172 -0.1543  0.0015 -0.0959
17028W        W34552  10.099  11.299  13.147  0.3722  0.1132 -0.1230
17029W        W34553  14.468  14.346  15.950  0.0179  0.1528 -0.1206
17030W        W34554  12.701   2.227   4.046 -0.0130 -0.4295 -0.0404
17031W        W34555   9.910   3.844  14.761 -0.1677  0.0086 -0.3085
17032W        W34556   3.829  10.746   0.797  0.0749  0.0296 -0.1129
17033W        W34557  12.359   2.465   0.960  0.1111 -0.2599  0.1977
17034W        W34558   1.606   2.450   3.740  0.0875  0.2842 -0.0772
17035W        W34559  16.091  12.966  16.000  0.1562 -0.0167 -0.0917
17036W        W34560   4.307   9.592   3.069  0.0368  0.1897  0.0812
17037W        W34561   3.122   3.281  13.248  0.1205  0.0938 -0.0383
17038W        W34562  16.538  11.326  12.713  0.1102  0.0120 -0.1554
17039W        W34563  16.687   6.708   5.221 -0.2669  0.1463 -0.0208
17040W        W34564  17.469   4.622  14.486  0.1805  0.2836  0.0618
17041W        W34565   4.457   0.654  10.827  0.1083 -0.0111 -0.0417
17042W        W34566  15.503   1.133   2.754  0.0491  0.2381  0.3747
17043W        W34567   7.405   8.780   4.225 -0.0691  0.4681 -0.0320
17044W        W34568   7.534   6.216   4.470 -0.0120  0.1873  0.0431
17045W        W34569   9.701   5.286  11.170 -0.1091  0.0985 -0.0006
17046W        W34570   9.100   8.413   4.742 -0.0208 -0.1469 -0.4378
17047W        W34571   1.093   2.553   2.287  0.1706  0.0726  0.2557
17048W        W34572   2.024   1.182  12.536  0.0821 -0.3434 -0.0805
17049W        W34573   5.543  14.907  11.186  0.0367  0.0555  0.1796
17050W        W34574  10.584   0.445   4.827  0.1650  0.1601 -0.1241
17051W        W34575   2.747   5.789   1.262  0.2021  0.3033  0.0514
17052W        W34576   3.642  10.599   4.310  0.0153  0.2806  0.1425
17053W        W34577   3.240   9.991   2.543 -0.1781 -0.3610 -0.3536
17054W        W34578  14.712   5.848  15.213 -0.1207 -0.3351  0.0163
17055W        W34579  16.944   0.302   0.286 -0.1702 -0.0462 -0.1328
17056W        W34580  16.409  14.219   4.329 -0.3789  0.2399 -0.0292
17057W        W34581  14.406   3.071  13.071 -0.2387  0.2171 -0.0057
17058W        W34582   9.935  13.196  14.831  0.3241 -0.0826 -0.0523
17059W        W34583   6.984   8.344   3.326  0.1012  0.1235 -0.2106
17060W        W34584   0.465  15.105   2.476  0.0577  0.3010  0.0225
17061W        W34585  17.264   1.186  11.093 -0.2873 -0.3006 -0.1788
17062W        W34586  15.426   4.572  14.144 -0.1864 -0.0192  0.1081
17063W        W34587   2.749  10.746   0.165  0.0132  0.2747  0.0074
17064W        W34588   9.442   6.630   4.571  0.1259 -0.0168  0.1151
17065W        W34589  15.367   6.085   3.185 -0.1226  0.0537 -0.3177
17066W        W34590   1.598  11.923  11.788 -0.2933  0.0435 -0.0976
17067W        W34591   3.008   9.665  12.150  0.1944  0.0622  0.1921
17068W        W34592  12.885  14.704  12.853  0.2738  0.4140 -0.0589
17069W        W34593   7.543   0.787   3.101 -0.2682  0.0745 -0.0999
17070W        W34594   3.829  15.938  13.589 -0.1698  0.0721  0.1200
17071W        W34595   6.658   8.871  11.712  0.0690 -0.3243  0.0354
17072W        W34596   8.962  17.779   0.748 -0.0952  0.0688 -0.0246
17073W        W34597  10.233   7.364   5.007  0.3262  0.1226 -0.0451
17074W        W34598  12.018   3.847   4.619 -0.1713 -0.1510  0.0662
17075W        W34599  12.401   0.267  11.369 -0.2715  0.1063 -0.0881
17076W        W34600   8.093   2.901   2.913 -0.0474 -0.1772 -0.0010
17077W        W34601   6.982   6.263  10.869  0.0637 -0.0110  0.3156
17078W        W34602  15.292   4.413  11.316  0.3294  0.1229 -0.1948
17079W        W34603   9.419  12.524  15.120  0.3200 -0.0503 -0.0988
17080W        W34604  17.129   1.362   0.982 -0.0201  0.0736  0.0892
17081W        W34605   2.116   7.562  11.069 -0.3379 -0.5071 -0.2929
17082W        W34606   1.327   5.686   2.099 -0.0040 -0.0605  0.1564
17083W        W34607  13.759  14.494   3.605  0.1244  0.0183  0.1792
17084W        W34608  15.262   3.738  12.009 -0.0029 -0.1489  0.3790
17085W        W34609  10.697  17.708   0.947  0.0520 -0.0826  0.0933
17086W        W34610  16.295  17.497  13.699  0.1372  0.0600  0.0893
17087W        W34611  10.937   9.689   3.803 -0.0781  0.0180  0.4326
17088W        W34612   5.491  14.214  12.761 -0.1381  0.1210 -0.0904
17089W        W34613   0.925   9.063   5.380 -0.1477  0.1467 -0.1871
17090W        W34614  10.411  18.021   0.020  0.1855 -0.1393  0.0556
17091W        W34615  15.324   1.607   0.576 -0.0235 -0.1191 -0.1496
17092W        W34616  12.564  12.660  11.869  0.0530 -0.2861  0.1943
17093W        W34617   0.271  10.696  13.636 -0.1038 -0.1696 -0.1477
17094W        W34618   6.611   7.874   4.039  0.0861 -0.3138 -0.0109
17095W        W34619  10.438   2.804   4.486 -0.0962 -0.3318 -0.2211
17096W        W34620  15.508  11.571   1.278  0.0102 -0.1974 -0.2037
17097W        W34621  12.324  14.420   4.468 -0.2910 -0.2394  0.4433
17098W        W34622   8.302   4.014   3.112 -0.0844  0.0222  0.2307
17099W        W34623  13.690   7.933   3.159 -0.3262 -0.1655  0.0278
17100W        W34624   2.136  16.486  15.284  0.0084 -0.1679  0.0355
17101W        W34625   7.349  12.275   3.747 -0.1857  0.0494 -0.0035
17102W        W34626   5.159  13.577  13.454 -0.0426  0.2348 -0.1204
17103W        W34627  15.827  14.962   3.991 -0.1643 -0.1081  0.0799
17104W        W34628   4.869  14.471  11.280  0.0154 -0.0795  0.2014
17105W        W34629   9.080   5.951  15.237 -0.2763 -0.0103  0.1147
17106W        W34630   1.977   8.674  14.706 -0.0478  0.0889  0.1413
17107W        W34631  14.171  16.252   3.247  0.0687 -0.0814 -0.0243
17108W        W34632   5.757  13.091  12.926  0.0300  0.4494  0.0698
17109W        W34633   1.927   4.482  10.163  0.4152 -0.1842 -0.0174
17110W        W34634   7.856   9.490  15.662 -0.0270 -0.1677 -0.0482
17111W        W34635   3.895   4.767   1.441  0.0468  0.0867 -0.1017
17112W        W34636  17.286  16.933  15.108 -0.0567 -0.0916 -0.4172
17113W        W34637  14.706  16.200  14.154 -0.3085 -0.0114  0.0266
17114W        W34638   9.136  14.720   0.428  0.1234  0.0306 -0.1295
17115W        W34639   1.478   4.350   4.910 -0.3632 -0.1548  0.1688
17116W        W34640  16.332   1.289   2.261  0.1948  0.2095 -0.0784
17117W        W34641   1.967  16.031  11.843 -0.1724 -0.1408 -0.2018
17118W        W34642  17.064  12.767  12.695 -0.1322 -0.3900  0.1263
17119W        W34643   2.250   8.410   4.702 -0.1044  0.2360  0.0024
17120W        W34644   3.578   8.645   2.566 -0.0792 -0.0440  0.0549
17121W        W34645  16.489  10.304  10.601 -0.1737 -0.2070 -0.2345
17122W        W34646  17.482   1.540   0.630 -0.4495  0.2712 -0.0357
17123W        W34647  17.810  11.533   3.762  0.1477 -0.2412 -0.1239
17124W        W34648   6.191  13.510  13.205 -0.2347  0.1258 -0.0885
17125W        W34649  10.373   4.415  10.965  0.0903  0.0138 -0.1911
17126W        W34650   2.917   0.055  13.541  0.1827  0.1194 -0.0050
17127W        W34651   0.410   4.318  15.324 -0.3356 -0.2503  0.1296
17128W        W34652   5.026  15.783   4.179 -0.0019 -0.1197  0.1069
17129W        W34653  12.334   6.525  15.950  0.0094 -0.0453  0.2331
17130W        W34654  16.924   4.617   4.387 -0.0914  0.3309  0.0453
17131W        W34655  11.861  17.032  10.383  0.1878 -0.1933 -0.1997
17132W        W34656   1.800   1.300   3.331  0.3068  0.0848  0.1290
17133W        W34657   1.051   0.400   4.664 -0.2795 -0.1760 -0.2044
17134W        W34658  16.197   0.666  11.847 -0.0049 -0.2083  0.0297
17135W        W34659   2.021   3.525  15.831 -0.1077 -0.1630  0.0394
17136W        W34660   4.029   7.830  12.640  0.1745  0.0128 -0.1463
17137W        W34661  11.442   1.339  13.694 -0.0714 -0.2432 -0.0738
17138W        W34662  15.466   0.753  14.887  0.0500  0.2507 -0.0751
17139W        W34663  11.219  13.386  12.214 -0.3337 -0.0156 -0.3344
17140W        W34664   4.804  12.015  12.585 -0.0694 -0.0662  0.1543
17141W        W34665  10.194   0.320  14.606 -0.3556 -0.2054  0.0713
17142W        W34666  17.560  13.319  15.602  0.3380 -0.3127 -0.0781
17143W        W34667  17.883   2.847   3.209 -0.0458 -0.3185  0.4026
17144W        W34668  10.796   9.127  12.375 -0.0633 -0.1679  0.0488
17145W        W34669   5.608  11.542  14.139  0.0067  0.0595  0.1238
17146W        W34670  10.695  15.051   1.767  0.0188  0.0549 -0.2104
17147W        W34671  10.933  17.830  10.943  0.3019  0.4571  0.0851
17148W        W34672   9.659   5.986   5.186 -0.2514 -0.1152 -0.2042
17149W        W34673   3.326   6.259   5.991  0.1692 -0.0631  0.0643
17150W        W34674   8.465  16.757  11.787 -0.0057  0.1526  0.1985
17151W        W34675  11.963  10.924   3.101 -0.1408 -0.1427  0.1150
17152W        W34676  13.435   5.337   4.250 -0.2243 -0.4537 -0.0875
17153W        W34677   6.016  10.149  11.722 -0.1084  0.1203 -0.1187
17154W        W34678  11.266  10.680   1.796 -0.4486 -0.1092 -0.2798
17155W        W34679   0.505   6.802  13.043 -0.4169 -0.0876  0.0289
17156W        W34680  15.896  10.198  14.064  0.3298 -0.0616  0.0301
17157W        W34681   8.599  15.765   4.667 -0.1445  0.0554  0.0064
17158W        W34682   4.116  14.509  10.242 -0.0045 -0.0376  0.0316
17159W        W34683   2.192   2.509  14.999  0.2369  0.3332 -0.2444
17160W        W34684  10.194   2.174  11.458 -0.0029 -0.0242 -0.1717
17161W        W34685   1.399   5.927  12.740 -0.0501 -0.0095  0.0479
17162W        W34686   2.083  10.758  11.796 -0.1694 -0.0354  0.2484
17163W        W34687  16.412  10.447   1.227  0.0964 -0.1999  0.0540
17164W        W34688   9.292   0.791  12.690  0.2931  0.1789 -0.0558
17165W        W34689   6.660   7.587   1.821 -0.1536  0.0496  0.1055
17166W        W34690   6.661   3.956   2.777  0.0682 -0.0201  0.1078
17167W        W34691  17.499  13.549  11.740  0.1445  0.0434  0.1195
17168W        W34692   4.499   0.639   1.526 -0.1607 -0.0548  0.0356
17169W        W34693   4.559   3.223  14.971  0.2269  0.0442  0.1374
17170W        W34694  11.589   6.556  14.826  0.0323 -0.0322 -0.0285
17171W        W34695  12.894   5.458   1.212 -0.0074  0.0926 -0.0508
17172W        W34696  13.078   8.490  15.455 -0.2464  0.0588  0.2218
17173W        W34697  16.230   1.838  13.709 -0.0578  0.0082 -0.1268
17174W        W34698  18.058  17.577  13.370  0.0046 -0.0233  0.1642
17175W        W34699  13.989  15.768   0.089 -0.1871 -0.0136 -0.0275
17176W        W34700   8.483   3.225  14.891  0.0096  0.2284 -0.0309
17177W        W34701  16.404  18.124   1.047  0.1679  0.1513  0.0875
17178W        W34702  15.482  13.831  14.705  0.3521  0.2578 -0.0897
17179W        W34703  13.593   4.763  13.733 -0.2052  0.1122  0.1030
17180W        W34704  15.359   8.314   4.767  0.1981 -0.0300 -0.2381
17181W        W34705   4.495   2.353   2.046 -0.0384  0.0085 -0.2665
17182W        W34706  10.834   5.997   1.174  0.0910 -0.2110 -0.1108
17183W        W34707   3.370   9.011   5.311  0.0659  0.0016 -0.3963
17184W        W34708  10.575   2.283   1.200 -0.0102  0.3680  0.1068
17185W        W34709   9.185   6.222  13.305  0.0500 -0.1484 -0.0161
17186W        W34710   9.281   0.479   3.583  0.1399  0.1106 -0.1785
17187W        W34711   0.149  14.223  12.725 -0.4186 -0.1658  0.1856
17188W        W34712  17.093   8.279  13.434  0.1934  0.1382  0.2776
17189W        W34713  17.181   0.189   4.969  0.2477  0.1251 -0.0749
17190W        W34714  17.169  12.321  15.476 -0.1818 -0.0487 -0.3024
17191W        W34715  17.798  13.797   0.365  0.1007  0.0649 -0.0248
17192W        W34716  17.338   7.794   0.973 -0.0009 -0.3029 -0.0897
17193W        W34717  17.141   9.219   3.620  0.0712  0.0072 -0.1137
17194W        W34718  11.649   0.735   0.092  0.0934 -0.2192 -0.3590
17195W        W34719  11.837  14.567  10.432  0.0481  0.2668  0.1379
17196W        W34720   9.466  12.733   0.383  0.1618 -0.1019 -0.2742
17197W        W34721   3.798  13.595  10.881  0.4219 -0.1119  0.0897
17198W        W34722  14.570   8.301   1.050  0.1228  0.1728 -0.1282
17199W        W34723   9.996   0.551  13.966 -0.1034  0.3805  0.0746
17200W        W34724  15.021  14.578   1.464 -0.0657  0.0609 -0.2105
17201W        W34725  17.673   7.123  12.044  0.0151  0.1642 -0.2605
17202W        W34726  13.696  13.739  14.970 -0.0180  0.0225  0.2525
17203W        W34727   6.342  16.794   1.647 -0.0307 -0.0912  0.0177
17204W        W34728  12.238  10.538   2.774 -0.0952 -0.0249 -0.1594
17205W        W34729   9.088   7.318  15.808  0.1564 -0.0435 -0.2956
17206W        W34730  11.744  11.857   5.193 -0.2043  0.0182  0.0745
17207W        W34731   8.319  11.734  12.046  0.2940  0.2002 -0.0736
17208W        W34732  11.454  16.576   3.531 -0.1816  0.1014  0.2931
17209W        W34733  15.088   3.311   1.252  0.2328 -0.2435 -0.0730
17210W        W34734  10.438  11.793  14.663  0.0364  0.0699  0.1319
17211W        W34735   9.117   7.580  13.921  0.1993 -0.1481  0.0736
17212W        W34736   8.997   8.029   1.029 -0.1686  0.4142  0.2425
17213W        W34737   4.480  13.101   0.197  0.2564  0.1506  0.0698
17214W        W34738   4.431   0.405  12.154  0.1625  0.2101 -0.1276
17215W        W34739   6.373   6.842  16.052  0.1008  0.2847 -0.0361
17216W        W34740  14.275   9.135   4.421  0.2165 -0.0420 -0.2718
17217W        W34741  13.370  10.292   4.242  0.0947 -0.0842  0.2547
17218W        W34742   3.299  14.099  12.640  0.0636 -0.2068  0.1861
17219W        W34743  14.781  13.387   3.920 -0.0110 -0.0003  0.0862
17220W        W34744   2.540  15.807   0.846 -0.1560  0.0491  0.0963
17221W        W34745   6.349   3.752   1.743 -0.3245  0.1794 -0.0321
17222W        W34746   8.313  16.146  11.464 -0.3159 -0.1691 -0.3015
17223W        W34747   4.465  11.993   3.324  0.0424 -0.1216 -0.0282
17224W        W34748   3.808  13.721  15.002 -0.1201  0.3741 -0.2052
17225W        W34749   1.763   1.112  11.362 -0.1596  0.0716 -0.0764
17226W        W34750   5.284   4.563   1.054 -0.1161  0.0779 -0.0163
17227W        W34751   1.459  10.652   1.913  0.1736  0.0166  0.0945
17228W        W34752   0.097  10.473   5.017 -0.0527  0.0705 -0.2101
17229W        W34753   4.604   5.850  12.621  0.1264 -0.0869 -0.2355
17230W        W34754   1.888   1.512   4.928 -0.0945 -0.0351  0.3668
17231W        W34755  14.300  16.181  15.009 -0.4420 -0.1558  0.0939
17232W        W34756  17.151  15.073   0.205 -0.0849 -0.0972 -0.0792
17233W        W34757   9.426  12.022  14.028  0.1909  0.0259 -0.0184
17234W        W34758   7.660   8.042   2.686 -0.0465 -0.1619  0.2805
17235W        W34759   4.809   6.447   0.293  0.3289 -0.0858  0.0297
17236W        W34760  10.612   4.520   0.910 -0.1522  0.1122  0.1493
17237W        W34761  16.886  17.572  10.662 -0.2280  0.0643 -0.1208
17238W        W34762  15.735  17.930   3.345 -0.0843 -0.0264  0.0107
17239W        W34763   6.038   3.777   2.777  0.0313 -0.0798  0.0040
17240W        W34764   3.361  11.396  11.326 -0.4309 -0.2752 -0.0213
17241W        W34765  10.088   5.646   0.601  0.2666 -0.1516  0.1007
17242W        W34766  10.127   3.699   4.344  0.0366  0.1331  0.2503
17243W        W34767   8.536   1.099  15.785  0.1107  0.2662 -0.0368
17244W        W34768   4.048   3.883   0.287  0.0302  0.1107  0.2138
17245W        W34769  13.897   7.180   3.911  0.0843  0.0078  0.1570
17246W        W34770   7.528  14.405   0.761 -0.2716  0.1903 -0.1596
17247W        W34771   3.123   6.662  15.868  0.0631  0.0066  0.0977
17248W        W34772  12.905  15.188  15.350  0.0234  0.4159  0.0767
17249W        W34773   5.909   3.619   1.936 -0.2137  0.2333  0.1373
17250W        W34774  15.491   0.316   4.458  0.0503  0.0546 -0.0714
17251W        W34775  16.262   8.014  15.759  0.0374 -0.1677  0.4082
17252W        W34776   7.543   9.038  13.652 -0.2217 -0.1666 -0.0759
17253W        W34777   0.142   7.976  12.682 -0.0711 -0.0747 -0.1840
17254W        W34778   5.146   9.914  11.483  0.1664 -0.3350 -0.0136
17255W        W34779   8.502  11.493  14.081 -0.3052 -0.1468  0.1014
17256W        W34780  16.233  11.450   4.356  0.0442  0.3368  0.0796
17257W        W34781   9.132   1.148   1.815 -0.3475 -0.0093  0.2896
17258W        W34782  10.867  16.344  14.825  0.0735  0.3672  0.0656
17259W        W34783   4.810   1.048  14.098 -0.1710 -0.1418  0.1119
17260W        W34784  16.486  15.752   0.520  0.0198  0.1248 -0.1342
17261W        W34785  10.888   6.845   0.628 -0.1616 -0.3027 -0.4593
17262W        W34786  18.080  13.461   3.368 -0.1315 -0.0413  0.1072
17263W        W34787  11.626  18.013  11.746 -0.2072 -0.1389 -0.1714
17264W        W34788  12.720   4.552  11.352  0.1209  0.0868  0.1928
17265W        W34789   1.874   6.011  13.428  0.2594  0.2216 -0.4814
17266W        W34790   4.793   3.330  13.466 -0.2943 -0.1075  0.2249
17267W        W34791   8.572   3.727  14.846  0.3226 -0.2580 -0.1667
17268W        W34792   8.519  12.306   2.205  0.2118 -0.1257  0.1308
17269W        W34793  16.333   1.743  12.076 -0.0808 -0.3076  0.0155
17270W        W34794   5.186  13.265  14.342  0.0111 -0.0796 -0.0081
17271W        W34795  11.435   4.753  15.543 -0.4586  0.2378  0.2870
17272W        W34796   2.073   6.518   2.419  0.3503  0.0786 -0.0792
17273W        W34797  10.939   0.653  13.314 -0.3927  0.3980 -0.1676
17274W        W34798  13.706  15.457  14.285  0.0086 -0.0291  0.1959
17275W        W34799  14.561  15.072  12.881 -0.1178 -0.1185 -0.0774
17276W        W34800  11.595  17.414   3.892 -0.2876  0.0602  0.0437
17277W        W34801  16.944  12.492   3.060  0.2120 -0.2104 -0.1400
17278W        W34802  16.301   1.299  13.912  0.0920  0.4268 -0.1371
17279W        W34803  12.103   6.094  13.865 -0.3145  0.0658 -0.1282
17280W        W34804   2.072   9.585   3.271  0.0541  0.1098 -0.0719
17281W        W34805   1.458   4.019   3.873  0.0755  0.2902  0.1179
17282W        W34806  16.969   5.473   0.179  0.0231  0.2104  0.0233
17283W        W34807   1.834   9.182   2.554 -0.0847 -0.4522 -0.0701
17284W        W34808  17.076  11.663  11.867 -0.1141  0.0026 -0.0435
17285W        W34809  10.207  10.110   4.758 -0.1304 -0.4456  0.0067
17286W        W34810  11.902   1.816   1.148  0.1316  0.0640 -0.1194
17287W        W34811   9.491  12.061   1.689 -0.2473 -0.2180 -0.1439
17288W        W34812  11.206  17.943   0.582 -0.0125  0.4684  0.2237
17289W        W34813  15.448  12.938   4.494  0.0114  0.2839  0.2134
17290W        W34814   9.246  17.080   2.041  0.0054  0.0987 -0.2152
17291W        W34815  15.857  17.684   5.600 -0.1236 -0.0439 -0.1464
17292W        W34816  13.412  16.652  14.520  0.0124  0.1416 -0.1053
17293W        W34817   0.384   5.762   0.137  0.0023 -0.0261 -0.0165
17294W        W34818   5.563   3.482  11.574  0.1320  0.0406  0.0587
17295W        W34819   5.494   8.987  15.288  0.4851  0.1121 -0.1244
17296W        W34820   3.301  11.689   4.877  0.0340 -0.0507 -0.0464
17297W        W34821   0.040   7.518  11.997  0.1099 -0.0167 -0.2470
17298W        W34822   1.171  15.440   5.143  0.1423  0.0792  0.0626
17299W        W34823   5.890  13.522  15.237  0.1925  0.1569  0.0601
17300W        W34824   0.775  10.993   1.122  0.4043  0.0705  0.2451
17301W        W34825   9.262  10.947   0.280 -0.0020 -0.2356 -0.1811
17302W        W34826   7.612  17.841   3.180 -0.0482 -0.0242  0.1979
17303W        W34827  17.803   7.197  15.293  0.0645  0.2435 -0.0964
17304W        W34828  14.891  12.658  15.670 -0.2201  0.2988  0.2362
17305W        W34829  13.239   6.700  12.248  0.0365  0.1464 -0.2075
17306W        W34830  16.857   1.071   4.662 -0.1448  0.0410 -0.2218
17307W        W34831  11.143   0.313   3.889  0.1748 -0.1314  0.2420
17308W        W34832   9.986  16.883  13.554 -0.0202  0.1413 -0.1127
17309W        W34833   5.194   5.431   3.029 -0.1480  0.1615  0.1044
17310W        W34834   6.659  11.801  13.283  0.0272  0.0262 -0.2422
17311W        W34835  10.251  16.217  11.867  0.1249  0.1770  0.1672
17312W        W34836  14.419   6.092  11.557  0.3548  0.0274  0.0760
17313W        W34837  10.894   3.722   0.188 -0.3607 -0.0382 -0.3505
17314W        W34838  16.463  14.266  12.539  0.0454 -0.0668 -0.1986
17315W        W34839  16.844   3.783  15.561  0.2864  0.0928 -0.0732
17316W        W34840  14.541   2.090   0.404  0.0875 -0.3677 -0.1673
17317W        W34841   0.486  10.073   1.098 -0.0960  0.0230 -0.2319
17318W        W34842  12.260  16.143  12.510  0.0810  0.1760 -0.0137
17319W        W34843  14.963  16.925   4.165 -0.1928  0.3685 -0.0832
17320W        W34844   5.078   4.866   3.748  0.0056 -0.2740  0.0005
17321W        W34845  17.740  16.298   2.251  0.0111 -0.2644  0.0792
17322W        W34846   3.334   2.482   3.054 -0.3302 -0.0535 -0.1701
17323W        W34847  16.293  11.832  11.606  0.3013  0.2412  0.0578
17324W        W34848  16.468  13.648  13.745 -0.0607 -0.1216  0.0286
17325W        W34849   9.189   0.690   0.222  0.0433 -0.1909 -0.1122
17326W        W34850  17.617   7.746   5.109  0.3107 -0.0220  0.0258
17327W        W34851   1.430  12.433  15.153  0.0142 -0.0507  0.0362
17328W        W34852  14.901  16.195   2.642  0.0154 -0.1254 -0.2024
17329W        W34853  11.083   4.143  14.166  0.0222  0.0974  0.3855
17330W        W34854   6.767  15.197  12.902 -0.0279 -0.2625  0.1563
17331W        W34855  10.208   5.959  12.262 -0.0907  0.2026  0.2672
17332W        W34856   8.601   7.430  15.085 -0.2261  0.2479 -0.1007
17333W        W34857  14.486  14.910  14.372  0.0966 -0.2197  0.0897
17334W        W34858  13.876   1.377  13.299  0.2533 -0.1928  0.1945
17335W        W34859  12.036  12.020  15.585 -0.0741 -0.2680 -0.0115
17336W        W34860   0.692  15.754   4.321 -0.2120  0.2456  0.0972
17337W        W34861   2.305  12.385  13.730 -0.3073 -0.1357 -0.0065
17338W        W34862  11.745   9.014   5.198  0.0294 -0.0598 -0.0836
17339W        W34863  17.088  12.292  12.764  0.0126  0.0590 -0.3083
17340W        W34864  10.797   6.173   3.825  0.0434  0.0400 -0.2239
17341W        W34865  11.246  15.807   5.620 -0.2001  0.2198  0.2665
17342W        W34866   5.722  15.360   0.811  0.1653 -0.0235 -0.0764
17343W        W34867   5.030   1.639  12.746 -0.0195 -0.0785 -0.0306
17344W        W34868  13.603   2.385  15.511  0.1470  0.1019 -0.1225
17345W        W34869   7.588   2.743  10.747 -0.1908  0.0057 -0.0762
17346W        W34870  12.971   8.960  15.527  0.2433 -0.0117  0.1293
17347W        W34871  17.056  14.428  15.908  0.1962 -0.0506  0.2398
17348W        W34872   1.817   3.649  15.299 -0.1359  0.0508  0.0774
17349W        W34873   5.692   1.387  12.951 -0.4389  0.0281 -0.0589
17350W        W34874   5.437   1.749  13.641 -0.0699 -0.0363 -0.0104
17351W        W34875  13.131   2.638   0.178  0.1925  0.0730 -0.1125
17352W        W34876  10.419   2.706   3.508 -0.2120  0.2687 -0.0476
17353W        W34877   1.890   0.269  11.461  0.0203  0.0264 -0.3775
17354W        W34878  18.080  16.050   1.462 -0.0853  0.0853 -0.0757
17355W        W34879   5.185   5.000  12.437 -0.0809  0.2550 -0.0116
17356W        W34880  12.582   4.290  15.061 -0.2146  0.2541  0.2027
17357W        W34881  16.284   5.306  13.269  0.1271 -0.0400  0.2024
17358W        W34882   1.350   9.409  11.852 -0.0478  0.1123 -0.1888
17359W        W34883  11.529   9.310   6.385 -0.0657 -0.2838 -0.1201
17360W        W34884  11.703   5.256   3.544 -0.4826 -0.1232  0.4463
17361W        W34885   7.683  14.653  15.663 -0.0590  0.5539 -0.0436
17362W        W34886   4.159  11.086  13.467 -0.1645  0.1566  0.2166
17363W        W34887  11.874  15.262   1.168 -0.2491  0.0504  0.5075
17364W        W34888   9.602   6.017   4.682  0.0598  0.0759 -0.0793
17365W        W34889  10.283  17.002   1.180 -0.2304  0.0153 -0.2564
17366W        W34890   2.539   8.988  15.068  0.2537 -0.2964 -0.2242
17367W        W34891  11.351   3.486   0.536  0.1182  0.2477 -0.0759
17368W        W34892   8.097  13.715  15.772  0.0640  0.3164  0.1531
17369W        W34893   8.704  17.320   3.261 -0.2103 -0.0003  0.0078
17370W        W34894  15.766   1.410   0.112  0.0275 -0.0391  0.1509
17371W        W34895   9.803  13.372   2.721 -0.0788 -0.2349 -0.0791
17372W        W34896  13.791  11.080  12.110 -0.2629  0.0983 -0.0928
17373W        W34897  11.258   5.785  13.116  0.0171  0.3659 -0.0263
17374W        W34898  14.797   9.131   3.912 -0.1168  0.0462  0.0903
17375W        W34899   8.001  11.769   0.333  0.1883  0.1943 -0.0808
17376W        W34900  12.109   5.054  11.063  0.0445  0.3558 -0.0404
17377W        W34901   4.963   4.929   0.201  0.0438 -0.2511 -0.0787
17378W        W34902  11.241   8.103  11.105 -0.1946 -0.0641  0.0020
17379W        W34903  15.118  18.020  11.919 -0.3111  0.2439  0.2750
17380W        W34904   7.535   8.053  14.423 -0.0756 -0.1914 -0.1672
17381W        W34905  13.344   2.696   3.163  0.3413 -0.0731  0.0820
17382W        W34906   9.617  11.907  15.441  0.2165  0.4788  0.3337
17383W        W34907  13.098   4.101   4.243  0.0694 -0.1517  0.0837
17384W        W34908  16.586  15.698   4.074  0.1982 -0.1590  0.0334
17385W        W34909  11.812  15.121  12.064 -0.1946  0.0040  0.1585
17386W        W34910   6.924   0.722   1.377  0.2376  0.0354  0.5034
17387W        W34911   3.191   3.284  11.800  0.0522 -0.0367 -0.0753
17388W        W34912  17.097  13.111   5.173 -0.2102  0.1860  0.0569
17389W        W34913  11.126   8.720  11.130 -0.1753  0.1445 -0.1371
17390W        W34914   0.815  10.675  14.637 -0.1475 -0.4231  0.0166
17391W        W34915  14.914  15.494  12.102 -0.2131 -0.4645  0.1834
17392W        W34916  16.499  10.684   4.987  0.1267  0.0495 -0.1123
17393W        W34917   8.958  12.188   3.589  0.1994  0.0194  0.0843
17394W        W34918   6.732   5.952  11.145  0.3023  0.1119 -0.0274
17395W        W34919  17.444   9.724   2.152  0.1873  0.0731 -0.2944
17396W        W34920   4.770   5.343  13.834  0.0528 -0.0721  0.1673
17397W        W34921   8.489   3.542   3.380  0.1656  0.2340  0.0125
17398W        W34922  12.297  15.067   2.031 -0.0205 -0.0539 -0.1177
17399W        W34923  10.467  16.732  15.371 -0.0031 -0.0207 -0.0297
17400W        W34924  17.131   5.494   1.173  0.1630 -0.0274 -0.3422
17401W        W34925   7.960   1.904   5.238  0.1086 -0.0601  0.1802
17402W        W34926  16.568  15.543   2.337  0.0008  0.0489 -0.3055
17403W        W34927   1.601  12.644   4.263 -0.2560  0.1698  0.0527
17404W        W34928   5.858  14.198  11.386 -0.2056  0.3608 -0.0649
17405W        W34929  13.146  15.744  14.254  0.1451  0.5637  0.1654
17406W        W34930   7.297  16.229   4.188 -0.1705  0.4247  0.3401
17407W        W34931  13.122  17.818  13.599 -0.3645 -0.3985 -0.1176
17408W        W34932   5.770  12.015  14.053  0.1528  0.0907 -0.0842
17409W        W34933  13.493  12.739  11.879 -0.3102 -0.0062  0.0927
17410W        W34934  11.467   8.799   4.789 -0.4510 -0.0611  0.1601
17411W        W34935   2.068  15.038  13.241 -0.1270 -0.3006 -0.0315
17412W        W34936   7.164  11.972  15.945  0.1741  0.2200 -0.2420
17413W        W34937   6.579  15.572  13.299  0.1137  0.1791  0.2666
17414W        W34938  13.714   8.405  12.404  0.0490  0.0771  0.0869
17415W        W34939   8.396  11.956  10.786 -0.0274 -0.0051 -0.1712
17416W        W34940  15.571   4.395  10.900  0.1972  0.0103  0.0851
17417W        W34941  14.253  12.607   2.695 -0.0044 -0.0207  0.1244
17418W        W34942   0.674  17.802   0.651 -0.0337  0.1131 -0.3046
17419W        W34943   7.943  11.485   0.785 -0.3329  0.2378 -0.3493
17420W        W34944   9.251   8.921   3.983 -0.1503  0.1448 -0.1713
17421W        W34945  11.581  15.802  15.252  0.2906 -0.0185  0.0167
17422W        W34946   2.939  13.564  15.864  0.0788  0.1006 -0.1209
17423W        W34947   0.279   6.470  13.279 -0.0555  0.0146 -0.0261
17424W        W34948  12.618  10.358   5.330 -0.1455 -0.1075 -0.0653
17425W        W34949  11.421   8.065  12.889  0.0069 -0.1643  0.1133
17426W        W34950   3.149  14.332   3.534  0.0505  0.1101 -0.0797
17427W        W34951  13.829   2.812   2.994 -0.0772 -0.1761  0.0877
17428W        W34952   1.793   3.791   4.508  0.1179 -0.0462  0.1649
17429W        W34953  14.323   7.793  11.561  0.1911 -0.1163  0.0193
17430W        W34954  13.409   4.285  14.740 -0.1665 -0.1612 -0.0123
17431W        W34955  12.524   9.198  13.822 -0.0645  0.0950  0.1122
17432W        W34956  14.567   5.878  10.802  0.4336 -0.4188  0.1040
17433W        W34957   8.112  11.753   4.964 -0.0733 -0.1223  0.2172
17434W        W34958  17.018   3.721  12.420 -0.4036  0.2273 -0.0985
17435W        W34959  13.909   3.219  15.153  0.0012 -0.1014  0.0193
17436W        W34960   2.602   7.638   4.847 -0.0022 -0.0761  0.0086
17437W        W34961  17.566  13.758  13.351  0.0783 -0.2135 -0.0268
17438W        W34962  17.700   0.174   0.885  0.1118  0.2355  0.3052
17439W        W34963   0.647   8.475  12.812 -0.1159  0.1655  0.0418
17440W        W34964   0.550   5.132   0.864  0.0724 -0.2936 -0.0008
17441W        W34965   5.087   3.841   2.802  0.0334  0.2592  0.3055
17442W        W34966  13.958   4.437  12.305  0.2745 -0.0280 -0.1987
17443W        W34967  12.424  10.367  11.891 -0.2644 -0.3952  0.1443
17444W        W34968   9.217   6.237  14.806 -0.2367 -0.2869 -0.1351
17445W        W34969  16.716   8.030   2.156  0.1013 -0.0228  0.0997
17446W        W34970  13.101   6.804   3.133  0.0616 -0.2310 -0.0913
17447W        W34971   3.510  16.771  11.569 -0.0989  0.2096 -0.1114
17448W        W34972  10.824   4.843  14.853 -0.0598 -0.1323  0.1542
17449W        W34973   2.638  14.196   4.967  0.2496 -0.1293  0.2702
17450W        W34974   5.992   8.977  11.506  0.1741  0.1065  0.0954
17451W        W34975   9.029   9.053  14.223  0.2684  0.0015 -0.1462
17452W        W34976  10.562   8.258  12.303 -0.2725 -0.0893  0.1587
17453W        W34977   1.130   6.832   2.665 -0.1322  0.0973  0.2306
17454W        W34978   9.281   1.260  15.424 -0.1683  0.0238  0.4687
17455W        W34979  16.091   9.043   1.628 -0.1381 -0.2001 -0.1080
17456W        W34980   9.115   3.808   1.912  0.1991  0.1696 -0.1171
17457W        W34981  10.543  13.503  15.518 -0.3551  0.1065 -0.0354
17458W        W34982  14.599  17.318  14.396  0.1522  0.2248 -0.3607
17459W        W34983   2.354   3.478   0.195  0.2646 -0.0067  0.0854
17460W        W34984  13.592   6.607   1.367  0.2787  0.1736 -0.1682
17461W        W34985  17.976   0.668   0.344 -0.1018  0.4674 -0.0332
17462W        W34986   6.997   8.541  15.524  0.3959 -0.0903  0.0722
17463W        W34987   5.324  10.744   4.872 -0.3789 -0.1308 -0.0393
17464W        W34988   9.700  15.373   3.195 -0.0173  0.1776 -0.0193
17465W        W34989   1.822   7.124   5.193 -0.1765  0.0706  0.1625
17466W        W34990   1.732  14.176  12.199  0.0941 -0.0139  0.1324
17467W        W34991   2.795   2.946   4.441 -0.1406 -0.2771 -0.0536
17468W        W34992  11.853   2.124   1.592  0.3790  0.0423  0.3319
17469W        W34993   1.014   3.681  14.880  0.0531 -0.3906  0.0949
17470W        W34994  15.839  10.341  13.415 -0.2193 -0.1656 -0.0089
17471W        W34995   8.730  10.656   4.565  0.0771  0.0405  0.2531
17472W        W34996  16.259  14.971  13.213 -0.0474  0.2161  0.0298
17473W        W34997  10.538   9.838  11.069  0.1130  0.0032 -0.2838
17474W        W34998   5.539  11.277  14.663  0.0503 -0.2020  0.0785
17475W        W34999   8.092  10.632  15.753  0.1324  0.0347 -0.3759
17476W        W35000   3.223  10.376   1.973  0.0440  0.0475  0.4420
17477W        W35001   0.211   3.927  13.226 -0.0242 -0.2050 -0.1996
17478W        W35002  14.619  12.593  12.008 -0.1772  0.3978 -0.1390
17479W        W35003   5.730  16.427  13.253  0.1323 -0.0441 -0.0236
17480W        W35004   3.491   3.076   3.578 -0.0781  0.0395 -0.0464
17481W        W35005   4.144   8.615  11.893 -0.2755  0.2456 -0.0977
17482W        W35006  13.035   4.198  15.911  0.2014 -0.2945  0.1741
17483W        W35007   0.513  16.243  15.981  0.0036 -0.2745  0.0408
17484W        W35008   4.192   1.259  13.384  0.1023 -0.0602  0.2203
17485W        W35009   7.414   1.004  14.112 -0.0130  0.2249  0.1939
17486W        W35010   1.361  13.192  10.422  0.3079  0.1426 -0.0083
17487W        W35011  13.298   0.334  13.838  0.1801 -0.0090  0.2262
17488W        W35012  10.098   7.281   2.306  0.0209 -0.0810 -0.2359
17489W        W35013  15.209   8.714  10.607 -0.1820 -0.0474  0.0491
17490W        W35014   4.302   1.940   4.703  0.2363  0.2761  0.1091
17491W        W35015  14.622   7.702   5.534  0.0204 -0.1524 -0.0313
17492W        W35016   0.335  13.729   3.322 -0.0614  0.0719  0.2402
17493W        W35017  16.205   5.556  14.444 -0.3478  0.1261  0.1986
17494W        W35018   5.314  12.821  13.854  0.1731  0.0049  0.0524
17495W        W35019  14.283  13.577   5.141  0.1538 -0.2857  0.2917
17496W        W35020  15.681   9.260   1.887  0.3108  0.1552 -0.1828
17497W        W35021  11.448   0.789   3.195 -0.0106 -0.5325  0.0353
17498W        W35022   0.558   1.925  11.551 -0.3085  0.3606  0.1335
17499W        W35023   9.321  14.666   1.618 -0.2896 -0.0396 -0.4027
17500W        W35024   7.307  17.175  12.687  0.0650 -0.1486  0.2021
17501W        W35025  15.411  13.392  13.910  0.0318 -0.0385  0.2003
17502W        W35026   4.425   0.300   2.895  0.0502  0.1988  0.2156
17503W        W35027  11.535   7.017  12.373 -0.0998 -0.0252  0.1242
17504W        W35028   4.938   5.295  15.874 -0.2733  0.3931  0.0962
17505W        W35029   3.383   7.054  11.070 -0.1080 -0.3586 -0.2886
17506W        W35030  16.577  11.291  14.925  0.1233 -0.0642 -0.1506
17507W        W35031   8.258   2.420   2.877  0.1522 -0.1220  0.1487
17508W        W35032  13.495   0.626   2.557  0.2462  0.0726 -0.1370
17509W        W35033   2.058   4.773   3.976  0.2888 -0.0202 -0.0084
17510W        W35034   1.183   0.972   0.911  0.2598  0.1342 -0.0596
17511W        W35035   6.927   5.047  13.048 -0.1916 -0.1991 -0.2422
17512W        W35036  11.987   3.954  12.212  0.1025 -0.1464  0.0472
17513W        W35037   2.736  14.884   4.336  0.0691  0.2152 -0.0771
17514W        W35038   3.199  11.950  15.793 -0.4913 -0.0458 -0.1207
17515W        W35039   8.876   2.173   1.693 -0.0914 -0.0756 -0.0550
17516W        W35040  10.080  13.973  13.046 -0.1863  0.2653  0.2014
17517W        W35041   6.813  14.475  14.060 -0.0761 -0.0638 -0.1365
17518W        W35042   0.982   5.981  15.482 -0.0696 -0.0561 -0.0424
17519W        W35043   5.805  10.316  15.629  0.1901  0.2974 -0.2494
17520W        W35044   5.900  15.509  15.877 -0.4280  0.4044  0.0830
17521W        W35045  16.854   9.445  11.185 -0.1276  0.2051  0.2412
17522W        W35046   2.460  14.431  15.919  0.1411  0.0447  0.1245
17523W        W35047   2.984  10.791  11.822  0.3331 -0.2564  0.1025
17524W        W35048  13.697   7.714   2.113  0.1255  0.2468  0.0694
17525W        W35049   1.433  16.829  14.848 -0.1617 -0.0737  0.2505
17526W        W35050   6.058   0.201  15.167  0.0535 -0.0550 -0.0387
17527W        W35051   3.367  16.850   0.306  0.1372  0.1233 -0.1596
17528W        W35052  16.750   3.206  14.344 -0.2662 -0.0474 -0.0861
17529W        W35053   3.979   8.509  14.899  0.0920 -0.0695 -0.1230
17530W        W35054  15.765   3.176  14.165 -0.0227 -0.1915  0.2675
17531W        W35055   4.663  17.122   4.069  0.0571 -0.0507  0.1481
17532W        W35056   0.823   7.153  14.223  0.0047 -0.0447  0.1297
17533W        W35057  10.647  10.789  14.765  0.2949  0.0076  0.0382
17534W        W35058   8.628  11.694   2.750  0.0640  0.0339 -0.0406
17535W        W35059   7.903   8.477  12.215 -0.2272  0.0816 -0.0636
17536W        W35060  16.095   9.252   1.078 -0.1954 -0.0716  0.1855
17537W        W35061   6.697   4.559   0.580 -0.0434 -0.0544 -0.0227
17538W        W35062   1.819   0.472   3.061 -0.0595  0.0201  0.2524
17539W        W35063   4.521   0.488   3.434 -0.0528 -0.0439  0.3430
17540W        W35064   2.830   5.347   0.250  0.0271 -0.0691 -0.1151
17541W        W35065   5.552   8.196   3.188 -0.0965 -0.2557  0.2601
17542W        W35066   7.529  11.936   1.186  0.2222  0.0684 -0.1191
17543W        W35067  13.035   3.412   1.984 -0.0202 -0.1363 -0.1240
17544W        W35068  10.028   4.865   2.998  0.1407 -0.1512  0.3401
17545W        W35069   0.667  11.539  13.510 -0.2132  0.0454 -0.1160
17546W        W35070  17.201   8.601  14.912  0.2397 -0.1128 -0.0810
17547W        W35071   8.293  11.982  13.870  0.1178  0.0859  0.0521
17548W        W35072  18.126   0.769  11.824  0.1394 -0.0018  0.2732
17549W        W35073  12.653   3.329  15.914  0.1761 -0.1576  0.0958
17550W        W35074  11.050   4.109   2.686  0.0638 -0.1013  0.0460
17551W        W35075  14.512   3.976  15.081  0.1155 -0.2207 -0.0708
17552W        W35076   6.236   0.275   1.757  0.0528 -0.1860 -0.3010
17553W        W35077  15.312   5.627  12.642  0.4179 -0.1106  0.0602
17554W        W35078  12.407  11.450   0.847  0.1475 -0.1881  0.1266
17555W        W35079   2.686  12.561   1.946 -0.0856 -0.2938  0.1614
17556W        W35080  15.135   1.796   3.350  0.2086 -0.0236  0.0386
17557W        W35081   8.044   0.815  13.281 -0.1229 -0.0351  0.0810
17558W        W35082   6.214  16.398   5.961 -0.3290  0.1050 -0.0578
17559W        W35083   9.880  13.876   0.487  0.0587 -0.1096  0.0854
17560W        W35084   5.503  10.275  12.723 -0.1797 -0.0367 -0.0984
17561W        W35085   1.456   0.417  15.043 -0.0465  0.2763 -0.0546
17562W        W35086  11.888   3.422  10.995  0.0585 -0.2621  0.2355
17563W        W35087   6.720  18.127   2.217 -0.0821 -0.3375  0.0607
17564W        W35088   0.073   9.756  12.909 -0.1285 -0.0826 -0.1293
17565W        W35089  13.096   0.796  12.475  0.1085 -0.0760 -0.0644
17566W        W35090   4.197  11.616   4.951 -0.0560 -0.0141 -0.0341
17567W        W35091  14.373  16.062   0.327 -0.0147  0.1564 -0.0982
17568W        W35092   2.165  15.515   2.762 -0.0749 -0.2471  0.0284
17569W        W35093   6.264  14.014   0.705 -0.0980  0.1335 -0.0168
17570W        W35094  11.718  11.642  11.325 -0.2915  0.1634  0.0728
17571W        W35095  16.776   1.723  12.655  0.0101 -0.2612  0.2233
17572W        W35096   8.524  11.397   5.003 -0.0359 -0.0433  0.2464
17573W        W35097   5.321   8.516   1.018 -0.1558  0.2480  0.0897
17574W        W35098   8.698   6.213   1.916  0.0878 -0.0331 -0.0491
17575W        W35099   5.874   6.839  15.346  0.2418  0.1085  0.0051
17576W        W35100   0.371   8.075   1.550 -0.2075  0.2892 -0.3528
17577W        W35101   2.887  14.840  11.974 -0.0883  0.0150  0.1018
17578W        W35102   5.446   5.995  13.142 -0.4215  0.3954  0.1309
17579W        W35103  12.374  14.870  12.809 -0.0071  0.0228  0.2074
17580W        W35104   4.951  12.489   3.022  0.1531 -0.0413  0.0391
17581W        W35105   5.050   8.860  12.436  0.0438  0.2875  0.0379
17582W        W35106   3.030  10.560  11.322  0.2885  0.0220 -0.0243
17583W        W35107  15.011   0.405  11.193 -0.1193  0.1179  0.1328
17584W        W35108  14.140   7.744  14.719 -0.0780 -0.1416 -0.0571
17585W        W35109  12.286   9.165  14.273 -0.0323 -0.1066  0.0913
17586W        W35110   6.679   4.283  12.741 -0.0534 -0.0989 -0.0227
17587W        W35111  10.252  17.058   3.142  0.0164 -0.1874 -0.0652
17588W        W35112  11.833   0.315   5.499 -0.2028  0.2176  0.2024
17589W        W35113   8.515  10.230  12.802 -0.3821  0.0566 -0.1004
17590W        W35114   3.188   5.435   2.654  0.2410  0.0444 -0.1068
17591W        W35115  15.853  16.406  15.449  0.2398  0.3248  0.2675
17592W        W35116  15.661   0.201  13.619  0.2461 -0.2292 -0.1020
17593W        W35117  17.763   9.300  11.483  0.3392  0.1016 -0.0513
17594W        W35118   3.416   9.617  12.453  0.0249 -0.2934 -0.1775
17595W        W35119  16.433   1.011  11.376  0.1150  0.2480  0.1911
17596W        W35120   5.184  10.685  15.134  0.2230  0.1073  0.2304
17597W        W35121   3.173  17.923   2.572 -0.0636 -0.1980  0.0168
17598W        W35122   1.862   1.695  15.263  0.1689  0.0444  0.1026
17599W        W35123   2.014   1.231   1.647  0.0466  0.2133  0.0094
17600W        W35124  16.856  10.815  12.148  0.1461 -0.2388  0.3381
17601W        W35125  10.421  10.787  15.953 -0.1762 -0.0543  0.5106
17602W        W35126   3.018   7.641   2.523  0.3820 -0.0494  0.1836
17603W        W35127   6.214   1.059  15.073  0.2643 -0.2236 -0.0662
17604W        W35128   3.161  10.979  13.921 -0.0925  0.0840 -0.0191
17605W        W35129   0.478  11.045  15.788  0.0206  0.0365 -0.0184
17606W        W35130  17.948  11.379  11.388 -0.0523 -0.1137 -0.0626
17607W        W35131   4.646  12.981  11.705  0.0145  0.0063 -0.0268
17608W        W35132  14.365   3.229  14.866 -0.3528 -0.1194 -0.0368
17609W        W35133   5.651   3.731  11.969  0.1770  0.0399  0.5382
17610W        W35134   6.724   1.095  15.199  0.0681 -0.1874 -0.0124
17611W        W35135  13.396   5.931  14.200 -0.1970  0.0722  0.1182
17612W        W35136   8.013   2.537  11.749 -0.2166  0.2154 -0.0541
17613W        W35137   0.914   5.659   4.664  0.1642  0.0833  0.3425
17614W        W35138   3.147  15.834   4.163  0.0793  0.0249 -0.2623
17615W        W35139   9.749  12.832  15.275  0.0094 -0.1341 -0.0120
17616W        W35140   2.430   3.308  11.533  0.1040 -0.3140  0.1855
17617W        W35141   8.594   3.637   0.602  0.1702 -0.0096 -0.1593
17618W        W35142  12.440   0.298   3.858  0.1521  0.0618 -0.2814
17619W        W35143   3.628   9.536  15.038 -0.2107 -0.1455 -0.0990
17620W        W35144   7.681   2.391  12.133  0.2163 -0.2436 -0.0092
17621W        W35145  17.572   3.888  12.423 -0.0584 -0.2387 -0.0902
17622W        W35146   7.111   7.669  13.377 -0.0212  0.1669 -0.2447
17623W        W35147   4.954   3.653   1.274 -0.3905 -0.3035 -0.0120
17624W        W35148   8.829  10.887   2.121  0.0119  0.0419 -0.0624
17625W        W35149   9.221  10.808   4.417 -0.0937  0.1011 -0.2948
17626W        W35150   4.876  12.554  12.545  0.1185 -0.2238 -0.0661
17627W        W35151   6.741  13.350  11.875  0.1167  0.3283  0.2530
17628W        W35152   3.542  15.800   4.987  0.0796 -0.2368 -0.0559
17629W        W35153  15.552   5.154   1.753 -0.0301 -0.0667  0.0648
17630W        W35154  17.688   0.871  16.006 -0.0752  0.2270 -0.2142
17631W        W35155   1.842   5.386  12.646 -0.0714  0.2592  0.2906
17632W        W35156   3.021  16.959   2.450 -0.0304 -0.2086 -0.3975
17633W        W35157  16.828   5.807  14.367 -0.0586  0.1174 -0.3797
17634W        W35158  16.789  13.601  13.332  0.2331  0.0174 -0.0431
17635W        W35159  15.116  14.250   3.635 -0.2480  0.2715 -0.1646
17636W        W35160   0.527   2.802  15.716 -0.0879 -0.2336  0.0514
17637W        W35161   9.457   2.507  12.030 -0.2236  0.1090 -0.2790
17638W        W35162   3.051  15.457  11.164 -0.0606  0.2095 -0.0052
17639W        W35163   0.113   2.079  15.058  0.0229  0.0774  0.1616
17640W        W35164  13.901   7.321  12.438  0.0339 -0.0387 -0.0167
17641W        W35165   4.785   3.114   4.116 -0.2657 -0.0842 -0.1230
17642W        W35166   6.918  10.124  15.207  0.1830 -0.0343  0.2174
17643W        W35167  17.754  14.844   4.783  0.1338 -0.2007  0.0623
17644W        W35168   9.193   6.816  12.201  0.0779  0.1376 -0.0526
17645W        W35169   5.891   4.672  12.024  0.0984 -0.2073 -0.0155
17646W        W35170   7.497  16.200   1.729 -0.3646  0.2309 -0.1988
17647W        W35171   3.705   2.629   4.443 -0.2129 -0.4481 -0.4014
17648W        W35172   1.580   7.910  14.241  0.1236  0.1071 -0.1035
17649W        W35173   5.288  10.856   2.898 -0.1776  0.0452  0.0383
17650W        W35174  15.562  17.464   3.092 -0.1047  0.0746 -0.0721
17651W        W35175   9.644  17.398   1.946  0.0852 -0.1927 -0.1198
17652W        W35176   7.209   1.931  10.409  0.0813 -0.0297  0.4230
17653W        W35177  17.001   9.891   2.949  0.3063  0.0586  0.1530
17654W        W35178  13.214   0.406   1.545  0.0779 -0.0975 -0.0379
17655W        W35179  10.825   9.924  15.898  0.0002 -0.1263  0.1732
17656W        W35180  16.968  15.611  15.645  0.1597 -0.0211  0.0851
17657W        W35181   9.650   2.116  14.072 -0.1675 -0.2521  0.3208
17658W        W35182   3.372  15.453  11.524 -0.2098  0.0120  0.3569
17659W        W35183  17.906  11.769  11.831 -0.0981  0.2289  0.0700
17660W        W35184   2.134  12.427  15.498 -0.1242 -0.0721  0.1592
17661W        W35185  11.054   8.728   0.140  0.1427 -0.0007  0.0419
17662W        W35186  17.313  16.981  15.945  0.0269 -0.2196  0.1368
17663W        W35187  10.347  17.963  15.127 -0.2293  0.0050 -0.0604
17664W        W35188   7.630  16.298  14.995 -0.1938  0.2278 -0.1210
17665W        W35189  14.451  10.304  14.736  0.0152 -0.2022 -0.2869
17666W        W35190   0.099   5.954  15.279  0.0997  0.1532 -0.0146
17667W        W35191  11.160  12.939  10.283 -0.1433  0.2122  0.2132
17668W        W35192  10.375   7.722   2.141  0.0464 -0.1864 -0.0628
17669W        W35193  10.028  13.805   2.646 -0.1777 -0.0859 -0.1567
17670W        W35194  16.745   6.281  14.616 -0.1866 -0.1634  0.2436
17671W        W35195   1.462   8.395   1.475 -0.1798  0.0345 -0.1048
17672W        W35196   2.395   2.125   4.668  0.3005 -0.3583  0.0804
17673W        W35197   0.787  15.408  11.245  0.2224  0.1321  0.0356
17674W        W35198   4.957   6.165  12.623  0.0741 -0.0570  0.2319
17675W        W35199   5.701  13.977  15.149  0.1425  0.2256 -0.1523
17676W        W35200   6.493   2.299   0.799 -0.0658  0.2408  0.0988
17677W        W35201  14.185  11.840  15.844 -0.1641 -0.1534  0.2434
17678W        W35202  13.930   5.913  15.344  0.4098 -0.0811 -0.4961
17679W        W35203  13.840   8.650  14.727 -0.0872 -0.0644 -0.1472
17680W        W35204  11.455   7.825  15.217  0.0421 -0.0017 -0.1419
17681W        W35205  10.607   8.436  12.776 -0.2038  0.0288  0.1696
17682W        W35206  13.104  12.172   3.854 -0.1237 -0.0024  0.1535
17683W        W35207  14.413  12.451  14.335 -0.0772  0.2442 -0.0525
17684W        W35208   7.357   2.657   3.317 -0.3171  0.1495  0.1331
17685W        W35209   8.003  16.581   2.239 -0.1552 -0.0074  0.4260
17686W        W35210   2.477   8.177   0.551  0.0958 -0.0891 -0.2093
17687W        W35211  10.444  11.271  11.574  0.0737 -0.1915  0.0289
17688W        W35212  16.772  17.327   3.939  0.1696 -0.0038 -0.0039
17689W        W35213   2.890  10.554   0.782 -0.0663 -0.0308  0.2557
17690W        W35214  10.968  11.871  14.759 -0.3253 -0.0441  0.0036
17691W        W35215   9.781  10.395  14.264 -0.2216 -0.0659  0.0338
17692W        W35216   0.064   1.439   3.345  0.2481  0.2487 -0.1342
17693W        W35217  16.224  17.406   2.086  0.1477 -0.0693  0.1032
17694W        W35218   3.140   7.535  12.543 -0.1572 -0.1554 -0.2873
17695W        W35219  11.998   4.370   4.562  0.1169  0.0441 -0.0698
17696W        W35220  18.039  16.355  15.958  0.1638  0.1883  0.1596
17697W        W35221  12.495  13.992   1.781 -0.1346  0.0810 -0.0472
17698W        W35222  16.927  12.722   4.040 -0.3268 -0.1293  0.3383
17699W        W35223   5.029   1.720   5.537 -0.2590 -0.4195 -0.0959
17700W        W35224  15.337   5.852  11.405 -0.1703 -0.0271 -0.2969
17701W        W35225  16.739  15.170   4.380 -0.0255  0.1946 -0.1085
17702W        W35226  16.862   0.865   0.804  0.4193 -0.0625  0.1357
17703W        W35227  11.491   1.885  11.327 -0.1117  0.1363 -0.0591
17704W        W35228  10.019   5.082  12.893  0.0015  0.1500 -0.0903
17705W        W35229   4.335   6.597   0.068  0.1071  0.1168 -0.0151
17706W        W35230  14.947   7.712  15.210 -0.0035 -0.0111  0.0233
17707W        W35231   0.040  17.840  12.964  0.0423 -0.0403  0.0088
17708W        W35232   3.025  14.404  12.901  0.1573  0.0349 -0.2038
17709W        W35233   7.498   7.918   3.553  0.1549 -0.1510  0.0307
17710W        W35234  11.181   2.505   2.722  0.0582  0.0733 -0.0432
17711W        W35235   6.784  16.150   2.566 -0.3187 -0.0781  0.0114
17712W        W35236  14.649  17.130   2.345 -0.2689  0.1020  0.0067
17713W        W35237   7.867   1.109  14.540  0.3443 -0.0694 -0.0042
17714W        W35238   6.097  11.208   1.637  0.3457 -0.0454  0.0291
17715W        W35239  16.341   6.312  13.211 -0.1377  0.0355  0.1350
17716W        W35240   5.151   6.372  13.511  0.1571 -0.2758  0.1407
17717W        W35241  10.298   3.287   1.838  0.0288 -0.0879  0.0579
17718W        W35242   8.123  15.917  12.666 -0.0187 -0.3277 -0.0320
17719W        W35243  13.165  12.047  13.324  0.0929 -0.0101  0.1384
17720W        W35244  17.840  16.868  11.917  0.2007 -0.2680 -0.2736
17721W        W35245  12.626  13.053  15.838  0.2535 -0.2964 -0.0208
17722W        W35246  14.892   9.446   0.686  0.1163 -0.0854  0.0360
17723W        W35247  14.083  15.900  14.059 -0.0462  0.1243  0.0176
17724W        W35248   6.321   8.138   2.782 -0.1562 -0.1588  0.2273
17725W        W35249  14.397   9.216  15.369 -0.0047  0.1691 -0.0086
17726W        W35250   9.551  11.910   1.224  0.0587 -0.1537  0.4746
17727W        W35251  11.061   6.068   0.738  0.0767  0.0102 -0.1976
17728W        W35252  17.644   3.088  11.077 -0.1890 -0.0907 -0.3178
17729W        W35253   8.373   2.931   1.376 -0.2654 -0.0542  0.0513
17730W        W35254   0.071   0.922   2.234 -0.3286 -0.0480  0.0161
17731W        W35255  10.907  11.052   3.963  0.0184  0.1403  0.0080
17732W        W35256   1.952   1.492  12.907  0.0427 -0.0811  0.3070
17733W        W35257   2.770   2.863  13.225  0.0094  0.2906  0.2390
17734W        W35258  17.589   9.208  15.445 -0.1407  0.0570  0.1340
17735W        W35259   3.008  14.706  13.707  0.0649  0.2751  0.3781
17736W        W35260   1.995  12.716  13.066  0.1881  0.2832 -0.1073
17737W        W35261   8.978   0.200  11.546 -0.0172  0.1721 -0.0908
17738W        W35262   0.583  16.972  13.521  0.0526 -0.0657  0.0694
17739W        W35263  15.983   8.699  12.512 -0.1621 -0.0262  0.1030
17740W        W35264  17.209  14.941   2.104 -0.2713  0.3112 -0.2216
17741W        W35265   7.024   6.787   4.651  0.2440  0.1752 -0.0300
17742W        W35266  12.712  15.925   2.376  0.2664  0.0944 -0.0963
17743W        W35267  14.449   6.351   2.443 -0.6548  0.0411  0.0586
17744W        W35268  15.437   0.148   3.446  0.1672 -0.0416 -0.2332
17745W        W35269   1.038   5.901  11.727  0.1711 -0.2187 -0.0839
17746W        W35270   3.332   6.188  11.516 -0.4946 -0.0089 -0.2013
17747W        W35271   4.377   3.617  13.693  0.2588  0.4117  0.0082
17748W        W35272  17.662  10.345  12.192 -0.2112 -0.0167  0.0703
17749W        W35273  14.932  15.378   2.891 -0.2866  0.1578  0.3437
17750W        W35274   4.089   3.539   0.666  0.1077  0.2642 -0.1150
17751W        W35275   2.849   7.926  15.419  0.0451  0.1275  0.3440
17752W        W35276   6.430  15.809   4.033 -0.0542 -0.1420  0.0432
17753W        W35277  12.563  18.101   0.538  0.1332 -0.0911 -0.1425
17754W        W35278  10.078  17.147   5.813 -0.2617 -0.1382  0.1377
17755W        W35279   5.437  10.244   4.891  0.1063 -0.1366  0.0321
17756W        W35280   1.643   0.094  14.107 -0.0085 -0.2003 -0.3148
17757W        W35281   5.744   1.450   3.954 -0.0653 -0.0788  0.0978
17758W        W35282   3.728  11.687  14.391  0.1111 -0.1281  0.3833
17759W        W35283   9.703  14.578  11.687 -0.0056  0.1916  0.1439
17760W        W35284  15.917   4.698  14.099  0.1740  0.1133 -0.1317
17761W        W35285   0.554  15.965  13.662 -0.0875  0.2954 -0.0055
17762W        W35286   7.479   4.163  14.371 -0.0165 -0.0351 -0.0469
17763W        W35287   7.953   6.889  11.531 -0.2517 -0.1665 -0.2277
17764W        W35288   7.179  16.875   2.269  0.1310 -0.1280 -0.0913
17765W        W35289  13.673  11.034   0.570 -0.0166  0.1904  0.0456
17766W        W35290   5.624   1.949  12.894  0.1923  0.1613  0.2991
17767W        W35291   2.907  13.544  14.170  0.2276  0.2981 -0.1067
17768W        W35292  10.952   5.216  12.557 -0.1377  0.0012 -0.1404
17769W        W35293   5.826   5.477  11.622  0.0283  0.0316  0.0595
17770W        W35294  16.280  17.173   0.778  0.2318  0.0703  0.3266
17771W        W35295  11.116  12.502  14.206 -0.0157  0.0147  0.1334
17772W        W35296   4.792   7.316  14.166 -0.3071 -0.2678  0.1470
17773W        W35297   7.427  16.889   0.542 -0.0614  0.1349  0.1152
17774W        W35298   0.236  12.338  11.269 -0.2157  0.0635  0.0420
17775W        W35299  17.720   3.942  15.254 -0.1587  0.0684  0.2197
17776W        W35300  10.423  13.415  11.577 -0.3422  0.0726 -0.0235
17777W        W35301   7.190   2.935  13.491  0.0916  0.3447 -0.1203
17778W        W35302  16.551   1.290  12.474 -0.2155 -0.2835  0.0690
17779W        W35303   5.718   2.641  13.553 -0.0623  0.3144 -0.0853
17780W        W35304   1.484   3.687   2.609 -0.1593 -0.1881  0.1823
17781W        W35305   6.059  11.761   2.188  0.2962  0.0497  0.4043
17782W        W35306   4.943   7.207   0.578  0.1028 -0.2339  0.2757
17783W        W35307   6.068  16.217  14.445  0.2105  0.2938  0.1317
17784W        W35308   2.361  12.000   1.153 -0.0346  0.1590  0.0849
17785W        W35309   3.468   6.311   3.696  0.0932  0.1522  0.1542
17786W        W35310  14.225  12.460  12.585 -0.1926  0.1560  0.0217
17787W        W35311   6.786  14.964  12.446 -0.1695  0.1138 -0.3131
17788W        W35312  14.298  16.122  12.792 -0.1255  0.2762 -0.2430
17789W        W35313   4.727   5.930  14.976 -0.1209 -0.0377  0.0300
17790W        W35314  17.959   3.356  11.662  0.1578  0.2914 -0.0167
17791W        W35315  15.861  12.838   2.112 -0.0384 -0.1734 -0.0502
17792W        W35316   5.798   7.026   5.789 -0.1589  0.0513  0.1826
17793W        W35317  12.117   6.300  13.276 -0.0076 -0.0765  0.3854
17794W        W35318  16.631   7.730  15.825  0.0316  0.0334  0.0162
17795W        W35319   0.001  11.958  12.924  0.1021 -0.2018 -0.0088
17796W        W35320  12.787   0.831   3.326 -0.0647 -0.1687 -0.1656
17797W        W35321   3.503   8.834   4.838 -0.0143 -0.0169  0.0174
17798W        W35322  17.200  15.832  10.345 -0.1584  0.0908 -0.1271
17799W        W35323  14.461   9.258   3.162  0.0240 -0.0031  0.0958
17800W        W35324   6.394  15.221  13.584  0.1255  0.0428  0.2064
17801W        W35325  11.224  14.906   0.957  0.0620  0.1448 -0.2492
17802W        W35326   3.308  12.195  13.799 -0.5407 -0.3239  0.4411
17803W        W35327  11.839   5.283   0.951 -0.0281 -0.1650  0.1212
17804W        W35328  14.103   3.266   2.044  0.1237  0.1001 -0.4104
17805W        W35329   2.746  17.262   0.594 -0.0085 -0.1282 -0.0159
17806W        W35330  11.314  15.153   3.186  0.1583 -0.1489 -0.1497
17807W        W35331   3.326  14.504   0.028  0.0987 -0.2670  0.2243
17808W        W35332   5.752   5.157  15.736 -0.1898 -0.1307 -0.1025
17809W        W35333   9.531   9.975  13.603  0.1065  0.2615 -0.0441
17810W        W35334   1.359   1.083  14.322 -0.2206 -0.0997  0.2525
17811W        W35335  14.083  17.055  15.570  0.0350  0.1470 -0.2156
17812W        W35336   5.663   7.975   5.180 -0.3031 -0.1540 -0.0534
17813W        W35337   9.540  15.346  11.286  0.1674  0.0374  0.1130
17814W        W35338  11.435   4.671   1.455 -0.0519  0.1773 -0.3945
17815W        W35339  13.908   4.247  15.945 -0.4122 -0.3395  0.1807
17816W        W35340  12.908  16.751  14.886 -0.0310 -0.3423 -0.0543
17817W        W35341  11.123  10.514  11.254  0.1050  0.3294  0.4733
17818W        W35342  11.314  15.818  13.670 -0.0944  0.2431  0.3728
17819W        W35343  17.010  17.284  14.272  0.0607 -0.1330 -0.0316
17820W        W35344   2.094  11.550   4.750 -0.2295  0.3463  0.1737
17821W        W35345  12.385  10.304  12.927 -0.3204 -0.1274  0.1559
17822W        W35346   0.282   2.093  13.301 -0.0292 -0.3751 -0.2724
17823W        W35347   1.505   2.208  11.583  0.0461 -0.1173  0.1065
17824W        W35348  12.741   3.592   2.350  0.0864 -0.0126 -0.0346
17825W        W35349   0.684   8.342   4.701  0.0681  0.2673 -0.2456
17826W        W35350   6.891  12.801   0.380  0.3967 -0.0181 -0.3109
17827W        W35351  11.945   9.551   5.203  0.1361  0.0718  0.2305
17828W        W35352   9.231   5.946   0.222  0.0805 -0.0140 -0.1036
17829W        W35353   5.093  11.120   3.374 -0.1883 -0.3250  0.1622
17830W        W35354   7.356   7.402   1.459  0.0540  0.1355  0.0469
17831W        W35355  12.538   8.384   2.588 -0.2033 -0.1382  0.1496
17832W        W35356   3.895  10.647   2.889  0.1276 -0.0717 -0.1291
17833W        W35357  16.943   1.420  15.533 -0.1416  0.3296 -0.1417
17834W        W35358   0.891  11.329  14.604  0.1157 -0.1777 -0.0824
17835W        W35359  16.546  12.032  14.962  0.0646 -0.0850 -0.2057
17836W        W35360  14.617  13.476  15.021  0.2696 -0.0504 -0.0028
17837W        W35361  12.574   5.627   0.855  0.0884 -0.0923  0.2071
17838W        W35362   2.496  14.570  11.329 -0.0961  0.1386  0.0622
17839W        W35363   8.447   5.668   1.157 -0.2742 -0.0638  0.0281
17840W        W35364  15.337   0.979   0.821 -0.0751 -0.0284  0.0406
17841W        W35365   6.711  10.931   2.740  0.1274  0.1240  0.1088
17842W        W35366   8.970  14.377   2.908 -0.0334 -0.2692  0.0135
17843W        W35367   1.938  15.862  12.943  0.1398  0.1012 -0.0805
17844W        W35368   3.093  10.966  11.066  0.4290  0.2016  0.0500
17845W        W35369  12.082   8.693  12.174 -0.0444 -0.0643 -0.0733
17846W        W35370  14.422   9.640   3.484  0.0405 -0.1436  0.1942
17847W        W35371  17.617   3.271   4.698  0.0304  0.2300 -0.0119
17848W        W35372   8.772   9.166   2.661 -0.1447 -0.0795 -0.1319
17849W        W35373   3.573  10.302  14.573 -0.0863  0.0252  0.0436
17850W        W35374   1.207   4.974  12.098 -0.1298 -0.3401  0.0381
17851W        W35375   5.326   0.140   1.802  0.0023 -0.0468 -0.2619
17852W        W35376  14.788  11.519   2.806  0.1741  0.3552 -0.1063
17853W        W35377   9.479  15.195   3.860  0.1956  0.0780 -0.2294
17854W        W35378  14.926  16.892  13.031 -0.1292  0.0231 -0.2876
17855W        W35379  13.249   3.450   2.429  0.0423 -0.0593  0.1547
17856W        W35380  17.216   1.603   5.201 -0.4373 -0.0037 -0.3520
17857W        W35381  15.995   1.372   4.419  0.0882  0.0252  0.0476
17858W        W35382   4.512  16.248   2.510 -0.4390 -0.0181  0.1046
17859W        W35383  10.244   5.082   3.467  0.0474 -0.0543 -0.1551
17860W        W35384   2.896   4.472   0.905  0.1097 -0.3620 -0.0448
17861W        W35385   5.773  17.951   2.277  0.0711  0.0220 -0.0637
17862W        W35386  14.002  17.374  15.996  0.0900 -0.1657 -0.0136
17863W        W35387   2.361   0.533   2.875 -0.0576 -0.2030 -0.1546
17864W        W35388  15.259   9.945   3.057 -0.0702  0.2176  0.1155
17865W        W35389   3.885   8.266   2.360 -0.0646  0.1404  0.2474
17866W        W35390  17.677  17.021   5.097 -0.0426 -0.2877  0.0794
17867W        W35391  13.464  17.844  14.467 -0.1591 -0.1847 -0.0010
17868W        W35392   0.598  10.905   3.573 -0.0733 -0.4750 -0.3411
17869W        W35393  13.162   8.440   3.718  0.1096  0.1163 -0.0920
17870W        W35394  17.299  17.375  12.635 -0.1446  0.3270  0.0611
17871W        W35395   1.606   0.859  13.939 -0.0723 -0.3928  0.0334
17872W        W35396  13.475   0.760  15.260  0.0975 -0.1473 -0.0489
17873W        W35397  15.139   1.096   1.706 -0.2523 -0.2158  0.0768
17874W        W35398  11.200  17.940  15.595  0.1603  0.2831  0.1157
17875W        W35399   8.989   9.825   3.392 -0.3155 -0.2126  0.0077
17876W        W35400  10.585   1.827  13.149 -0.3635  0.0874  0.2023
17877W        W35401  14.395  13.793  13.549  0.2977 -0.0023  0.1432
17878W        W35402  16.316  13.268   2.906  0.1289  0.1465  0.1220
17879W        W35403   7.651   8.015  12.242 -0.1716 -0.0420 -0.0302
17880W        W35404   7.937   3.684  11.945  0.2238  0.2670 -0.1452
17881W        W35405   3.662  15.761   5.514  0.0070 -0.0810  0.0707
17882W        W35406   7.898  15.060   4.862  0.0502  0.2367  0.0077
17883W        W35407  12.526   6.894  15.534 -0.1887 -0.0835 -0.0327
17884W        W35408  18.087   0.736  13.104  0.0108 -0.0251 -0.2732
17885W        W35409  10.774   1.446   0.902 -0.0852 -0.0099 -0.1029
17886W        W35410  13.048  12.649  14.266 -0.0626 -0.1756  0.0837
17887W        W35411   3.377   3.891  12.130  0.0986  0.1830 -0.2206
17888W        W35412   6.114  15.216   4.478  0.0899  0.0330  0.0461
17889W        W35413   9.344   7.437  14.345  0.0295  0.2367 -0.0947
17890W        W35414   9.838  17.487   3.948  0.0802  0.0430  0.0999
17891W        W35415  11.050  13.946   5.054  0.0475 -0.0232 -0.2537
17892W        W35416  14.831   0.280  11.704  0.0622  0.1256  0.0237
17893W        W35417   0.667   0.759   2.844 -0.2314 -0.4812  0.0968
17894W        W35418   4.732  13.504  14.235  0.5051  0.0157  0.1183
17895W        W35419   8.508  16.548  14.096 -0.2640  0.1149 -0.0502
17896W        W35420  17.923   2.470  15.197  0.2174 -0.0988 -0.2094
17897W        W35421   3.559   1.358  15.250  0.3622  0.1056  0.0617
17898W        W35422   0.261  17.140  12.398  0.1970 -0.2815  0.1693
17899W        W35423   8.392   1.614  15.052  0.2240 -0.0211 -0.3908
17900W        W35424  12.227   3.628  13.532 -0.1912  0.1189 -0.1135
17901W        W35425   7.955   3.574  15.546  0.0202  0.1512  0.0611
17902W        W35426  17.948   0.379   3.698  0.0098  0.2011 -0.0239
17903W        W35427   5.268   9.591   3.433  0.2059  0.0149  0.2167
17904W        W35428   7.434   7.070  14.032  0.1036 -0.0120 -0.1196
17905W        W35429   1.390  15.998  14.686  0.1423 -0.1039  0.0524
17906W        W35430  17.602  11.430  14.418 -0.1364  0.1057 -0.0298
17907W        W35431   9.282   9.611  15.857  0.0067 -0.2839 -0.0801
17908W        W35432  13.888  12.277   0.422  0.0578 -0.1448  0.0874
17909W        W35433  17.619  14.719  12.935 -0.3927 -0.1025  0.0365
17910W        W35434   7.094  16.302  14.986  0.0590 -0.0515  0.1893
17911W        W35435   7.998  11.182   3.284  0.1107 -0.2396 -0.1289
17912W        W35436   6.329  10.407   3.357  0.2128  0.3010 -0.3106
17913W        W35437   4.344   7.070  13.929 -0.0579  0.0032  0.2139
17914W        W35438   6.109   8.141  13.232  0.0423 -0.1420  0.0933
17915W        W35439   0.054  12.403  14.635  0.0011  0.0730 -0.0862
17916W        W35440   4.893  17.296   0.441  0.2366  0.0313  0.1803
17917W        W35441   9.671   5.407  15.792 -0.1234  0.0943 -0.1767
17918W        W35442  16.253  16.728  12.821  0.1246  0.0583  0.0592
17919W        W35443   0.086  18.011  16.055 -0.3420  0.0607  0.2675
17920W        W35444  11.655   1.154  11.668  0.0168  0.4185  0.1028
17921W        W35445  10.632  13.228   3.352 -0.0168 -0.1429  0.1586
17922W        W35446  18.118   6.064  10.724  0.2410  0.1425  0.1651
17923W        W35447   7.310  11.390  12.899 -0.1327  0.0408  0.1614
17924W        W35448   4.641  16.185   4.167 -0.1716  0.3481 -0.1749
17925W        W35449   0.862   7.696   3.494  0.0500  0.0913 -0.0915
17926W        W35450  13.007   3.983   2.558  0.2304  0.0391 -0.4957
17927W        W35451   7.840   2.508   3.130 -0.1326 -0.0389  0.1148
17928W        W35452  11.350   8.034  10.651 -0.1438 -0.1591 -0.0130
17929W        W35453   3.774   8.322   0.095 -0.1605  0.1929 -0.0989
17930W        W35454   5.658   5.584   1.146  0.0194  0.0250  0.3172
17931W        W35455   4.539  12.727   1.226  0.3485 -0.1667  0.0073
17932W        W35456  16.223  13.601   5.160  0.1855  0.0226 -0.1129
17933W        W35457   7.835  10.086  14.380 -0.2883 -0.0884  0.2071
17934W        W35458  16.035  17.320   0.302 -0.1615 -0.0947  0.2594
17935W        W35459  12.558  10.782  11.491  0.0246  0.1065 -0.1278
17936W        W35460  10.895  15.589   5.283  0.0021  0.1730  0.0824
17937W        W35461   5.230  10.544  13.076  0.3808  0.1904 -0.0322
17938W        W35462   4.551   7.293  11.744  0.1395 -0.1252  0.0098
17939W        W35463   2.103   0.775  13.619  0.2449 -0.0426 -0.0421
17940W        W35464  13.149   3.456  12.560 -0.1998 -0.1846 -0.1492
17941W        W35465   7.968   0.110   0.269 -0.1372 -0.0205  0.0702
17942W        W35466   0.673   2.318  14.050  0.3643 -0.0425  0.3632
17943W        W35467  16.986  16.395  15.184 -0.0736  0.1161 -0.0576
17944W        W35468   2.996  11.511  14.843  0.0855 -0.1962  0.0876
17945W        W35469  11.731  12.479  11.299  0.4216 -0.1563  0.2483
17946W        W35470   4.011  11.739  12.008  0.0335  0.0394 -0.1193
17947W        W35471  15.214   4.246  14.635 -0.0958  0.5242 -0.0615
17948W        W35472   0.238  11.276   1.713 -0.0565  0.0527  0.1539
17949W        W35473   0.909  11.344  15.688  0.2436  0.4356 -0.1483
17950W        W35474  12.059   3.010   0.303  0.0896  0.2449 -0.0563
17951W        W35475  11.052   9.887  14.839  0.1236 -0.5587  0.0765
17952W        W35476   8.119   5.894   0.608 -0.0437  0.0894 -0.0058
17953W        W35477   0.796  15.188   4.281  0.1516  0.1231 -0.2493
17954W        W35478   5.491  11.901   0.879 -0.0010 -0.3359 -0.2108
17955W        W35479   7.443   6.561  13.341 -0.0226 -0.2423 -0.2232
17956W        W35480   5.593  16.955   0.431  0.0799 -0.0048 -0.3552
17957W        W35481   3.692   7.147   3.824  0.0701  0.0797  0.0750
17958W        W35482   3.398   7.711   0.728 -0.2094 -0.1209 -0.0002
17959W        W35483   5.153   2.998  14.186 -0.0053 -0.0554  0.1302
17960W        W35484  17.901   6.587   2.592  0.1492 -0.0649 -0.0618
17961W        W35485   4.163  11.281  15.591 -0.2243  0.2833 -0.0328
17962W        W35486   9.374  13.846  13.189  0.0333 -0.1290 -0.1156
17963W        W35487   7.818   4.857  12.041  0.1107  0.1039  0.1157
17964W        W35488   2.638   2.302  14.927  0.3580  0.1099  0.2298
17965W        W35489   5.537  15.035   2.808  0.0622 -0.0748 -0.1307
17966W        W35490   2.115  11.313   3.019  0.0036 -0.1866 -0.1685
17967W        W35491   6.852   9.875   1.320  0.0538 -0.2396 -0.3133
17968W        W35492  10.614  15.706  12.519  0.1432 -0.0169 -0.0478
17969W        W35493   3.229  13.900   4.222 -0.0406  0.2061  0.1915
17970W        W35494  10.661   4.172   2.324  0.1694  0.0444 -0.0870
17971W        W35495  17.339   7.946  12.167  0.0025  0.0983  0.0157
17972W        W35496   7.144  10.592   4.906 -0.0087 -0.0183  0.0394
17973W        W35497   9.394  13.629  14.229  0.3494 -0.0547 -0.3441
17974W        W35498   5.892  16.613   0.107  0.1531  0.0147  0.0931
17975W        W35499   0.315  14.644   1.565 -0.0095 -0.1103 -0.2095
17976W        W35500   6.218  11.354  12.928 -0.1879  0.0940  0.1616
17977W        W35501   4.683   4.389  12.402  0.0352 -0.2521  0.1204
17978W        W35502   0.603   4.321  12.460  0.0912  0.1617 -0.1194
17979W        W35503  12.598   7.837  13.643  0.1019  0.0807  0.0075
17980W        W35504  14.531  14.742   3.696 -0.4716  0.1212 -0.1740
17981W        W35505   1.872   1.907  11.961 -0.0720  0.1907 -0.1150
17982W        W35506  14.854  15.012   1.908 -0.0479 -0.0159  0.1793
17983W        W35507   3.380  11.505   0.073 -0.0040  0.1791 -0.0274
17984W        W35508   1.985  16.565   4.310  0.1176 -0.1695 -0.3818
17985W        W35509   0.184   0.288  14.598  0.0649 -0.0766  0.0389
17986W        W35510  14.197   5.814   0.917  0.0026  0.3337 -0.0206
17987W        W35511   1.509   2.970  13.573  0.2090 -0.2971 -0.0502
17988W        W35512   1.920   2.908  10.988  0.1269  0.1654  0.1104
17989W        W35513  16.386  17.910   4.541  0.0285 -0.0891  0.1829
17990W        W35514   3.442  16.968  13.244 -0.1683 -0.2061 -0.1004
17991W        W35515   1.757   9.577  15.095  0.3319  0.3899  0.0328
17992W        W35516  15.717   0.374  13.136 -0.0093  0.0405 -0.5521
17993W        W35517  13.240   3.778  14.792  0.0195 -0.2656  0.0290
17994W        W35518   9.029  14.434   0.851 -0.1568  0.0551  0.0634
17995W        W35519  14.181   7.241   1.474 -0.2687  0.0641  0.0621
17996W        W35520   0.153  11.004   3.095 -0.2410 -0.0198  0.0868
17997W        W35521  14.570   6.331  11.980 -0.1245  0.0016  0.1039
17998W        W35522   4.141   4.517   1.769  0.0862  0.2910  0.1557
17999W        W35523  17.468   5.650   0.089 -0.2972  0.3207 -0.1354
18000W        W35524  17.840  13.199  14.347  0.0175 -0.0987 -0.0348
18001W        W35525  14.153  17.425   4.681  0.0605 -0.2263  0.1743
18002W        W35526  17.994  15.848   2.325 -0.2137 -0.1174  0.2129
18003W        W35527   9.261   2.544  14.827  0.1300 -0.1160 -0.3243
18004W        W35528   3.753  13.251   2.501  0.0432 -0.0469  0.3627
18005W        W35529   2.639  14.212  13.156  0.3729 -0.2056 -0.1206
18006W        W35530  13.679  13.368  15.879 -0.0134 -0.0282 -0.0052
18007W        W35531   7.099  17.096  11.739  0.0213  0.1255 -0.0705
18008W        W35532   7.956  11.998  13.361  0.0387  0.0822 -0.0548
18009W        W35533   0.823   6.008   1.858 -0.0590  0.1639 -0.0345
18010W        W35534  15.055  14.447   0.981 -0.0311 -0.3401 -0.0426
18011W        W35535  10.166   1.553   3.607  0.3511  0.1540  0.4448
18012W        W35536  12.847  12.557   4.385 -0.1595  0.1497  0.1132
18013W        W35537  11.989  15.915   3.154 -0.0688 -0.0750  0.0964
18014W        W35538   3.296  15.179   2.684  0.0642  0.5455 -0.0436
18015W        W35539   0.209   5.642  12.475  0.0142  0.0994  0.1772
18016W        W35540   6.488   1.957   1.709 -0.0328 -0.2400  0.1577
18017W        W35541   7.635   0.898  11.894  0.1970 -0.0350  0.4362
18018W        W35542   6.373  12.459  14.421 -0.0718 -0.2119  0.0742
18019W        W35543  12.584  16.313  13.986 -0.2459 -0.3498  0.1344
18020W        W35544   8.603   4.497   1.097  0.0315 -0.1794  0.0722
18021W        W35545   4.239   9.255  15.442  0.2203 -0.1808  0.1625
18022W        W35546  13.532   2.606   3.658  0.1628 -0.0424 -0.3460
18023W        W35547   9.517  13.709  10.808  0.1388  0.2969  0.1681
18024W        W35548   7.871  16.954   3.540 -0.1031  0.4333  0.0251
18025W        W35549  17.447   5.796   4.372  0.1992 -0.1028 -0.0511
18026W        W35550  15.397  11.063   2.006 -0.1255 -0.0141  0.0439
18027W        W35551   8.980  15.277  13.964  0.0413 -0.0104 -0.1773
18028W        W35552  18.028   1.416   1.972 -0.3971 -0.1231 -0.0798
18029W        W35553   3.896  17.291  14.146 -0.4341 -0.1350  0.0404
18030W        W35554   4.259   6.706   3.621  0.4532  0.0607 -0.0372
18031W        W35555  15.397  10.091  13.956 -0.1092 -0.1572  0.1116
18032W        W35556   1.624  10.441   2.996  0.1590  0.0037 -0.1203
18033W        W35557  17.914  17.922  11.439  0.0962 -0.1072 -0.2200
18034W        W35558   3.260   5.076   5.107  0.1265  0.1296  0.0066
18035W        W35559   7.618   1.597  12.672 -0.0220  0.1105 -0.1809
18036W        W35560  14.164  16.908  12.090 -0.2215 -0.1490 -0.2745
18037W        W35561  13.682  10.746   4.362 -0.0278 -0.1403  0.0528
18038W        W35562   6.282  16.138  13.970 -0.0483  0.2910  0.0284
18039W        W35563   8.052  10.528  14.276  0.2035  0.0882  0.2417
18040W        W35564  11.960   0.495  13.845  0.1072  0.0409  0.1408
18041W        W35565   4.816  17.626  11.514  0.1053 -0.1983 -0.1395
18042W        W35566  12.313  16.830  11.949  0.1353 -0.0252 -0.1730
18043W        W35567   7.941  10.062   4.634 -0.0886 -0.0629 -0.3470
18044W        W35568  14.259  16.034  11.763  0.0683  0.1925  0.2202
18045W        W35569  12.191  12.975  12.860  0.1576 -0.3043 -0.2692
18046W        W35570  11.495   0.360  11.344 -0.0512 -0.3115 -0.0602
18047W        W35571   1.097   1.175  15.509 -0.0736  0.1070  0.0421
18048W        W35572  15.846  12.126  14.739 -0.0029  0.2261  0.3069
18049W        W35573  13.153  15.048   4.300  0.1049  0.0188 -0.2184
18050W        W35574   8.364   4.636  14.209 -0.0228  0.1356  0.0927
18051W        W35575  14.810   9.884  13.239 -0.1079 -0.0294 -0.1721
18052W        W35576  15.289  11.561  12.346 -0.1846  0.0737  0.1884
18053W        W35577   0.876   7.098   3.047  0.3263 -0.1132 -0.1511
18054W        W35578  15.060  14.933  14.540  0.3511 -0.0285  0.2262
18055W        W35579  12.941   0.560  11.095 -0.1143  0.0635 -0.1102
18056W        W35580  12.369  15.309  12.569  0.3716 -0.1692  0.3159
18057W        W35581   9.975   4.379   5.144 -0.1023 -0.0758  0.2509
18058W        W35582   9.144   6.871  15.428 -0.2165 -0.1440 -0.0784
18059W        W35583  14.129  13.144   2.742 -0.3558  0.1205  0.1912
18060W        W35584  18.111  12.908   2.778  0.1455 -0.2364 -0.3412
18061W        W35585  17.821   8.375   0.139 -0.2599  0.1644 -0.2282
18062W        W35586   2.466  17.303  14.107 -0.1579  0.0209  0.0591
18063W        W35587  11.553   7.124   0.077 -0.1388  0.2370 -0.1424
18064W        W35588  14.821  13.484  13.570 -0.1625 -0.1604  0.3500
18065W        W35589   8.337   5.816  12.725  0.0633  0.2215 -0.0686
18066W        W35590   5.621  16.748   3.662  0.3022 -0.0738  0.2043
18067W        W35591  16.620   7.088   2.124  0.0940  0.1840 -0.1405
18068W        W35592   1.739  13.438   0.895 -0.1043  0.0305 -0.1502
18069W        W35593   0.917   2.628   4.073 -0.0302 -0.0989 -0.0694
18070W        W35594   7.799  16.334  11.382 -0.0202 -0.2448  0.0011
18071W        W35595   4.450   5.628  11.274 -0.0423 -0.1469  0.0879
18072W        W35596  18.095  15.162   0.475 -0.1484 -0.0198  0.2047
18073W        W35597   8.132  10.256   3.700  0.1324  0.0007  0.2533
18074W        W35598   6.595   4.848  14.700  0.1074  0.3525 -0.0597
18075W        W35599  17.613   1.299   5.491 -0.1864 -0.5518  0.0378
18076W        W35600   7.971  12.241  12.792 -0.2131  0.2394  0.0485
18077W        W35601   9.852   3.607   1.234 -0.2504 -0.0095  0.2861
18078W        W35602  15.855   7.667  13.806 -0.0075  0.0635 -0.1460
18079W        W35603  16.567   5.914  12.979 -0.1678  0.1130  0.0983
18080W        W35604   9.259   2.485   0.515  0.4044 -0.0742 -0.1088
18081W        W35605   9.874   6.430   1.291 -0.1670  0.1170  0.1829
18082W        W35606  13.824   2.883  12.005 -0.3240 -0.1952 -0.0360
18083W        W35607  17.168  16.216   1.999 -0.0478 -0.2590  0.2221
18084W        W35608   6.083   9.234  15.850 -0.0615 -0.0753 -0.3318
18085W        W35609   4.256  11.380  13.853 -0.2144 -0.0355 -0.1883
18086W        W35610   4.502  10.756  12.489 -0.1092 -0.0935  0.3186
18087W        W35611   8.964   4.264  13.475  0.0113  0.0526 -0.1406
18088W        W35612  16.056   3.287   2.125 -0.0724 -0.0878  0.2400
18089W        W35613   2.449  11.592  15.284  0.0890  0.1708  0.2115
18090W        W35614   2.404  16.257  15.678 -0.3032  0.2647  0.3212
18091W        W35615  16.953   8.230   3.146 -0.1004 -0.0066 -0.2794
18092W        W35616  13.024  11.199  13.894  0.2776 -0.2458 -0.1212
18093W        W35617  16.423   9.991   2.194  0.0492 -0.2572  0.3177
18094W        W35618   6.564   6.045  13.494 -0.0404 -0.1753 -0.3299
18095W        W35619   7.405  13.157  11.269  0.2430 -0.0515 -0.2270
18096W        W35620  17.211   5.003  14.408  0.0286 -0.0341  0.1070
18097W        W35621   9.826  16.117  15.583  0.0189 -0.0284 -0.1935
18098W        W35622  11.637   0.126   1.374  0.2111 -0.0366  0.0128
18099W        W35623   4.207  10.737  14.955  0.1803  0.1257 -0.1323
18100W        W35624   2.779   7.695   3.905 -0.0813 -0.0172 -0.0035
18101W        W35625   6.755  10.872   5.141 -0.0670  0.0671 -0.0579
18102W        W35626  16.965   1.462  14.798  0.1006 -0.1060 -0.4659
18103W        W35627   7.536   3.435  13.249 -0.3462  0.2558  0.0395
18104W        W35628   7.463   5.054  11.266 -0.4035 -0.0987 -0.1225
18105W        W35629  15.071  12.883   0.570  0.0481 -0.1054  0.0239
18106W        W35630   1.680  18.104   3.051  0.1113 -0.0565 -0.1850
18107W        W35631   7.395   0.390   2.779 -0.3560  0.0968  0.0535
18108W        W35632  11.623   5.544   3.095  0.1183  0.0902  0.0530
18109W        W35633   3.574   8.087  13.186 -0.1002 -0.4367  0.0910
18110W        W35634   8.088  16.728  11.460  0.0243  0.1259 -0.1665
18111W        W35635   9.033  14.280   0.218  0.1685  0.0008 -0.0106
18112W        W35636   6.009  13.486  11.415  0.0479  0.1521  0.3270
18113W        W35637   4.289  11.207  16.054  0.0029  0.0578 -0.1312
18114W        W35638  16.160   6.944  15.582  0.0855 -0.0390  0.0943
18115W        W35639   2.148   0.814   0.546  0.0183 -0.1425 -0.0143
18116W        W35640   8.299  16.822   0.169  0.1109  0.2024 -0.0947
18117W        W35641   4.540   7.712   3.989 -0.0032 -0.0962  0.1517
18118W        W35642   6.950   7.976  15.170 -0.0386 -0.0513 -0.0783
18119W        W35643  12.997  14.295   3.820  0.0944  0.1123  0.1309
18120W        W35644  12.393   5.271   2.762 -0.2623 -0.0509 -0.1036
18121W        W35645   1.247  17.704  15.274 -0.0376 -0.1736 -0.0394
18122W        W35646   3.057   8.403  15.419  0.0726  0.1698 -0.1519
18123W        W35647   7.741   1.739   1.903  0.1146 -0.0310 -0.2955
18124W        W35648  14.327  15.361   0.790  0.1461 -0.1599  0.0136
18125W        W35649  15.414   7.128   0.521 -0.0971  0.0526 -0.2762
18126W        W35650   3.411   0.312   0.092 -0.0852  0.0448  0.0792
18127W        W35651   1.681  13.921  13.815  0.2278  0.4387  0.1758
18128W        W35652  13.219  17.447   1.007 -0.2134 -0.2304 -0.0113
18129W        W35653  12.646  12.403   2.655  0.0241 -0.0588 -0.0516
18130W        W35654  17.412   3.760   4.574  0.1139  0.1930 -0.4307
18131W        W35655   2.530   9.912  15.717  0.0380  0.2251  0.2744
18132W        W35656  13.365   4.020   5.461 -0.1861 -0.0548  0.1258
18133W        W35657   8.848  17.661   3.818  0.1796 -0.0398 -0.1627
18134W        W35658  17.413  17.126  12.127  0.0704 -0.1027  0.0172
18135W        W35659  15.458  17.568  13.991 -0.1430  0.0786  0.1591
18136W        W35660  17.156   9.237   0.361  0.3205  0.1519  0.1629
18137W        W35661  10.857   5.491   1.366  0.0801 -0.0378  0.2108
18138W        W35662   8.851  13.298   1.485  0.1502 -0.0945 -0.2357
18139W        W35663  12.607  13.942   2.820  0.1853 -0.0227  0.1399
18140W        W35664   4.653   8.385   3.365  0.5270  0.1308  0.1170
18141W        W35665  17.444   6.686   1.710 -0.0315 -0.2129 -0.1085
18142W        W35666   6.725   4.959   3.889  0.1567 -0.0957  0.0854
18143W        W35667   8.070  17.201  14.226  0.3300 -0.1627 -0.0317
18144W        W35668  13.928  11.195  15.428 -0.4840 -0.1261 -0.0267
18145W        W35669   9.847  11.802   4.548  0.1798  0.2048 -0.1028
18146W        W35670   4.813   6.071  11.647 -0.2182  0.0426 -0.1082
18147W        W35671   4.825  16.016  12.563  0.3883 -0.0172  0.0730
18148W        W35672   1.352   4.817   1.913  0.0896 -0.0019  0.0428
18149W        W35673  14.684   3.531  15.328 -0.3894 -0.0605  0.0524
18150W        W35674   8.910   9.386   3.090 -0.2183 -0.3675 -0.3448
18151W        W35675  13.999   9.511  10.613 -0.0607 -0.0029  0.2865
18152W        W35676   1.012   6.635   5.137 -0.0366  0.0614  0.0116
18153W        W35677  11.847  12.129  11.721  0.0618 -0.0207  0.0519
18154W        W35678  15.401   1.756   1.922 -0.4100  0.2308  0.0965
18155W        W35679  14.779   9.443  15.634  0.3437  0.0297  0.0617
18156W        W35680  17.759  17.386  11.819  0.1099 -0.4187 -0.1650
18157W        W35681   4.427   4.009   3.213  0.2838 -0.1492  0.2722
18158W        W35682   2.345  11.097  15.206  0.1417  0.0552  0.0142
18159W        W35683  15.990   1.981   2.485  0.1376  0.1722  0.0669
18160W        W35684  15.178   1.601   3.806  0.0889  0.0384  0.4189
18161W        W35685   0.382   4.221  11.020 -0.0448 -0.0823 -0.1455
18162W        W35686   3.170   4.765   1.231  0.1507 -0.0275  0.0686
18163W        W35687  14.223   8.961  13.379 -0.1619 -0.2250 -0.1004
18164W        W35688   5.918   4.018   4.820 -0.0018  0.3990 -0.4258
18165W        W35689  11.656  14.797   1.299  0.0641  0.0133  0.2684
18166W        W35690  10.051  12.097   3.481 -0.1966 -0.1235  0.0952
18167W        W35691   3.534  16.524  13.568 -0.2651 -0.0116  0.0246
18168W        W35692  14.006   9.245   2.882  0.1188 -0.4043 -0.1722
18169W        W35693   2.128  10.971  14.617  0.0930 -0.0518 -0.0095
18170W        W35694   9.518  12.213   2.172 -0.1155 -0.1825 -0.2849
18171W        W35695   2.744   9.269   1.046 -0.0474  0.0302 -0.0947
18172W        W35696   9.952   1.652  13.890  0.1256  0.1778 -0.1467
18173W        W35697   5.937   4.092  11.612 -0.0044  0.0424  0.1858
18174W        W35698   5.770   8.445   0.100 -0.0994  0.2196 -0.0502
18175W        W35699   7.758  11.017  13.780 -0.1377 -0.1768  0.2207
18176W        W35700  13.922  16.270  11.546  0.0576  0.1479  0.0763
18177W        W35701  17.611   6.157   1.789 -0.2452 -0.0062  0.3616
18178W        W35702  11.596   4.813   2.342 -0.0490 -0.0502 -0.0791
18179W        W35703   6.353   9.678  14.411  0.0153  0.0795 -0.1157
18180W        W35704  16.770   8.841  14.821 -0.2032  0.1026  0.2527
18181W        W35705  10.773  11.368   4.397 -0.3240 -0.0215  0.1705
18182W        W35706   7.041  16.455  13.486  0.1780 -0.4332 -0.1415
18183W        W35707   0.469   6.322   0.935  0.1126  0.1152 -0.0894
18184W        W35708  13.597  14.456   0.039  0.2785 -0.1238 -0.0601
18185W        W35709   9.343   6.916  14.490  0.2119 -0.1054  0.1469
18186W        W35710  11.707  17.055  10.824 -0.3080  0.2010  0.1462
18187W        W35711  13.219   6.400   2.834  0.1420  0.1694  0.1075
18188W        W35712  14.426   0.514  13.574 -0.2732 -0.3640 -0.1507
18189W        W35713  11.615   2.480   1.948  0.0268 -0.1115  0.2514
18190W        W35714  16.302   2.707   3.757 -0.0967 -0.0058 -0.2070
18191W        W35715   7.841  12.582  13.934  0.1097  0.1948 -0.0515
18192W        W35716  10.753   8.308   0.980 -0.3514  0.0833  0.1292
18193W        W35717   4.568   8.511   0.288  0.0527  0.1475 -0.1813
18194W        W35718  13.447  15.430   3.519  0.0453 -0.0087 -0.1188
18195W        W35719  13.302   3.870  11.841 -0.0454  0.0012  0.0964
18196W        W35720   3.954  12.616  11.295 -0.2911 -0.3155  0.1322
18197W        W35721   1.467   3.468  13.908 -0.1933 -0.1633  0.2510
18198W        W35722  12.836  13.522   0.140  0.4586  0.1069  0.1156
18199W        W35723   6.531   3.338  13.325 -0.0992 -0.2090  0.1530
18200W        W35724   9.175  14.315  13.292  0.0079  0.0623  0.0179
18201W        W35725   0.660   0.003   3.472 -0.2319 -0.0470 -0.1167
18202W        W35726   2.835  18.084   1.545 -0.0191 -0.0229 -0.2877
18203W        W35727   4.854  15.139  15.041  0.1755  0.0353 -0.1990
18204W        W35728   4.959   2.419   0.478 -0.1693 -0.1174 -0.2057
18205W        W35729   4.989   1.138   2.840 -0.3046 -0.0762  0.0130
18206W        W35730   5.378   1.260  11.587  0.1896  0.0251  0.1067
18207W        W35731  12.230   4.690  14.968  0.0005  0.0242 -0.1862
18208W        W35732   4.129  10.223   5.271  0.2282  0.1338  0.2724
18209W        W35733   1.579   9.390  11.365  0.1080 -0.3191 -0.1526
18210W        W35734  16.490   4.194   3.490 -0.2661 -0.2507  0.0743
18211W        W35735  15.665   8.979   0.827  0.0400  0.2716  0.2853
18212W        W35736   2.793   1.589  12.042 -0.0984 -0.0272  0.1071
18213W        W35737  10.950  16.812   4.470 -0.2158 -0.0627  0.0734
18214W        W35738  12.952  16.386   2.561 -0.1355  0.0212  0.1819
18215W        W35739   4.519   7.159  13.334 -0.0665 -0.1290  0.0843
18216W        W35740   2.435  16.601   4.748 -0.0718  0.0386  0.0698
18217W        W35741  13.135   7.193   6.084  0.0201 -0.1314  0.0132
18218W        W35742   7.031  16.986  12.263  0.2756  0.0860 -0.2079
18219W        W35743   7.744   8.674   5.056  0.2892  0.0108  0.2227
18220W        W35744  14.649  16.564  14.496  0.0729 -0.1987  0.1884
18221W        W35745   5.008  10.922  15.504  0.0885 -0.0176 -0.0653
18222W        W35746  10.126  14.930  12.506  0.1449  0.0276  0.1119
18223W        W35747  11.664  14.556   4.930  0.1236 -0.0245  0.2714
18224W        W35748  10.551  15.223  14.029 -0.0311 -0.2002 -0.0943
18225W        W35749   7.819   4.160   2.759 -0.1399 -0.0965 -0.1136
18226W        W35750   9.004  11.106   0.735 -0.1291 -0.1003  0.2567
18227W        W35751  10.521   0.689   3.473 -0.1503 -0.0403 -0.1498
18228W        W35752  15.502  12.848  13.224  0.0066 -0.2366 -0.2222
18229W        W35753   0.498   8.152  13.597  0.0508  0.0603 -0.0850
18230W        W35754  12.194   5.769  10.961  0.0462  0.3455 -0.0155
18231W        W35755  10.585  17.037  14.171  0.0577 -0.0966 -0.0684
18232W        W35756  12.801  10.151  12.174  0.0076 -0.0058  0.3511
18233W        W35757   0.051   7.340   0.052  0.0771 -0.5920  0.2475
18234W        W35758   4.789   0.622   2.916  0.1528 -0.0835  0.2586
18235W        W35759  10.948   5.215  13.629  0.1164  0.0320  0.2356
18236W        W35760   6.079  11.261  14.640  0.0098 -0.2412  0.0458
18237W        W35761  15.797   8.233  10.183 -0.1463 -0.1485  0.1010
18238W        W35762   1.470   7.808  12.245 -0.1153  0.0786  0.1154
18239W        W35763  11.692  14.413  15.212  0.0544  0.0990  0.2138
18240W        W35764   7.874   1.643   3.340  0.1165  0.0744 -0.1689
18241W        W35765   3.787   7.522  13.962  0.1754 -0.1266  0.2682
18242W        W35766   4.570  14.496  12.011  0.3365  0.1063  0.0519
18243W        W35767   7.658  11.116  11.001 -0.0020  0.1771 -0.2195
18244W        W35768   7.878  17.188  10.837  0.4164 -0.0952  0.1624
18245W        W35769   2.532  13.596   0.171 -0.2849 -0.1766 -0.0287
18246W        W35770   1.140  16.379  15.021  0.2814  0.0991  0.3706
18247W        W35771  15.625  11.541   5.287 -0.2327 -0.1735  0.2299
18248W        W35772   8.701  14.394   4.798  0.0869  0.0263  0.0221
18249W        W35773   8.823   4.460   4.622 -0.3350 -0.0884 -0.0123
18250W        W35774  14.275   2.853   2.732  0.1233  0.1208  0.3583
18251W        W35775  16.313   6.004   0.005 -0.0163 -0.1021 -0.2080
18252W        W35776  14.735   5.140  11.277 -0.1507  0.0006 -0.2551
18253W        W35777   5.674   4.478   1.729 -0.2204  0.2219 -0.0888
18254W        W35778  14.026   8.999   0.334 -0.1373  0.0191  0.0687
18255W        W35779   3.458  11.278  10.870  0.0036 -0.1762  0.1068
18256W        W35780  10.251   9.676   1.073  0.0185 -0.0583  0.0481
18257W        W35781  15.165  12.085   4.279  0.1866 -0.1653  0.0068
18258W        W35782   5.157  16.630   3.554  0.2121  0.2342  0.1801
18259W        W35783   5.011   6.875  14.296 -0.2820 -0.2277 -0.0976
18260W        W35784   4.879  17.460  15.990 -0.0552 -0.0487 -0.1720
18261W        W35785   5.506  11.655  15.060  0.0508  0.0720  0.0922
18262W        W35786   7.503   4.695   4.396 -0.0700  0.2006 -0.0950
18263W        W35787   5.684   4.375  15.286  0.2112  0.1480 -0.0316
18264W        W35788  11.292  10.423  13.583 -0.3831 -0.0946 -0.1403
18265W        W35789  12.522  10.841   2.418  0.3528 -0.0648 -0.0217
18266W        W35790  14.649  14.674  15.102  0.1219 -0.0759 -0.2617
18267W        W35791  16.517  16.172   0.840 -0.0323 -0.1237  0.0344
18268W        W35792  13.646  16.952  11.968  0.2252 -0.1605 -0.0899
18269W        W35793  17.102   6.883  13.047  0.0416 -0.1438  0.0317
18270W        W35794   9.510   7.255  15.461  0.2223 -0.2342 -0.1351
18271W        W35795  15.490   0.435   0.620  0.4275 -0.0460  0.1679
18272W        W35796   7.320  10.693   4.426 -0.2338  0.0538 -0.3914
18273W        W35797   7.609  11.877  14.342  0.3060  0.1062 -0.1528
18274W        W35798  17.197  15.856   4.873 -0.2662  0.5634  0.0342
18275W        W35799   1.847  12.685   5.349  0.0575  0.1024  0.1765
18276W        W35800   1.845  14.792  12.773 -0.1686  0.0330  0.1883
18277W        W35801   4.866  10.365  14.966 -0.0634  0.3108 -0.0004
18278W        W35802   5.070   4.142   0.333 -0.0026  0.2165  0.0923
18279W        W35803   8.968   0.187   2.658 -0.1334 -0.3120  0.1858
18280W        W35804   0.640   5.142   4.061  0.1582  0.0920  0.4021
18281W        W35805   5.817  13.844  12.679  0.0763  0.0249  0.3558
18282W        W35806   3.087  12.121  14.469 -0.1596  0.2020  0.0699
18283W        W35807  17.686   8.120  11.841 -0.0027  0.0483 -0.0082
18284W        W35808  11.068   8.142  15.175 -0.2658 -0.1462  0.2139
18285W        W35809   3.506  13.015   2.135  0.2494 -0.0183 -0.0187
18286W        W35810  10.628  11.949  13.762  0.0427 -0.0580 -0.2147
18287W        W35811   1.352   8.713  15.600  0.0640  0.1276  0.0807
18288W        W35812   5.039   7.401  13.658 -0.0135 -0.2933 -0.2529
18289W        W35813  13.639   7.983  13.488  0.0805  0.2232  0.1361
18290W        W35814   5.771  14.190   0.848  0.1698  0.1123 -0.0929
18291W        W35815   6.366   9.034   3.648  0.0156 -0.1969  0.4636
18292W        W35816  16.316  11.519   4.897 -0.1867 -0.1491  0.1549
18293W        W35817  10.034   0.196  13.047  0.1239  0.0906 -0.0139
18294W        W35818   5.075   3.567   4.097 -0.1661  0.2394  0.0433
18295W        W35819   2.338   0.244   0.687 -0.2914 -0.0237 -0.1984
18296W        W35820   4.221  17.984   1.150 -0.2111  0.0204 -0.0105
18297W        W35821   1.135   1.800   4.951 -0.2567 -0.0635 -0.1560
18298W        W35822  11.160  10.751  13.141 -0.1315  0.0692 -0.0342
18299W        W35823   4.816  12.848   1.611  0.0775 -0.0329  0.2284
18300W        W35824  15.898  17.861   4.159  0.0056  0.0508 -0.3096
18301W        W35825   7.694   1.257  15.550  0.0003 -0.0217 -0.0796
18302W        W35826   9.323  15.284   4.863 -0.1889  0.2151  0.0255
18303W        W35827   7.174   5.284  13.417 -0.0014  0.0153 -0.0490
18304W        W35828  18.108   9.753   1.981 -0.1195  0.2184  0.3710
18305W        W35829   5.012  14.727   0.797 -0.1427  0.2061  0.2360
18306W        W35830   7.619   5.733   4.289 -0.0455  0.0346  0.0428
18307W        W35831   3.460  12.994  13.825 -0.0102  0.3911  0.1247
18308W        W35832   7.475   5.559  13.728 -0.0048 -0.0880  0.0828
18309W        W35833   3.823   8.840   2.203  0.1541 -0.0700  0.0665
18310W        W35834  15.999  11.186   3.334 -0.0056  0.0598 -0.0842
18311W        W35835   2.506  17.242  11.411  0.2558  0.3087 -0.1694
18312W        W35836   4.936   4.949   1.461 -0.0507  0.1272 -0.2945
18313W        W35837  12.830  17.500  12.052 -0.0737 -0.0999  0.1125
18314W        W35838  15.811  13.878   2.105 -0.3181 -0.1688 -0.0310
18315W        W35839   1.232   3.206   0.416  0.0133 -0.0279 -0.1002
18316W        W35840   8.020  10.971   0.561  0.0787 -0.2663  0.3052
18317W        W35841  13.315   4.920   1.970 -0.3731 -0.0263 -0.0810
18318W        W35842   4.139  15.222   1.706 -0.0215  0.0954  0.1032
18319W        W35843   3.348   5.950   1.829  0.1281 -0.3120  0.3716
18320W        W35844   9.444   9.160  14.534  0.0343 -0.0001  0.0758
18321W        W35845  13.979   9.869   0.205  0.0411 -0.0495 -0.0947
18322W        W35846  11.294  11.869  12.150  0.0186  0.1214  0.2794
18323W        W35847  14.754   2.279  15.759  0.0073  0.1126 -0.1264
18324W        W35848   9.818  13.157   5.156 -0.0203 -0.1445 -0.0850
18325W        W35849  11.919  16.842   4.194  0.3104 -0.1182 -0.1098
18326W        W35850  16.330  11.872  13.814  0.0588 -0.0526  0.0813
18327W        W35851   3.927  15.128  12.599 -0.2649  0.3045 -0.0961
18328W        W35852  11.101   2.695  12.153  0.0202 -0.5156 -0.2161
18329W        W35853   4.698  13.082  12.555 -0.0858  0.1595 -0.1227
18330W        W35854   4.105  12.456   1.530 -0.1350  0.2335 -0.1462
18331W        W35855   6.804   3.626   1.719  0.0462  0.0281  0.1049
18332W        W35856   3.792   1.551   2.330  0.1234  0.0194  0.1889
18333W        W35857   0.297   2.624   0.743 -0.0875  0.1017  0.1803
18334W        W35858   4.012   0.366  16.015 -0.4928  0.0619  0.0760
18335W        W35859   3.633  11.729   2.303  0.2768  0.0989  0.3695
18336W        W35860   1.280   9.716  10.509 -0.1709  0.0958  0.0332
18337W        W35861  14.011  11.252  15.949 -0.1194  0.1131 -0.0225
18338W        W35862   4.313  17.497   3.145  0.0357  0.1800 -0.4102
18339W        W35863  14.548   9.084  14.209 -0.3212 -0.1485  0.1023
18340W        W35864   1.774  17.214   0.848  0.1123  0.1684  0.0487
18341W        W35865  11.684   6.097   3.979 -0.0664 -0.1289 -0.2725
18342W        W35866  12.947  11.809   4.609  0.2446 -0.0514  0.1141
18343W        W35867  12.847  13.802   0.934  0.2401  0.1000 -0.0058
18344W        W35868  15.488   1.266  12.555 -0.2474  0.4514  0.1968
18345W        W35869  16.048  10.073  12.757  0.0508 -0.1235  0.1805
18346W        W35870  17.034  10.714  13.938  0.2849 -0.1039 -0.2048
18347W        W35871  13.339  12.542  14.780  0.0729  0.0914  0.0917
18348W        W35872   8.490  11.384  11.646 -0.3409 -0.0336 -0.1701
18349W        W35873  14.967   5.672   0.270  0.0423  0.0232 -0.1478
18350W        W35874   4.735   9.382  15.367  0.0874  0.1629  0.3680
18351W        W35875   0.486   3.049  11.964  0.0846 -0.0089  0.2959
18352W        W35876   9.224   9.715  12.736 -0.2720 -0.1248 -0.1501
18353W        W35877  14.537  16.810  13.425  0.1632  0.0143 -0.2789
18354W        W35878  14.104  17.097   5.431  0.0749  0.2615  0.2093
18355W        W35879   9.268   9.276   2.753 -0.0412 -0.4523  0.0749
18356W        W35880   2.000   1.562   0.066 -0.1650 -0.1803  0.0158
18357W        W35881  11.972   4.253  10.842  0.1502 -0.2056  0.1913
18358W        W35882   2.181  17.565  11.317  0.1919 -0.1073 -0.0800
18359W        W35883   5.050  13.551   0.491 -0.0421 -0.0512  0.2638
18360W        W35884  11.277   9.569   0.454 -0.1306  0.1620  0.0027
18361W        W35885  10.591   8.484   4.102  0.0164  0.1196 -0.0038
18362W        W35886  11.156  10.657   5.404  0.1302 -0.1691  0.0316
18363W        W35887   2.447   3.145   4.107  0.1696  0.0986 -0.0695
18364W        W35888   3.003   7.255   0.351  0.0205 -0.2410  0.0829
18365W        W35889  13.543   9.088   1.295  0.1700 -0.1866  0.1836
18366W        W35890   9.275  17.452  14.601 -0.1608 -0.1500 -0.0915
18367W        W35891   5.278   4.461   2.789  0.0735  0.1822  0.2290
18368W        W35892  17.929  10.817  12.291 -0.1165 -0.2731  0.2778
18369W        W35893   3.907  16.989   2.592  0.1500 -0.1666  0.3119
18370W        W35894   2.770  15.673   0.354 -0.1204  0.2781 -0.3260
18371W        W35895   1.372   5.035  15.718  0.0136 -0.3389 -0.0927
18372W        W35896   6.116   3.528  12.253 -0.4738 -0.0712 -0.4532
18373W        W35897  12.964  12.643   3.079 -0.1259  0.0738 -0.1001
18374W        W35898   7.055   1.703   4.348  0.3716 -0.0062 -0.3324
18375W        W35899  18.118   1.527  11.456 -0.1132  0.0727 -0.2549
18376W        W35900   5.384   4.851   1.763 -0.0920 -0.2530 -0.3674
18377W        W35901   7.822   9.378  11.848 -0.0850  0.2363 -0.0668
18378W        W35902   1.213  12.764   3.465  0.0104 -0.0766 -0.1274
18379W        W35903   4.456  13.647   3.594 -0.0345 -0.3989  0.1463
18380W        W35904   8.059   7.703  15.182 -0.0894  0.2813 -0.0359
18381W        W35905   2.506  17.862   3.340  0.2657 -0.0718  0.4024
18382W        W35906  18.136  12.845  11.961  0.0844  0.0739  0.1815
18383W        W35907  14.544  17.297  12.154 -0.1327  0.1481  0.1487
18384W        W35908  11.195   8.334   4.891 -0.2498  0.0203 -0.3772
18385W        W35909  15.536   3.551  12.408  0.0873  0.1336 -0.1729
18386W        W35910  10.711   6.067  12.348 -0.1574  0.4570 -0.1934
18387W        W35911  15.860   6.821   1.140 -0.1133 -0.1961  0.0479
18388W        W35912   7.142  14.793  14.111  0.2329 -0.0426  0.0860
18389W        W35913  13.795  14.783  14.664  0.1938  0.2102 -0.2069
18390W        W35914   2.569  13.870  14.023  0.2038  0.0494  0.3911
18391W        W35915  17.900   0.647  13.846 -0.0763 -0.1719 -0.1588
18392W        W35916   3.412   7.916   1.576  0.0149  0.0894 -0.1486
18393W        W35917   8.668  14.929  15.111 -0.2208  0.3556  0.2616
18394W        W35918   0.223   2.200  14.220  0.2186  0.0814  0.1192
18395W        W35919  10.075  16.031   0.404 -0.1616 -0.0926  0.2062
18396W        W35920   9.410   5.353  11.586 -0.1203 -0.0730 -0.1844
18397W        W35921  13.279   5.812  14.726 -0.1885 -0.1229  0.2352
18398W        W35922  12.357   2.432   0.449 -0.1265 -0.2466  0.0361
18399W        W35923   7.207  13.333  15.339  0.1618 -0.3474 -0.2471
18400W        W35924   6.664  14.462  15.092 -0.0956  0.1584 -0.4893
18401W        W35925   3.024   9.849   1.670 -0.1975  0.1740 -0.2665
18402W        W35926   6.099  17.733   1.478  0.2745  0.1504 -0.1222
18403W        W35927  15.502  15.090  15.357  0.1519  0.0192 -0.1691
18404W        W35928   9.293  15.088   3.392 -0.1980  0.3467 -0.1499
18405W        W35929  15.930  12.606  14.668 -0.2048  0.2194  0.1943
18406W        W35930  12.486   7.398  12.072  0.0189 -0.1861  0.3390
18407W        W35931   5.256   3.164  13.471  0.0182 -0.1335 -0.0427
18408W        W35932   7.183  13.661  14.101  0.0635 -0.1595  0.2049
18409W        W35933  12.676  15.210  11.778 -0.0926 -0.1490 -0.0657
18410W        W35934  10.226  13.241   4.895  0.2753  0.2037 -0.1982
18411W        W35935   5.082  14.294   4.102 -0.0982 -0.0174  0.1097
18412W        W35936   3.446   6.771   4.278 -0.1178 -0.1566  0.2223
18413W        W35937  11.361   1.903  13.605  0.0662 -0.0806 -0.4138
18414W        W35938   7.383   4.738   1.625  0.0413  0.0492  0.0174
18415W        W35939   5.511  11.807  14.583 -0.1558 -0.2232 -0.0616
18416W        W35940  12.677   4.618  14.649 -0.0402 -0.3275 -0.0642
18417W        W35941  17.228   0.984  15.628  0.1095 -0.0453  0.0506
18418W        W35942   3.768   6.274   1.752  0.0955  0.4168  0.3436
18419W        W35943  15.875   3.764  12.695  0.0132 -0.1361  0.3059
18420W        W35944  16.148  10.329   4.003  0.1443  0.0979  0.0317
18421W        W35945  10.355  13.237  16.028  0.3205 -0.0023  0.0586
18422W        W35946   7.085   3.350  15.580 -0.0761 -0.0926  0.0518
18423W        W35947   3.378   5.408  15.058  0.0176 -0.0301 -0.2151
18424W        W35948   0.424  13.707  15.298  0.0851 -0.0192 -0.2053
18425W        W35949   2.108  11.384  12.530 -0.0151  0.0673 -0.0512
18426W        W35950   8.967  17.370  11.341  0.2323 -0.1840 -0.0448
18427W        W35951   5.802   6.106  13.552  0.2228 -0.0489 -0.1372
18428W        W35952   6.120  12.049  15.503 -0.2162 -0.0371 -0.2073
18429W        W35953  11.016  14.741   2.032  0.0107  0.0258 -0.1785
18430W        W35954  11.457   3.844  15.600  0.2041 -0.1935 -0.1094
18431W        W35955  15.969   0.155   1.764  0.0329  0.0557  0.1117
18432W        W35956   5.591   4.658  15.676  0.2328 -0.0381  0.1737
18433W        W35957  13.314   4.265   0.941 -0.1575  0.1466  0.0064
18434W        W35958   3.849  14.886  11.346 -0.1579  0.0587  0.1305
18435W        W35959  10.237  10.958   2.241 -0.0898 -0.0191 -0.0049
18436W        W35960  12.499  11.238   1.267 -0.1172  0.2564 -0.1728
18437W        W35961  12.325   3.729   2.576  0.0658 -0.1004 -0.2708
18438W        W35962  15.279  17.867  15.770 -0.0933  0.0614 -0.1656
18439W        W35963   2.216  18.051  15.243  0.3685  0.0682  0.0725
18440W        W35964   6.415  13.642  14.515 -0.0822 -0.0736 -0.0112
18441W        W35965  12.607   8.749  14.678  0.1544 -0.0895 -0.1575
18442W        W35966   4.944   7.969   4.817  0.1652 -0.1165 -0.1586
18443W        W35967  12.489  11.611  12.763 -0.0867  0.0972  0.1358
18444W        W35968   1.970  14.280  11.396 -0.1403  0.1488  0.2544
18445W        W35969   3.276   2.170  12.535  0.2412 -0.3547 -0.0657
18446W        W35970  13.187  16.994   1.327  0.3329 -0.3661  0.1268
18447W        W35971   3.792  15.518  11.265  0.2105  0.1486  0.0381
18448W        W35972  18.109   0.352   1.100 -0.0555 -0.1701  0.1117
18449W        W35973   8.906   8.912   4.666 -0.1816 -0.2323 -0.1121
18450W        W35974   9.158  10.983  15.793 -0.0975 -0.0363 -0.5439
18451W        W35975   1.786  16.351   2.613  0.1825  0.1803  0.0681
18452W        W35976  17.225   6.146  14.559 -0.0095 -0.1402  0.3019
18453W        W35977  13.161   7.825  15.563 -0.1199  0.0548  0.2751
18454W        W35978  12.624   2.206   3.504  0.0168 -0.0246 -0.0937
18455W        W35979   6.271  16.739  11.653 -0.1710 -0.1663 -0.2113
18456W        W35980   4.413   0.011   2.514  0.0304  0.1654 -0.1233
18457W        W35981   5.722   9.638  14.531 -0.1730  0.1950 -0.0214
18458W        W35982   0.119   0.106  12.230  0.2267 -0.0517 -0.0542
18459W        W35983   3.785  14.221  12.359 -0.0713 -0.0537  0.0585
18460W        W35984   9.610  13.361   4.224  0.0259  0.3505 -0.1032
18461W        W35985   2.111   6.196   0.908  0.0365 -0.0540 -0.2080
18462W        W35986  17.686   8.532  14.876  0.2154  0.2718  0.1048
18463W        W35987   0.992  13.471   2.157 -0.0989 -0.0510  0.1181
18464W        W35988  10.615  13.622   0.220  0.0586 -0.0740 -0.0287
18465W        W35989   6.990   3.406   0.037 -0.1862  0.1428 -0.1676
18466W        W35990   0.484  15.455   5.167 -0.0057 -0.1984  0.0362
18467W        W35991   6.078   7.578  15.711 -0.2621  0.2623 -0.0240
18468W        W35992  14.784  10.546   1.381 -0.1785 -0.1829 -0.4197
18469W        W35993   8.813   0.660   1.573  0.3320 -0.1661  0.0321
18470W        W35994   6.036   5.017  14.760 -0.2011 -0.1043 -0.3403
18471W        W35995  14.707   2.987  14.012  0.1331  0.0622 -0.0888
18472W        W35996  17.470   6.071  12.033 -0.0333 -0.3460  0.1323
18473W        W35997  13.268   5.585   2.175 -0.3992  0.2533  0.2816
18474W        W35998  17.516  17.784  14.912  0.1144 -0.4076 -0.0838
18475W        W35999  15.639   2.211   4.828  0.1068  0.1352 -0.1709
18476W        W36000   0.798   1.501   0.297  0.3027  0.1293  0.3097
18477W        W36001   4.838   1.287  15.743  0.0793 -0.1392  0.1707
18478W        W36002   5.815  12.226  12.979  0.1092 -0.1659 -0.0237
18479W        W36003   7.901  14.657  14.561  0.1376  0.2034  0.0923
18480W        W36004   9.942  12.134   1.524 -0.0501  0.0177 -0.0238
18481W        W36005   3.429   9.653  11.814  0.0370 -0.2334  0.2360
18482W        W36006   2.117   3.852  11.740  0.0721 -0.1205 -0.0924
18483W        W36007   1.611   4.414  14.541  0.0400  0.1637  0.0048
18484W        W36008   0.010  13.785  13.354 -0.1203 -0.1697  0.0782
18485W        W36009   8.908   0.166   1.807 -0.0336  0.0584  0.0167
18486W        W36010  16.545  13.344   4.860 -0.2126  0.2994  0.1276
18487W        W36011  10.987  18.012  15.135  0.1168  0.0005  0.1938
18488W        W36012   8.405  12.480   3.741 -0.0918 -0.0500  0.2878
18489W        W36013  11.151   0.256  15.371  0.0736 -0.0703 -0.1039
18490W        W36014  10.452   1.063  12.230  0.1205  0.1309  0.3537
18491W        W36015  17.603   9.812   1.241  0.0444 -0.0413  0.1930
18492W        W36016  14.770   3.043  15.156  0.2798  0.2960  0.1972
18493W        W36017   6.199  14.028   1.277  0.0383 -0.3348  0.0507
18494W        W36018   7.342  15.035  14.962 -0.1498 -0.1383  0.1164
18495W        W36019  10.080  10.787  14.973 -0.1591 -0.1932  0.3038
18496W        W36020  17.186   4.809  13.510 -0.0131  0.0272 -0.2575
18497W        W36021   1.344   3.524   4.359 -0.3332  0.5465  0.2271
18498W        W36022   4.931   1.711  13.807 -0.1482 -0.1858  0.1478
18499W        W36023   4.969   7.965   3.372  0.2842 -0.2425  0.0397
18500W        W36024   6.565   2.016  11.529  0.0841 -0.1160 -0.0288
18501W        W36025   9.051   1.706  15.526  0.0429  0.0685 -0.0512
18502W        W36026   1.746   8.637  11.835  0.1185 -0.0299  0.1753
18503W        W36027   1.919   5.231   0.204 -0.1617  0.0162  0.2790
18504W        W36028  16.395  18.002  13.640 -0.2510 -0.0200  0.1775
18505W        W36029  18.016   8.146   2.426  0.5131 -0.1614  0.1474
18506W        W36030  12.798  14.214   1.373  0.0325 -0.1701 -0.2313
18507W        W36031   5.491   4.082  11.358 -0.0703 -0.1383  0.4148
18508W        W36032   6.009  11.793   1.623  0.1707 -0.0568  0.1002
18509W        W36033  13.077   4.798  11.657  0.1824 -0.2683  0.4437
18510W        W36034   1.179   7.366  11.977 -0.3977 -0.2475  0.0686
18511W        W36035  11.583  10.124   5.129  0.1378 -0.0363  0.1150
18512W        W36036   8.403  17.214   2.779  0.1646 -0.0094  0.1562
18513W        W36037   0.367   0.728  12.153 -0.4585 -0.0470 -0.0907
18514W        W36038   7.751   9.882   5.998  0.0361  0.1492  0.0282
18515W        W36039  11.144  13.157   3.597 -0.3736  0.2661  0.0014
18516W        W36040  13.720  14.722   5.398 -0.1297 -0.1570 -0.1176
18517W        W36041  17.872   3.134  15.866  0.0848 -0.3700  0.0497
18518W        W36042  16.358  15.926  11.660  0.0674 -0.1673  0.2489
18519W        W36043   5.422  10.546  12.042  0.0731  0.0907 -0.2616
18520W        W36044  12.077  12.225   4.222 -0.1396 -0.1422  0.0777
18521W        W36045   0.288   4.425  13.426  0.1708 -0.0598 -0.1545
18522W        W36046   6.049  10.490   4.159 -0.2239 -0.0798 -0.1185
18523W        W36047  14.570   9.356  12.427 -0.1265 -0.0102 -0.1507
18524W        W36048  15.598  17.611  14.423  0.2797 -0.0581 -0.3260
18525W        W36049  15.067   3.543   4.007 -0.0100 -0.2981  0.1805
18526W        W36050   5.050   3.578   4.713 -0.0216 -0.0374 -0.1453
18527W        W36051   1.647   3.736  11.467  0.1578  0.2002  0.0879
18528W        W36052  18.053  15.047  15.815  0.0192  0.1267  0.2077
18529W        W36053   8.159   0.906   4.899  0.0221  0.0465  0.1558
18530W        W36054   2.019  17.464  16.035  0.1563  0.0900 -0.2940
18531W        W36055   2.294   0.737  15.223  0.1163  0.2304  0.0240
18532W        W36056  14.563  13.782   4.296 -0.1239 -0.0575  0.1851
18533W        W36057  12.610  11.733  11.595  0.0462 -0.0997  0.1162
18534W        W36058  17.491  12.537  11.513  0.4734 -0.0401  0.3894
18535W        W36059   1.123  11.141   4.865 -0.1005 -0.2428 -0.2862
18536W        W36060  12.731  10.381  13.845  0.0300  0.0450  0.1328
18537W        W36061   2.567   4.357   0.061 -0.1292  0.1048  0.1894
18538W        W36062  14.927   5.322  10.218 -0.0461 -0.1148  0.1139
18539W        W36063  10.608  10.328  11.026  0.0441  0.1197 -0.1082
18540W        W36064  11.366   5.452   5.074  0.1049 -0.2509  0.0058
18541W        W36065  13.215   3.329  13.857 -0.1012 -0.2528  0.2589
18542W        W36066   5.775   9.892   3.588  0.0098  0.2126 -0.1296
18543W        W36067   8.220   3.352  14.020  0.1907  0.2628  0.4342
18544W        W36068  18.125   1.273   0.041 -0.1887 -0.1913 -0.0895
18545W        W36069   4.147   5.563   3.007  0.0125  0.2026  0.1284
18546W        W36070   7.758   3.763   1.097  0.0331 -0.1656 -0.4082
18547W        W36071   2.972  12.375   1.355 -0.3331  0.0448 -0.2614
18548W        W36072   3.868  17.586  15.818  0.0509 -0.1001 -0.4494
18549W        W36073   5.903  15.138  13.584  0.1712  0.2645  0.0743
18550W        W36074  17.775   7.339   0.786  0.0075 -0.0335  0.1585
18551W        W36075   8.593  15.763  15.742  0.0843  0.2630  0.0069
18552W        W36076   9.152   5.279   3.063  0.2172 -0.1590 -0.2699
18553W        W36077  14.650   7.915  15.683 -0.2314 -0.1969 -0.3701
18554W        W36078  13.767   4.830  13.291  0.1082  0.1166  0.0829
18555W        W36079  12.032   8.974  13.904  0.2646 -0.0254  0.2588
18556W        W36080  13.858   4.876   1.912 -0.0203 -0.1408  0.0952
18557W        W36081   1.703   7.436   0.983  0.3033 -0.2338 -0.0376
18558W        W36082  17.940  10.584   1.377  0.3958 -0.0339  0.1382
18559W        W36083  13.340  11.115  14.944 -0.2372  0.2805 -0.0012
18560W        W36084   0.302   8.386  14.461  0.1478  0.2261 -0.0263
18561W        W36085  13.986   6.443  13.003 -0.1197  0.3718  0.4175
18562W        W36086   3.187  13.468   5.120  0.0477  0.0805  0.2502
18563W        W36087   6.592  13.011  12.190  0.2712 -0.3330  0.1102
18564W        W36088  15.179  12.862  14.046 -0.1682  0.1358  0.0384
18565W        W36089  12.687  10.389   1.292 -0.1452 -0.2206 -0.6508
18566W        W36090  14.936   1.327  14.433 -0.0043  0.1771  0.0976
18567W        W36091  10.892   1.168   2.511  0.1946 -0.1217  0.2205
18568W        W36092   5.251  10.158   6.450 -0.1386  0.1389  0.1341
18569W        W36093  11.189  16.876  13.013 -0.2074  0.0122  0.1399
18570W        W36094   5.999   0.603   0.472  0.0127 -0.1486  0.2532
18571W        W36095  17.039  18.075  15.326  0.1222  0.0798  0.2008
18572W        W36096  14.425  10.527  15.688 -0.0827  0.1031  0.4007
18573W        W36097   0.263   4.412  10.170  0.1098 -0.2321  0.0157
18574W        W36098  11.508  11.480   1.996  0.0630  0.0061 -0.1620
18575W        W36099  15.012   0.592  15.130  0.0749  0.4188  0.2577
18576W        W36100  15.210  11.754  15.849 -0.2000  0.2202  0.2246
18577W        W36101   6.218  10.034   3.757 -0.2189 -0.1760 -0.0650
18578W        W36102   7.921   4.627  10.588  0.2415 -0.1803  0.1024
18579W        W36103   3.136  15.071  13.976  0.1799  0.0423  0.0279
18580W        W36104   0.114   3.907  15.141 -0.0485  0.0302 -0.0045
18581W        W36105  14.951  11.340   1.913  0.5020 -0.0850 -0.0946
18582W        W36106   6.618  16.742  13.725  0.0407 -0.0159  0.1749
18583W        W36107  10.414   7.095   4.583 -0.0874 -0.0315  0.1055
18584W        W36108   0.006   4.643  11.181 -0.2557  0.1221  0.0158
18585W        W36109  16.034   7.511  15.850  0.0547 -0.2608  0.1825
18586W        W36110   9.327   4.753  14.056 -0.0274 -0.0029  0.2566
18587W        W36111  12.890  14.264  12.646 -0.2388 -0.4239 -0.0029
18588W        W36112  14.490   1.568   0.107 -0.3053  0.1992  0.0308
18589W        W36113  12.843  14.314   0.856  0.2159 -0.4601 -0.0388
18590W        W36114   8.251  15.608  12.314 -0.0544 -0.3259 -0.1038
18591W        W36115  16.972   9.652   3.917  0.0965 -0.2089 -0.0302
18592W        W36116  16.452   6.335  12.120  0.0016 -0.0318  0.0122
18593W        W36117   7.888   2.945   4.467 -0.0082 -0.2208 -0.2737
18594W        W36118  11.321   5.534  11.665  0.0931 -0.0826  0.1543
18595W        W36119  13.408  13.720   3.258  0.4886  0.1073 -0.3587
18596W        W36120   1.374   4.940  14.368 -0.1892  0.0976 -0.2769
18597W        W36121   2.494  17.175  15.735 -0.2740 -0.2328  0.0522
18598W        W36122   7.055  12.066   3.256 -0.2846 -0.1800 -0.1017
18599W        W36123   8.425  14.455   0.953 -0.1545  0.3140 -0.1599
18600W        W36124   3.637   2.986  12.645  0.2316  0.1637  0.1063
18601W        W36125   4.720   9.058   3.651 -0.0809  0.0563  0.0173
18602W        W36126   5.683   5.449  12.459 -0.0275 -0.1467 -0.0102
18603W        W36127   9.636   8.432  12.653  0.1444 -0.1371 -0.0218
18604W        W36128  12.157  13.776   1.385  0.1300 -0.1476  0.2541
18605W        W36129   1.278   3.348   3.408  0.1717 -0.0464 -0.0025
18606W        W36130   2.604   3.431   4.543  0.0281  0.2486  0.0586
18607W        W36131   6.484   9.833  15.320 -0.1023 -0.0234 -0.2726
18608W        W36132   9.252  16.041  11.457 -0.2067 -0.3180  0.2292
18609W        W36133  17.160   5.098   4.379  0.0861 -0.0139  0.1189
18610W        W36134  11.708  10.609   0.692  0.1077  0.0621  0.1924
18611W        W36135  10.276  12.679  14.154  0.1393  0.1472  0.1707
18612W        W36136  17.480  15.403  11.442 -0.2411  0.3457 -0.0465
18613W        W36137   5.568  15.536  13.502 -0.0518 -0.0850 -0.0697
18614W        W36138  16.320  12.034  15.625 -0.2670  0.0258 -0.1381
18615W        W36139   3.662   7.224   0.514  0.1414 -0.1419  0.3049
18616W        W36140   3.954   3.294   3.166  0.0205  0.1438 -0.0570
18617W        W36141   4.572  16.855  12.899 -0.2195 -0.2467  0.2134
18618W        W36142   5.138  16.887   0.640 -0.1790 -0.1066 -0.0804
18619W        W36143   2.341   7.992  13.226  0.0971  0.2062 -0.3320
18620W        W36144  14.105   7.023   4.535 -0.4232 -0.0292 -0.0136
18621W        W36145  10.717  13.281  12.116 -0.0159  0.0046 -0.0792
18622W        W36146   9.137   8.500  12.650  0.2762 -0.1482  0.1082
18623W        W36147  14.451   9.752   0.914  0.0166  0.2371 -0.2416
18624W        W36148  16.630  13.864  12.918  0.0750 -0.3064 -0.1747
18625W        W36149  15.185  15.407   0.988 -0.0509 -0.0013 -0.0938
18626W        W36150   8.981   4.527   3.308 -0.0448  0.1801 -0.0686
18627W        W36151   5.769  10.965   0.381  0.0590  0.2702 -0.3484
18628W        W36152   1.791   4.580  15.522 -0.1613  0.1935 -0.0639
18629W        W36153   5.937   4.481   3.753  0.0074  0.2753 -0.2079
18630W        W36154  12.654  11.227  15.854  0.0427  0.0502  0.1105
18631W        W36155   5.136  14.185   3.410  0.1450  0.1498 -0.1656
18632W        W36156  14.905  16.902   1.182  0.2270  0.0165 -0.0495
18633W        W36157  12.280   6.323  12.144 -0.2537 -0.0727  0.0762
18634W        W36158   5.884   4.896  15.351 -0.1718 -0.2169  0.1867
18635W        W36159   1.117   2.671  15.818 -0.0884 -0.0931 -0.0073
18636W        W36160   2.585   3.508  11.039 -0.2877  0.1723  0.1831
18637W        W36161  14.084   3.297  15.665 -0.2208  0.1220 -0.1866
18638W        W36162   5.963   2.195  12.653  0.1890 -0.2572 -0.1136
18639W        W36163   4.733   3.863  13.440  0.1770  0.4187  0.0370
18640W        W36164  11.417   7.325   3.501  0.2533 -0.0190  0.1414
18641W        W36165  17.753  15.080   1.608 -0.0697  0.0667 -0.1633
18642W        W36166  15.905   4.107  15.267  0.3959 -0.0284  0.1048
18643W        W36167   5.330  17.250  13.697 -0.0423 -0.1455  0.0335
18644W        W36168   0.526  10.384   3.691 -0.4940 -0.2392  0.0351
18645W        W36169   6.425   5.078   9.947 -0.2203  0.1633 -0.0818
18646W        W36170   9.715   3.483   4.146 -0.1296 -0.1234 -0.1787
18647W        W36171  17.833   1.862   1.678  0.2199 -0.1171 -0.1435
18648W        W36172   2.743  16.458   3.669 -0.1509  0.1652  0.0013
18649W        W36173  17.337   7.006  15.236  0.2493  0.0508 -0.0835
18650W        W36174   7.610  12.386   2.419  0.2219 -0.1825 -0.2411
18651W        W36175   6.935  16.647   2.695 -0.2194  0.2079  0.0270
18652W        W36176   6.246  15.025   2.026  0.0064 -0.1291  0.1420
18653W        W36177   1.979   0.706   2.645  0.0217  0.0370  0.0483
18654W        W36178  12.180  16.589   4.630  0.0673  0.1080  0.0649
18655W        W36179   3.227  15.019   2.066 -0.4055 -0.2425  0.1127
18656W        W36180  11.694   7.372   4.922 -0.0218  0.2787  0.2756
18657W        W36181  13.393   3.816   3.365 -0.0509 -0.3337 -0.0160
18658W        W36182   9.730   7.074   1.995  0.0224 -0.0922  0.1970
18659W        W36183   4.286   4.896  15.526 -0.0824 -0.2994 -0.2058
18660W        W36184   9.717   1.555  14.772  0.2465 -0.3610  0.1683
18661W        W36185   6.662  12.208   0.228  0.2903  0.2375  0.1454
18662W        W36186  17.002   9.502  13.547  0.0211 -0.0838  0.1644
18663W        W36187   6.779  12.285   5.883  0.0309 -0.0697 -0.0952
18664W        W36188   9.722   0.800  11.271 -0.2120  0.1127  0.1107
18665W        W36189   0.988   7.187   4.387 -0.1847  0.0408  0.0173
18666W        W36190  11.787   0.181   4.584  0.1058  0.0134  0.2063
18667W        W36191   7.057   5.787  13.953 -0.1365  0.1513 -0.1417
18668W        W36192   6.624   3.777   2.233 -0.2170 -0.1594  0.0604
18669W        W36193  11.066   8.448  14.753 -0.2169  0.0412  0.2397
18670W        W36194   8.679   4.909   4.842  0.2083  0.0869 -0.4586
18671W        W36195  13.317   0.858   1.781 -0.0356  0.2010 -0.0693
18672W        W36196  16.459   9.486   2.020 -0.0663 -0.3340 -0.1908
18673W        W36197   2.862   2.029   1.099 -0.3817 -0.3493 -0.1050
18674W        W36198   6.435  15.807  12.862  0.0387 -0.0836  0.0153
18675W        W36199  16.392  11.643   0.847  0.0044 -0.1037 -0.4684
18676W        W36200   9.296   9.404   1.223  0.1272  0.0374  0.2057
18677W        W36201   8.086  11.500  13.347 -0.0404 -0.0665 -0.1874
18678W        W36202  10.934   4.666   4.539  0.0380 -0.3044 -0.0926
18679W        W36203  17.769   7.579   1.219 -0.1471 -0.3463  0.0926
18680W        W36204  10.232  11.063  13.630  0.0174  0.0004 -0.0175
18681W        W36205   1.033  16.723  12.785 -0.0928 -0.1224 -0.1999
18682W        W36206  14.327  14.687  12.352 -0.1293  0.0014  0.2172
18683W        W36207   4.126   9.336   5.455 -0.0403 -0.2554 -0.0087
18684W        W36208  11.690   6.538   5.163 -0.0888  0.3229  0.0694
18685W        W36209  11.802  10.283   5.819  0.1227 -0.1415  0.1256
18686W        W36210   5.190  17.976  12.602  0.0399  0.1033 -0.0296
18687W        W36211  16.752  13.718   0.105  0.0990 -0.3348  0.2353
18688W        W36212   3.595   4.420   4.797 -0.0489  0.1425 -0.2787
18689W        W36213  13.764   3.689   2.873 -0.0090  0.3276  0.2948
18690W        W36214  10.755   4.557  12.717 -0.3310 -0.0750  0.3072
18691W        W36215   9.691  17.533   0.925 -0.0396  0.0160 -0.1107
18692W        W36216   1.690   3.474   0.619  0.0935 -0.0228  0.1701
18693W        W36217  13.632  16.079   3.991 -0.1987 -0.1015 -0.3088
18694W        W36218   6.651  13.631   3.020 -0.0075  0.0362 -0.2797
18695W        W36219   9.791   8.569  13.122  0.2008  0.0759  0.1885
18696W        W36220  13.785  10.558   0.621  0.1212  0.2186 -0.2692
18697W        W36221   7.176   2.875  11.895 -0.0511 -0.3675  0.4370
18698W        W36222  15.630   2.800  15.538  0.0434  0.1968  0.1804
18699W        W36223   8.295   5.724   3.154  0.0200  0.0502 -0.0461
18700W        W36224  16.632  10.515   2.202  0.0242  0.3261  0.0461
18701W        W36225  17.257  14.971   0.732 -0.0601 -0.2977 -0.1829
18702W        W36226   1.404   2.820   4.030 -0.0237 -0.0374  0.1393
18703W        W36227   9.502  15.646  12.187  0.3391  0.3549 -0.1199
18704W        W36228   3.986   1.850  14.136 -0.0095  0.0559  0.1001
18705W        W36229   7.124  11.600  12.492  0.2269 -0.2681 -0.1651
18706W        W36230   8.116   6.493  14.071 -0.0059 -0.0646 -0.0489
18707W        W36231  17.016   9.328  15.556  0.4521  0.1103  0.0336
18708W        W36232   4.640   9.298  12.406 -0.0097 -0.0835  0.0158
18709W        W36233   1.527  10.922  13.806 -0.2344 -0.0257 -0.0960
18710W        W36234   1.069  16.495  12.146 -0.0714  0.0375 -0.0469
18711W        W36235   2.536   1.242  14.015 -0.0512 -0.0213  0.3332
18712W        W36236   3.408   6.264   4.192 -0.2848  0.1086  0.0921
18713W        W36237  13.814  11.912  14.754 -0.4664 -0.0443 -0.2298
18714W        W36238   0.459  17.353  15.422  0.1005  0.1419 -0.0467
18715W        W36239   9.129   5.381  12.043  0.1683  0.2299 -0.2300
18716W        W36240   0.743   6.889  13.561 -0.1774  0.2670 -0.0046
18717W        W36241  15.272   1.766  11.241  0.0785 -0.3769  0.1140
18718W        W36242   5.093   9.277  11.296  0.1719  0.0895  0.5467
18719W        W36243  15.221   4.986   1.313  0.1371  0.0241  0.0172
18720W        W36244  11.631  15.359   1.584  0.1413 -0.0547  0.0942
18721W        W36245   0.155   9.202   0.664 -0.0527  0.1275  0.1244
18722W        W36246   7.372   0.833   2.587  0.0524  0.1634  0.0481
18723W        W36247   5.780  10.597  15.119  0.2068 -0.0016  0.1270
18724W        W36248   6.296   2.573  12.767  0.2119 -0.3018  0.1458
18725W        W36249   5.366  16.663  15.661 -0.0315 -0.1728  0.0865
18726W        W36250   1.663  12.503   2.633 -0.0471  0.0038  0.0878
18727W        W36251   6.748   2.508  11.593 -0.1578 -0.2557 -0.0718
18728W        W36252  17.626  17.372  15.903  0.0951  0.2860 -0.1819
18729W        W36253  11.804  10.476   4.863  0.1213  0.1097  0.0367
18730W        W36254   0.198  17.613  10.644 -0.1226  0.2779 -0.3218
18731W        W36255   4.288   2.002  12.343 -0.1825 -0.0722 -0.0020
18732W        W36256  15.169   9.733   2.627 -0.0403 -0.0605  0.2307
18733W        W36257   4.480   8.612   0.808  0.0188  0.0891 -0.3581
18734W        W36258  14.272  12.147   1.691 -0.0366  0.2545  0.3737
18735W        W36259   2.661   8.302  12.794  0.1086  0.1121 -0.1006
18736W        W36260   5.668  13.141   3.112  0.1739  0.0979  0.0380
18737W        W36261   6.706  17.873   3.889  0.1387  0.1668 -0.0672
18738W        W36262  10.004   5.624  12.712  0.1232  0.0962  0.1037
18739W        W36263   2.655   2.483   5.392 -0.3506  0.0461  0.2139
18740W        W36264  13.885   5.500   4.992 -0.0236 -0.1193  0.1298
18741W        W36265  10.968   5.539   2.354 -0.0888 -0.2316  0.1160
18742W        W36266  11.549   1.119  13.220 -0.0254 -0.1735  0.0462
18743W        W36267  15.559  12.011  14.251 -0.0567  0.2765 -0.0491
18744W        W36268  14.981   7.772   2.491  0.1030 -0.1961 -0.0548
18745W        W36269  13.454  11.940   0.402 -0.2434 -0.2185 -0.0766
18746W        W36270  16.216   6.467   3.485 -0.0498  0.2440  0.0690
18747W        W36271   0.720   2.016  13.185  0.1998 -0.0043 -0.1061
18748W        W36272   7.895   9.371  13.696 -0.0989 -0.3484  0.2722
18749W        W36273  12.776   1.471   1.485  0.2330  0.1031 -0.2737
18750W        W36274   5.627  17.967  12.830  0.3176  0.3418  0.0055
18751W        W36275  18.044   8.056   3.279  0.0573 -0.2560 -0.0145
18752W        W36276  16.131  11.059  15.833 -0.2425  0.1350  0.0652
18753W        W36277   9.223   5.155  12.719  0.1290  0.2204 -0.2275
18754W        W36278   2.214  15.720  11.545  0.0714 -0.2323  0.0291
18755W        W36279  15.458   8.218   3.328  0.2513 -0.1933  0.0053
18756W        W36280   5.021   9.111   4.453  0.3152  0.0536  0.1483
18757W        W36281   5.245   8.115   0.703 -0.0614  0.2665 -0.1982
18758W        W36282   3.852   2.656   0.459 -0.1191 -0.1611 -0.3634
18759W        W36283   8.120   1.459   0.957  0.1172 -0.2427  0.0035
18760W        W36284   1.312  14.974   5.123  0.2617 -0.0927 -0.1057
18761W        W36285  16.933  16.616   0.230  0.3656  0.1001  0.3547
18762W        W36286   7.907  12.245  15.197 -0.0314  0.1279  0.0976
18763W        W36287   6.798   4.561   3.466 -0.0276 -0.1098 -0.0640
18764W        W36288  11.637  11.084  14.955 -0.1169  0.1376 -0.1098
18765W        W36289  16.704   0.223   3.821  0.0166 -0.1630  0.1660
18766W        W36290   1.472  17.291   0.100  0.0310  0.1989  0.0473
18767W        W36291   4.471   8.822  12.445  0.1724 -0.1636 -0.1674
18768W        W36292   5.348  11.957  12.060  0.1344  0.2161  0.2505
18769W        W36293   3.999  14.634  14.872 -0.3536 -0.0339  0.0349
18770W        W36294  14.045  14.909   3.512  0.0204 -0.0139  0.0162
18771W        W36295   8.588   6.087  12.399  0.0268  0.1318 -0.0390
18772W        W36296   7.766   7.515   5.548  0.2152  0.0910  0.1885
18773W        W36297  10.320   9.300  12.187  0.4064  0.0357 -0.1046
18774W        W36298  14.906  10.263  12.699 -0.3606  0.2522 -0.2443
18775W        W36299  11.535  15.330  15.160  0.0808 -0.0651 -0.0029
18776W        W36300   9.214  15.892  14.312  0.0804 -0.2731  0.3478
18777W        W36301   6.261  12.857  13.864 -0.0700  0.0626  0.2889
18778W        W36302   7.033   0.059  15.509 -0.0537  0.0387 -0.1650
18779W        W36303   6.838   6.236  14.441 -0.2581 -0.1529  0.2632
18780W        W36304   0.478   5.053   5.601 -0.0545  0.1175 -0.1063
18781W        W36305  11.303  15.291   1.247  0.2857  0.0173 -0.1316
18782W        W36306  14.108   0.165  13.347 -0.3008 -0.2479  0.0917
18783W        W36307  13.570   5.822   9.923 -0.1771  0.0214 -0.1039
18784W        W36308  11.399   8.389  16.024 -0.0441 -0.0539 -0.1180
18785W        W36309   9.706   1.172  13.147  0.4217  0.0326  0.0813
18786W        W36310   1.333  17.129  11.909 -0.1426 -0.1567 -0.1057
18787W        W36311   7.196  17.940   3.887 -0.2903  0.0997  0.3135
18788W        W36312   7.909  17.579  11.650 -0.0414 -0.1574  0.1826
18789W        W36313   8.627  17.241   1.781  0.2965  0.1085 -0.1569
18790W        W36314   0.248  16.831  11.106  0.1775 -0.2493 -0.0035
18791W        W36315   5.282  18.009   3.583 -0.0379 -0.1155  0.0033
18792W        W36316   2.703   1.664  10.093  0.2088  0.5430  0.0144
18793W        W36317  12.636   3.527   1.265  0.1887  0.1996 -0.2318
18794W        W36318   8.280  13.560  12.358 -0.0092  0.0900  0.0935
18795W        W36319  11.056  10.119   1.410 -0.4514 -0.2934 -0.2033
18796W        W36320   0.522  15.779   2.006  0.2270 -0.2635 -0.0144
18797W        W36321   6.656   6.626   2.764 -0.4121  0.3052  0.1082
18798W        W36322  11.273   9.780   2.459  0.1218  0.0273 -0.0144
18799W        W36323   4.588  13.953  14.549 -0.2987 -0.1027  0.0155
18800W        W36324  10.932  10.780  12.105  0.1550  0.1595  0.2790
18801W        W36325   2.378   7.555  14.225  0.1186 -0.3248 -0.0929
18802W        W36326   9.303  13.819  12.136 -0.1962 -0.0736  0.2574
18803W        W36327  13.068   9.304   1.011  0.3805  0.2671 -0.0789
18804W        W36328  14.535   6.368   1.421  0.2753 -0.0895  0.1204
18805W        W36329  17.269   6.241  15.130  0.1085  0.0044  0.1905
18806W        W36330   7.291  10.442  12.163 -0.0423 -0.1049  0.3393
18807W        W36331   4.870  14.905   4.641  0.1991  0.2111 -0.0446
18808W        W36332   4.942  10.245  15.434  0.0401 -0.1383 -0.1694
18809W        W36333  13.394  17.572   5.462  0.2802 -0.3741  0.1022
18810W        W36334   5.730   3.755   2.388 -0.3797 -0.0231  0.0371
18811W        W36335  13.381   5.431  14.333  0.4359 -0.0913  0.2455
18812W        W36336  12.228  10.211  15.003 -0.0139 -0.0215 -0.0777
18813W        W36337   6.303   2.713  11.820 -0.2847  0.0963 -0.0487
18814W        W36338  13.487   5.667   3.465  0.3882 -0.0221 -0.1681
18815W        W36339  11.036   2.843   3.194  0.0193  0.1717 -0.0846
18816W        W36340  16.415   4.988  12.619 -0.0746  0.0086 -0.0918
18817W        W36341  16.845   0.851  12.370 -0.0696 -0.1220  0.0220
18818W        W36342   8.465  14.710  14.441  0.3238  0.3835  0.1036
18819W        W36343  13.094  15.282  15.866  0.0639 -0.1733  0.1015
18820W        W36344   1.168  15.565  14.832 -0.0932 -0.2485  0.3090
18821W        W36345   4.579  10.522  11.978  0.2284  0.0140  0.0327
18822W        W36346  12.222  14.116  12.236  0.1310  0.0409 -0.0013
18823W        W36347   1.450   5.694   1.190  0.1679  0.0084  0.0794
18824W        W36348  13.970   8.425  15.521  0.2984  0.0956  0.3490
18825W        W36349  10.523   9.431   1.679 -0.2354  0.2562 -0.2597
18826W        W36350   6.762  15.733  15.036  0.2049  0.1387 -0.1148
18827W        W36351   9.439   8.693  12.251  0.0075 -0.2967 -0.0646
18828W        W36352  13.888  17.723  14.188 -0.3334  0.1393 -0.0506
18829W        W36353  10.253  16.619  12.242  0.1086  0.0908  0.0864
18830W        W36354  11.903   8.620   4.372 -0.0434  0.0891 -0.3559
18831W        W36355  17.889   3.417   2.485 -0.1100 -0.0044 -0.1960
18832W        W36356   1.654   1.849  15.989  0.0903  0.2035 -0.3282
18833W        W36357   8.841   7.359  13.506  0.3459  0.2259  0.1946
18834W        W36358  14.689  17.527   3.296 -0.2433 -0.4448  0.0778
18835W        W36359   9.967  12.225   1.990 -0.1311  0.1074 -0.1384
18836W        W36360  16.411   7.200  14.518  0.1799  0.0345  0.0134
18837W        W36361  17.541   3.493  13.200  0.1191  0.0501 -0.0460
18838W        W36362  16.276  12.115   1.855  0.0100 -0.0769 -0.2021
18839W        W36363  16.557  11.718  11.111 -0.0404  0.2998  0.1932
18840W        W36364   9.497  15.303   5.504 -0.2671  0.0583  0.1590
18841W        W36365  16.430   0.411  12.630  0.2968 -0.0263 -0.2106
18842W        W36366  17.935   4.604  12.034 -0.0524 -0.1220  0.2358
18843W        W36367   2.453   4.252  12.639 -0.0408  0.2045 -0.2072
18844W        W36368   9.678   7.049   3.698  0.0431 -0.0904 -0.1815
18845W        W36369  13.181  15.866   0.660 -0.0564  0.1485  0.2009
18846W        W36370   1.642  10.183   2.078 -0.0990 -0.1761  0.1898
18847W        W36371  12.479   2.892   1.258  0.1318 -0.0254 -0.2253
18848W        W36372  16.816  13.904   4.008  0.0297 -0.0365  0.2189
18849W        W36373   9.821  10.655   1.573 -0.2074  0.1791  0.0696
18850W        W36374   1.768   3.140  13.149  0.0478 -0.2395  0.0967
18851W        W36375   6.306  14.225  14.427  0.1485  0.1819 -0.0324
18852W        W36376  13.317  10.234   1.162  0.2721 -0.0101  0.2876
18853W        W36377   5.422   3.537   2.040  0.0165 -0.1103  0.2420
18854W        W36378  15.734  14.062  12.740  0.0039 -0.1625  0.2167
18855W        W36379   2.598  16.021   0.018  0.2312 -0.3633 -0.1140
18856W        W36380  10.081  16.261   2.212  0.1727 -0.2312  0.1147
18857W        W36381   6.112  14.820   3.667 -0.0046  0.1494  0.0999
18858W        W36382   7.492   3.439  11.156 -0.0918  0.0148 -0.0292
18859W        W36383   8.405   6.929   4.947  0.0051  0.1266  0.1291
18860W        W36384   7.931   9.991   1.248  0.0697 -0.2201 -0.1101
18861W        W36385  15.155  11.083   1.533 -0.2149  0.0276 -0.4967
18862W        W36386  11.828  16.199   4.732  0.3920  0.1170 -0.1329
18863W        W36387   3.814   7.743   2.359  0.1796  0.0811  0.1040
18864W        W36388  10.472  10.579  12.380 -0.0984  0.1669 -0.1944
18865W        W36389   8.791  17.897  13.911  0.1645 -0.2240  0.0303
18866W        W36390   8.308  13.570  14.750  0.1868 -0.1129  0.2589
18867W        W36391   0.829  10.143  11.905 -0.2137  0.1321 -0.0132
18868W        W36392   1.216   3.262   1.756 -0.0617  0.0860  0.2504
18869W        W36393  11.239  14.493   2.372 -0.0635  0.3229  0.2806
18870W        W36394  15.377   8.143   5.363 -0.0953  0.0320  0.2372
18871W        W36395   5.087   7.903   2.897 -0.2673 -0.3863  0.2279
18872W        W36396  10.812   8.875  15.117  0.1104 -0.1217  0.2107
18873W        W36397   0.488  10.196  11.310 -0.0692  0.0253 -0.0173
18874W        W36398   3.635   3.115   0.583  0.2472 -0.2346  0.1019
18875W        W36399   8.231   7.617   0.187 -0.3889  0.2368  0.1023
18876W        W36400  17.844   6.241   2.978 -0.3747  0.0320 -0.2089
18877W        W36401  15.096  17.994   2.257 -0.1016 -0.1140 -0.2304
18878W        W36402   8.301  14.152   2.375  0.5624  0.3075  0.0422
18879W        W36403   9.471  17.313  11.252  0.0067 -0.3412  0.1474
18880W        W36404   8.432   7.416   2.485  0.0055 -0.1624  0.0575
18881W        W36405  13.125  17.446  11.612  0.0399  0.3955 -0.1724
18882W        W36406   6.627  11.204   6.076 -0.1299 -0.0274 -0.1550
18883W        W36407  13.347  17.568  12.184 -0.1139  0.1169  0.0587
18884W        W36408  15.643   5.506  13.027 -0.1446  0.3452 -0.1350
18885W        W36409  13.818  17.479   5.117  0.4522  0.0293  0.2761
18886W        W36410   2.600  16.316  13.906 -0.4350 -0.2556  0.1008
18887W        W36411  16.978  11.961   0.083 -0.0769  0.1494  0.2849
18888W        W36412   4.207  17.921   2.879  0.2607 -0.0675  0.0671
18889W        W36413  12.543  12.517   4.011 -0.3397  0.1676  0.1634
18890W        W36414  12.018  12.181   4.758  0.1075 -0.0807  0.1096
18891W        W36415   6.006  11.779   0.706  0.0043 -0.1791 -0.1699
18892W        W36416   0.635  13.389   3.049 -0.0853  0.0298  0.0496
18893W        W36417   3.929  18.043   4.105  0.0133  0.0117 -0.2132
18894W        W36418   8.080   1.701  13.472 -0.1560 -0.0637 -0.1268
18895W        W36419  17.384  16.382  13.778  0.0556 -0.1023  0.1459
18896W        W36420   2.080   1.383  15.635  0.4265  0.1419 -0.0867
18897W        W36421   7.877   3.586  13.700  0.1545  0.1871  0.0019
18898W        W36422   8.924  16.480   4.228 -0.3001 -0.2581  0.0346
18899W        W36423   8.948   9.212  15.672  0.2805 -0.1925  0.3961
18900W        W36424   3.700  17.577  15.054  0.1723  0.2762 -0.1788
18901W        W36425  11.833   1.714   4.535  0.0260 -0.0016 -0.1570
18902W        W36426  16.675  16.657   4.673  0.0329  0.0957  0.1946
18903W        W36427   0.840   7.437  10.362  0.0354 -0.0936 -0.0279
18904W        W36428  15.027   2.582  14.853 -0.0535 -0.2613  0.1190
18905W        W36429   7.542   2.940  12.274  0.0160  0.1320  0.1690
18906W        W36430  13.175   7.849  12.256 -0.3335  0.2191  0.2944
18907W        W36431   5.909   2.692   2.752  0.3147 -0.1217 -0.3608
18908W        W36432  11.039   7.133   1.921  0.0300  0.2657 -0.1993
18909W        W36433   6.820   7.577  11.196 -0.2424 -0.0893 -0.0695
18910W        W36434  13.160   7.135  13.554  0.0050  0.1388 -0.1533
18911W        W36435   4.934   7.733  14.997  0.0632 -0.1364  0.2363
18912W        W36436   0.191  13.704   2.328  0.1718  0.1379  0.4139
18913W        W36437   7.061   3.544   0.553  0.1473 -0.3226 -0.1224
18914W        W36438  15.706  12.879   4.955  0.2544  0.0776 -0.0050
18915W        W36439   3.777   0.989  12.712  0.0988  0.2417  0.0333
18916W        W36440   0.479  11.667  10.741 -0.3081  0.0773 -0.0560
18917W        W36441  16.916   5.409   2.956 -0.0472 -0.0413  0.3374
18918W        W36442   2.815  12.300  12.033 -0.0197  0.0782 -0.0784
18919W        W36443   4.600   4.622  13.107 -0.1706 -0.0102 -0.4592
18920W        W36444  13.055   3.109  12.949  0.0220 -0.1451 -0.2157
18921W        W36445  10.935  11.712  11.811 -0.0041  0.1329 -0.2562
18922W        W36446   0.842   7.781  15.416  0.1310 -0.2073  0.3172
18923W        W36447  17.042   5.485  11.648 -0.1035  0.2262  0.0498
18924W        W36448   0.332  10.290  11.834 -0.0999  0.2389 -0.0812
18925W        W36449   7.934   9.344   3.370  0.0971  0.0168 -0.0711
18926W        W36450   5.713   0.012  10.669  0.0163 -0.0449  0.1946
18927W        W36451  17.489  10.343   2.088  0.1577  0.3711 -0.2264
18928W        W36452   5.535   7.727   3.094 -0.2066  0.0367  0.1654
18929W        W36453  12.613  10.519  14.758  0.0757  0.1780 -0.1775
18930W        W36454  17.472  10.804  13.570 -0.3429  0.0383 -0.0704
18931W        W36455   5.827   2.687  11.987  0.2905 -0.1609  0.0213
18932W        W36456  15.715   0.588  13.951 -0.1266 -0.0638 -0.3102
18933W        W36457   8.084   4.088  12.836 -0.0975 -0.0591  0.1357
18934W        W36458  18.047   2.115   3.170 -0.1083 -0.0363  0.0099
18935W        W36459   3.383   8.409   4.036 -0.2649  0.2043  0.1312
18936W        W36460   4.225  12.264  14.072  0.1114 -0.2754  0.0198
18937W        W36461  14.657   8.291  12.179  0.2603  0.1780 -0.0369
18938W        W36462  17.292  10.783   3.336 -0.3905  0.0779  0.0403
18939W        W36463   3.654  16.434  14.528  0.2120  0.1834  0.2451
18940W        W36464  12.460   4.091   5.306 -0.2927  0.0630 -0.0746
18941W        W36465   5.016  14.788   5.136 -0.1454  0.0109 -0.1342
18942W        W36466   1.477   2.878   5.101  0.0104  0.1589 -0.0398
18943W        W36467  14.800   3.079   3.230 -0.0252  0.2001  0.2378
18944W        W36468   5.807  14.374   1.428 -0.0534  0.1050 -0.2127
18945W        W36469  10.702  14.211  15.006  0.1512 -0.1505 -0.1180
18946W        W36470   3.172  17.110   1.499  0.1335  0.0087  0.1112
18947W        W36471   7.088   9.968  11.355  0.0148  0.2491 -0.2257
18948W        W36472   5.381   2.994   1.275  0.1231  0.3358  0.0906
18949W        W36473  11.966   1.653   2.494  0.0777  0.0227 -0.0315
18950W        W36474  14.036  12.550  13.481  0.0025  0.1436  0.1727
18951W        W36475   4.125   0.651   1.859 -0.0120 -0.1508 -0.0436
18952W        W36476   7.515  17.830   5.160 -0.1919 -0.2968  0.1187
18953W        W36477   9.577   3.067  14.073 -0.0062 -0.0158 -0.0341
18954W        W36478  11.837  11.160  13.825  0.2651 -0.1004 -0.0889
18955W        W36479   9.557  11.390  11.951  0.0786  0.1654 -0.2128
18956W        W36480   9.637   4.840   4.332  0.0266 -0.1143  0.0414
18957W        W36481   3.742  15.201  11.734 -0.1194  0.4287 -0.0588
18958W        W36482  10.286   6.576   0.922  0.0676  0.2057  0.4712
18959W        W36483   5.736  12.911   2.641  0.2058 -0.2613  0.0980
18960W        W36484   8.691  14.861   0.841  0.2868  0.1283  0.0412
18961W        W36485  10.732   3.704   1.671 -0.3810 -0.0929 -0.1499
18962W        W36486  14.278   9.405   3.913 -0.0024 -0.0582  0.2179
18963W        W36487   4.680   5.105  11.427  0.2554 -0.2672 -0.1978
18964W        W36488   3.959   7.322  11.811  0.2653  0.1478  0.1058
18965W        W36489  11.626  13.843  13.982  0.3555 -0.2892 -0.1064
18966W        W36490  16.406  14.846  14.960  0.2218 -0.0385  0.1111
18967W        W36491   4.824  14.932  11.119 -0.2204 -0.0949 -0.3653
18968W        W36492  13.582   5.167  12.010 -0.2686  0.1752 -0.2091
18969W        W36493   7.467  12.756   3.924  0.1424  0.1124  0.3715
18970W        W36494   8.657  16.442  13.588 -0.3233 -0.0567  0.1428
18971W        W36495   1.902  13.656   1.683  0.0159  0.0661  0.0928
18972W        W36496   8.739   3.006   9.844 -0.0300 -0.0286 -0.0479
18973W        W36497  16.520   8.676  11.506  0.3828  0.1468 -0.0027
18974W        W36498  11.807  17.752  11.240  0.0499  0.1082 -0.1207
18975W        W36499   8.305   8.871   2.684 -0.0685  0.0964 -0.1476
18976W        W36500   9.979   8.800   1.330 -0.1347  0.2816  0.0676
18977W        W36501   0.721  14.768  16.050  0.0004  0.0939  0.0041
18978W        W36502  16.252   6.152   1.249 -0.2377  0.0125  0.1169
18979W        W36503   7.880   9.056  11.515  0.0014 -0.0912 -0.2314
18980W        W36504  15.877   1.063   4.802  0.0546  0.1013  0.0398
18981W        W36505   3.678  14.225   3.015  0.0679 -0.0356 -0.1216
18982W        W36506  17.452  13.729   3.012  0.0751  0.2810 -0.1132
18983W        W36507   7.108  18.113  14.924 -0.1048 -0.2076  0.0704
18984W        W36508  11.881   7.810   2.124  0.1890  0.3017  0.1524
18985W        W36509   9.248   0.809  11.065 -0.3721 -0.2142 -0.0415
18986W        W36510   8.108  15.500  15.038 -0.4683 -0.2935 -0.1510
18987W        W36511   7.940   0.011  10.971 -0.0195  0.0272 -0.2214
18988W        W36512   3.051   4.523   0.401  0.3924 -0.2625 -0.0490
18989W        W36513  15.268  16.539   0.853  0.0867  0.3569 -0.3110
18990W        W36514   8.850   4.935  11.976  0.2865  0.2328  0.3321
18991W        W36515   6.768  10.268   4.975 -0.0209  0.1658  0.0452
18992W        W36516  13.946   0.874   2.504  0.1989 -0.0683 -0.2877
18993W        W36517   2.216   8.564  15.709  0.1184 -0.2052 -0.1060
18994W        W36518   6.996  10.397  15.850  0.0109 -0.0185 -0.2093
18995W        W36519   6.868  17.340   3.288  0.2170 -0.0474  0.2149
18996W        W36520   6.306  16.073   0.853  0.1319  0.1301 -0.2265
18997W        W36521  15.943   8.317  11.553  0.1024  0.0934 -0.0373
18998W        W36522   7.585   3.448  14.739  0.1797 -0.1429  0.1268
18999W        W36523  10.328  13.099  10.635 -0.1453 -0.2796  0.1931
19000W        W36524   7.525   7.520   2.584 -0.1596  0.2012  0.0550
19001W        W36525   7.584   7.810   1.215 -0.3444 -0.0201  0.0344
19002W        W36526   5.411   8.127   4.291  0.0964  0.0516 -0.0144
19003W        W36527   8.366   9.917   4.056 -0.0594  0.0873  0.1519
19004W        W36528  12.752   7.735   1.677  0.0320 -0.2381 -0.0867
19005W        W36529   7.015   9.266   3.136  0.0216 -0.2166 -0.0572
19006W        W36530   3.155  14.601  11.078  0.0048 -0.2188 -0.2811
19007W        W36531   2.815  11.802   1.238 -0.0648  0.1557 -0.2287
19008W        W36532   7.009  15.707   0.509  0.0506  0.0904 -0.1402
19009W        W36533  14.471  17.351  14.930 -0.0409 -0.0256 -0.0185
19010W        W36534   3.240   2.782  11.805 -0.0035  0.2434 -0.0965
19011W        W36535  10.688   3.752  11.338  0.1527 -0.0959  0.1449
19012W        W36536   9.837  13.943   1.836  0.0633  0.0193 -0.1129
19013W        W36537   2.486  10.430   1.227 -0.1886  0.0666  0.0888
19014W        W36538   6.415  16.664  12.709  0.1265  0.3554  0.2463
19015W        W36539   0.119  14.952  14.566  0.1936 -0.3125  0.0886
19016W        W36540  11.624  12.299   4.394 -0.0796 -0.0212  0.0435
19017W        W36541  18.134   9.382  11.085  0.0489 -0.1522 -0.0084
19018W        W36542  12.469  11.786   1.235 -0.1346  0.4393 -0.1541
19019W        W36543  15.959   0.172  12.675  0.1562 -0.0507 -0.0008
19020W        W36544   5.736  10.547   5.338  0.0593 -0.1149 -0.2032
19021W        W36545  12.896  11.972  13.757  0.1682 -0.0961  0.1004
19022W        W36546   2.788  11.450  12.135 -0.1978 -0.2074  0.4292
19023W        W36547   3.445  11.781  13.528 -0.2717  0.1378 -0.2636
19024W        W36548  15.922  14.149   4.501 -0.0173 -0.0580 -0.0210
19025W        W36549   8.069  13.657   3.694  0.0036  0.1012 -0.0368
19026W        W36550  15.382  12.585   5.776  0.0860 -0.2649  0.2246
19027W        W36551   5.641  14.982   3.826 -0.0407  0.0674 -0.0139
19028W        W36552   9.366  11.855  12.131 -0.1845  0.0484 -0.0584
19029W        W36553  13.290   3.386   3.689 -0.0708 -0.3925 -0.1263
19030W        W36554  16.409  14.613   3.246  0.0849  0.0389  0.2762
19031W        W36555   4.154   2.597  15.026  0.2059  0.3877 -0.2393
19032W        W36556  14.257  11.830  12.306 -0.1509  0.0923 -0.0444
19033W        W36557   1.153   2.229  13.915 -0.1140  0.3082  0.0361
19034W        W36558  10.820   8.788  13.859  0.2477  0.0116  0.0317
19035W        W36559  12.906   4.426   3.533  0.1374  0.0040 -0.1737
19036W        W36560   9.714   8.035   3.990  0.0268 -0.0745 -0.0370
19037W        W36561  15.741  14.329   0.896  0.0988 -0.1053 -0.3660
19038W        W36562   0.665   7.772   5.086  0.1966 -0.2915 -0.0847
19039W        W36563   1.680  13.082   3.527 -0.0905 -0.1776 -0.0292
19040W        W36564  11.976  16.419  13.102 -0.0027 -0.3411  0.0775
19041W        W36565   1.310   6.505  15.239  0.1355  0.1790  0.2741
19042W        W36566  12.498   0.517  14.031  0.1926 -0.1589 -0.1593
19043W        W36567  11.556   9.386   5.485  0.4451  0.1714  0.0534
19044W        W36568   4.082   8.137  11.717 -0.3014  0.1886  0.2832
19045W        W36569  11.651   4.545  15.036 -0.1550 -0.0893  0.1924
19046W        W36570  15.028   6.165   2.787  0.0772 -0.0546  0.0263
19047W        W36571  11.875  17.560  11.685  0.0050 -0.0251 -0.4200
19048W        W36572   5.849   9.761   4.043 -0.2712  0.0082 -0.1396
19049W        W36573   7.580  11.215  11.487  0.2353 -0.3657 -0.4075
19050W        W36574   8.803  10.612   0.016  0.0318  0.2047 -0.1760
19051W        W36575   4.583   7.533  14.680 -0.2422  0.3793 -0.0311
19052W        W36576   8.079   4.337  15.065 -0.1677  0.0659 -0.0382
19053W        W36577  13.169  13.192   1.717  0.0745 -0.1136 -0.0289
19054W        W36578   4.502  12.504   3.251 -0.1449  0.0650 -0.1421
19055W        W36579  18.038   5.770   1.913 -0.2038 -0.2465  0.1194
19056W        W36580   5.864   7.288  12.792 -0.1333  0.3069  0.0212
19057W        W36581  10.755  14.579  14.217  0.2468 -0.2298  0.0742
19058W        W36582  13.042   5.655  11.185  0.0480  0.2457 -0.0897
19059W        W36583   1.242  14.908   1.627  0.2185  0.3084 -0.3575
19060W        W36584  12.278   4.673   4.928 -0.2216  0.1803  0.1552
19061W        W36585   4.293   1.435   3.300  0.0992 -0.0575  0.0910
19062W        W36586   1.477   9.103  15.277 -0.2092 -0.0691 -0.1511
19063W        W36587   1.604   6.991   1.188  0.1083 -0.1110 -0.1421
19064W        W36588  10.765   0.925  14.288  0.1516 -0.1193  0.3191
19065W        W36589  13.635  17.391  15.651  0.1788 -0.1326  0.0185
19066W        W36590  17.128   1.021  13.933 -0.4711 -0.1509 -0.0374
19067W        W36591   8.895  15.617   3.694  0.1673 -0.0917 -0.4573
19068W        W36592   7.261  17.069  13.936 -0.1455 -0.1078 -0.1495
19069W        W36593   3.805   6.079  13.187 -0.1287 -0.2683 -0.1714
19070W        W36594   5.645  17.470   3.210 -0.0700  0.6070  0.0901
19071W        W36595  13.478  17.019   0.874  0.1860 -0.1293  0.1562
19072W        W36596   2.391  17.523   4.478 -0.2239  0.0823  0.1255
19073W        W36597   4.215   0.829   3.875 -0.0133 -0.0074  0.3846
19074W        W36598  15.954   1.995   4.080  0.2630  0.1174 -0.1663
19075W        W36599  14.827  16.437   0.170 -0.1391 -0.2034  0.0884
19076W        W36600  10.143  14.460  13.826  0.0498 -0.0963  0.1452
19077W        W36601   2.282  17.295   1.861  0.1274  0.0073  0.1499
19078W        W36602   0.132   1.966  13.788  0.0640  0.2491  0.2609
19079W        W36603  14.914  13.711   0.255  0.2094 -0.0530 -0.0046
19080W        W36604   4.825  14.771  15.855 -0.1062  0.0801  0.0451
19081W        W36605   5.984   4.134  12.961  0.1714  0.0523  0.1242
19082W        W36606   0.964  14.501  14.679  0.0621  0.0064  0.0383
19083W        W36607   2.503  14.758  13.180 -0.3185  0.2313 -0.2003
19084W        W36608  16.813  12.582  12.318  0.0395  0.3723  0.1532
19085W        W36609  15.174   6.915   2.208  0.4161  0.2979  0.0350
19086W        W36610   3.240   2.671   4.599 -0.0571  0.1809 -0.1003
19087W        W36611  12.881   0.939   4.936 -0.0784  0.1394  0.1735
19088W        W36612   1.967  17.786  11.876  0.3196  0.3067 -0.1655
19089W        W36613  10.867  14.685  13.318 -0.1212 -0.0625 -0.0572
19090W        W36614  10.241   4.349  15.531  0.1057  0.0704  0.0524
19091W        W36615   3.805  18.109   1.358 -0.2120  0.2630 -0.1701
19092W        W36616   4.162  11.450   3.487 -0.2344  0.0427 -0.1936
19093W        W36617  15.565  12.008   2.155  0.0716  0.0204 -0.1806
19094W        W36618  16.330   0.817   5.502 -0.2374  0.2103 -0.1123
19095W        W36619  13.869  14.412   2.235  0.2594 -0.0310 -0.0287
19096W        W36620  17.004  17.777  14.295  0.0591 -0.0214  0.0895
19097W        W36621   2.982  12.343  16.029 -0.1451 -0.3756 -0.1391
19098W        W36622   3.382   9.430  13.209 -0.1618  0.0088  0.3621
19099W        W36623  14.209  12.103   2.641  0.0760  0.0658  0.0199
19100W        W36624   0.332  12.935   5.149 -0.0998 -0.0844  0.1806
19101W        W36625  16.547  16.107   2.081 -0.1344  0.0024  0.4007
19102W        W36626   6.914   2.978   2.230  0.0080  0.1484  0.1907
19103W        W36627   5.118   8.545   4.499 -0.0798  0.1354 -0.0684
19104W        W36628   5.603  17.201  14.481  0.0651  0.0748 -0.0422
19105W        W36629   1.001  14.144   2.639 -0.0953  0.1842 -0.1043
19106W        W36630  12.923   7.631  15.107  0.2458  0.1181  0.0531
19107W        W36631   3.583   9.140   2.663  0.1316 -0.1618 -0.0066
19108W        W36632  10.591   4.960  13.997 -0.2334 -0.1459  0.2252
19109W        W36633   8.351   3.459  13.532  0.0886 -0.3680  0.0870
19110W        W36634  10.032   5.012  13.451 -0.0099 -0.3561 -0.0059
19111W        W36635   2.370   6.307  12.383 -0.1606 -0.4572  0.1099
19112W        W36636   5.763   0.393   0.987  0.1018 -0.1414  0.4324
19113W        W36637   8.292  10.434   4.297 -0.1327  0.2415  0.1809
19114W        W36638   5.303  13.757  12.959 -0.0334  0.2526 -0.0036
19115W        W36639  17.242  10.779   1.851 -0.5381 -0.0032 -0.0064
19116W        W36640  10.373   4.592   3.218 -0.2608  0.0945  0.1627
19117W        W36641   7.464  17.970  11.128  0.2232  0.1417 -0.1308
19118W        W36642   0.854   9.800   1.843  0.2913  0.1364 -0.0822
19119W        W36643  14.784   2.460  11.551 -0.1437  0.2057 -0.1580
19120W        W36644   7.752  11.917   2.658  0.2765 -0.0491 -0.3020
19121W        W36645  10.057   3.039   3.262  0.1667  0.1719  0.0821
19122W        W36646  10.371  12.024   1.259  0.0012 -0.1408  0.1195
19123W        W36647   2.332  15.049   0.252  0.1849  0.2636  0.1759
19124W        W36648  16.858  16.547  12.891 -0.3015  0.0285  0.1574
19125W        W36649  10.684   1.999  14.261  0.0596 -0.0677 -0.2715
19126W        W36650  12.725  13.350  14.148  0.3732  0.2836  0.0475
19127W        W36651  11.935  15.282  14.427  0.3032 -0.0541  0.0439
19128W        W36652  10.784   2.397   3.410  0.1191 -0.0532 -0.1880
19129W        W36653  14.983  13.034   4.213  0.2420 -0.0750 -0.2396
19130W        W36654  12.712  13.561  11.797  0.2885  0.1359 -0.0705
19131W        W36655  16.147   8.408  10.603 -0.1701 -0.0700  0.0885
19132W        W36656   9.299  12.436   3.997  0.1558  0.0879  0.0096
19133W        W36657  10.601  14.180  12.582  0.1289 -0.0326 -0.0963
19134W        W36658   7.068  10.433  12.748 -0.4124 -0.1454  0.1337
19135W        W36659  17.277  18.139   0.575  0.1930 -0.1588  0.0361
19136W        W36660   3.420  10.701   6.152  0.3149 -0.1724  0.4009
19137W        W36661   8.397   9.054  15.129 -0.2236  0.3757  0.0653
19138W        W36662   2.355   8.728  12.708 -0.0769  0.3777 -0.2607
19139W        W36663   2.451   1.366   3.812 -0.1518  0.5709  0.1145
19140W        W36664  17.025   2.466   2.807  0.0511 -0.1789 -0.1505
19141W        W36665   8.715   6.973   1.670  0.2581 -0.0621  0.1150
19142W        W36666  10.809   4.556   0.282 -0.1829  0.3349 -0.0173
19143W        W36667   7.919   5.267  11.000  0.3484 -0.0411  0.0655
19144W        W36668   1.526  15.490  16.038 -0.0330 -0.0016 -0.4128
19145W        W36669   7.861   5.973  13.749  0.5359 -0.0652  0.0282
19146W        W36670   2.551  17.608  11.769  0.0426  0.0150 -0.2097
19147W        W36671   2.602  16.732   3.277 -0.0567 -0.2333 -0.2386
19148W        W36672   1.128   3.862  15.895  0.2955 -0.2117  0.0116
19149W        W36673   7.973   8.189   3.027 -0.0098  0.1546 -0.0084
19150W        W36674   5.802   7.416   1.462 -0.2105 -0.0176  0.2872
19151W        W36675  12.333  14.950  12.172 -0.2493  0.0697  0.0800
19152W        W36676  10.060  17.029  12.085 -0.0004 -0.0994 -0.0110
19153W        W36677  10.513  14.826  15.882 -0.1292 -0.0364  0.1484
19154W        W36678   3.764  12.393   5.033 -0.1246  0.0025  0.0263
19155W        W36679   7.990  14.858   4.290  0.0705 -0.1269  0.0873
19156W        W36680   2.038  17.262  15.588 -0.0307 -0.2218  0.2766
19157W        W36681  11.014   7.320  15.903  0.0138  0.0224  0.0273
19158W        W36682   9.789  16.923   2.104  0.3527 -0.1412  0.1976
19159W        W36683   2.847   6.905  11.840  0.0838 -0.0854 -0.1007
19160W        W36684   7.186  12.647   5.155 -0.0619 -0.0024 -0.2389
19161W        W36685   4.936  12.680  14.838 -0.0132  0.1593  0.1822
19162W        W36686  17.456   7.976  13.619 -0.0523  0.0418  0.1070
19163W        W36687   7.378  11.803   5.710 -0.0972  0.1648 -0.0807
19164W        W36688  17.767  11.842   1.258 -0.2867  0.2903 -0.2173
19165W        W36689  11.883  15.532  11.161 -0.1622  0.1190  0.0660
19166W        W36690   0.832   3.541   3.497  0.1874 -0.2548  0.3796
19167W        W36691  16.712   6.234  14.068  0.0162  0.0812 -0.1671
19168W        W36692   9.539  14.741   2.452 -0.0412  0.2054 -0.1364
19169W        W36693   7.040  14.528   1.547  0.0156  0.0392 -0.0858
19170W        W36694  18.025   9.731  13.357 -0.0408  0.0815  0.0559
19171W        W36695   7.532  17.842  14.874 -0.3931 -0.2888 -0.0087
19172W        W36696  17.825  13.638   5.296  0.1228  0.2303 -0.0633
19173W        W36697   5.649   1.935   3.833  0.0621 -0.1674 -0.2039
19174W        W36698   7.327  14.686  11.056 -0.0834 -0.0830 -0.1492
19175W        W36699  17.429   7.975   0.189 -0.1161  0.0249  0.0580
19176W        W36700  10.895  13.665   0.639  0.0341  0.4260 -0.2683
19177W        W36701   6.266  15.654  13.758 -0.2224 -0.1186 -0.1664
19178W        W36702   4.784  15.887   4.693  0.1669 -0.4154  0.0151
19179W        W36703   4.353   0.521  14.554 -0.1352 -0.0906  0.2198
19180W        W36704   3.508   9.184  12.665  0.1466 -0.3872  0.0210
19181W        W36705  15.090   9.614   4.436 -0.3486  0.0624 -0.3051
19182W        W36706   8.795  15.930  11.592  0.1330 -0.2768  0.1340
19183W        W36707  17.552  17.126  14.293  0.1748 -0.3949 -0.0568
19184W        W36708   2.066   9.635   2.745 -0.0420 -0.1632 -0.1535
19185W        W36709   1.476  10.954  15.750 -0.1239 -0.1010  0.2348
19186W        W36710  15.340  17.886   2.841  0.0504  0.0233 -0.0450
19187W        W36711   3.897  16.350  11.703 -0.0579 -0.0422 -0.1170
19188W        W36712   8.965  12.345   0.391 -0.1096  0.2837  0.0303
19189W        W36713  16.994   0.210   2.499  0.0092 -0.1650 -0.3031
19190W        W36714  11.458   9.067   3.175  0.3659 -0.0252 -0.0431
19191W        W36715  10.339   8.690   0.980  0.1355 -0.1148  0.2312
19192W        W36716  13.580   0.494   1.999 -0.1553 -0.1527 -0.2483
19193W        W36717   1.617  15.157   0.828  0.1858  0.1428  0.3326
19194W        W36718   4.038  12.791  15.355 -0.0583  0.1614  0.0580
19195W        W36719  14.610  16.586  14.987  0.0359  0.0027  0.4147
19196W        W36720   3.062   8.634   0.959  0.1163  0.2216  0.0161
19197W        W36721   0.092   3.567   2.145  0.0527  0.1269  0.2654
19198W        W36722   3.897   9.995  13.625 -0.1315 -0.1829 -0.1309
19199W        W36723  17.747  10.101  13.577 -0.0616 -0.0576 -0.2543
19200W        W36724  13.386  12.479   0.404 -0.0060  0.2042 -0.0366
19201W        W36725   1.408  15.477   2.728 -0.0958  0.0035  0.0419
19202W        W36726  17.096  14.188   0.297  0.1336  0.3510  0.0352
19203W        W36727   7.685  12.400   1.036 -0.2330 -0.0064  0.5371
19204W        W36728   2.382  15.269  14.853  0.1252 -0.1786  0.1400
19205W        W36729   4.852  16.620   3.186 -0.0623  0.0074 -0.1307
19206W        W36730  16.271  15.297   0.692 -0.1110  0.0968 -0.0906
19207W        W36731   8.352  13.486  14.080  0.4507  0.1699 -0.0156
19208W        W36732   1.081   0.777  11.303 -0.1192 -0.0952 -0.0976
19209W        W36733   0.940  14.971   2.071 -0.1561  0.3529 -0.0646
19210W        W36734   9.393   4.331  13.698 -0.0219 -0.1197 -0.0875
19211W        W36735   3.657   0.875  11.319 -0.3925 -0.0529  0.0492
19212W        W36736  15.736   4.033  14.640  0.1650 -0.0399 -0.1213
19213W        W36737  13.162   1.710  12.854 -0.1073  0.1978  0.0432
19214W        W36738   9.276   6.327  11.203 -0.0126 -0.3394 -0.0480
19215W        W36739   3.097   2.321   0.784  0.2094 -0.0928 -0.2057
19216W        W36740   2.153   7.610   4.462 -0.0587 -0.0778 -0.2357
19217W        W36741  12.934   0.417   5.084  0.0174  0.0131 -0.2623
19218W        W36742   7.806  11.952   0.750  0.2276 -0.2740  0.1713
19219W        W36743   8.867  17.432   2.797  0.0160 -0.0848 -0.0092
19220W        W36744   9.946   7.792  14.376 -0.1168 -0.0272  0.2690
19221W        W36745  11.950   7.747   2.611  0.1569 -0.0096 -0.1993
19222W        W36746  14.668  10.994  12.150  0.1150 -0.0648 -0.0427
19223W        W36747   4.108   3.884   3.918  0.0918  0.0380 -0.0435
19224W        W36748   3.227   3.357   0.657  0.4567 -0.0987  0.2281
19225W        W36749   8.111   1.713   0.358 -0.0393 -0.1568 -0.0911
19226W        W36750  12.283   0.603   1.655  0.0921 -0.1178  0.2431
19227W        W36751  11.898  16.711  12.156 -0.0596  0.0731 -0.3865
19228W        W36752   6.101   9.690  14.948  0.0133 -0.2702 -0.1315
19229W        W36753  15.714  14.252  12.124 -0.3190  0.0004 -0.1684
19230W        W36754   8.408  16.453   4.107  0.1025  0.1243 -0.0102
19231W        W36755   9.623   9.091   3.678  0.0197  0.0920  0.0923
19232W        W36756   5.408  15.690  13.952  0.1747 -0.1993  0.1021
19233W        W36757   4.368   8.180   4.899  0.2321  0.0645  0.0680
19234W        W36758   0.021   0.717   3.990 -0.2343 -0.1144 -0.1748
19235W        W36759   3.734  10.059  15.395  0.1785 -0.3102 -0.0211
19236W        W36760  18.064  13.835  11.421 -0.2623 -0.1816  0.1607
19237W        W36761   6.163  17.881  12.113 -0.0105  0.4234 -0.0565
19238W        W36762  15.118  13.989  14.403  0.2160  0.2114  0.1007
19239W        W36763   0.415  14.001   1.046  0.3681  0.0991 -0.0866
19240W        W36764  10.022  14.605   2.285 -0.2647  0.1282 -0.3472
19241W        W36765   6.668   8.434   3.741  0.1617  0.0511 -0.2351
19242W        W36766   5.156   4.260  13.919  0.0207  0.2125 -0.2237
19243W        W36767  13.701   4.515  12.706 -0.4871 -0.2452  0.1186
19244W        W36768  12.105   6.174   5.285  0.1945  0.0381  0.1193
19245W        W36769   9.022  14.968  14.597  0.1994  0.0686  0.3034
19246W        W36770   5.103  13.767  13.923  0.3437  0.2109 -0.2178
19247W        W36771   5.194   8.423  10.802  0.0232 -0.0104  0.1457
19248W        W36772  17.126   3.801   0.825 -0.0718  0.1897 -0.0850
19249W        W36773   2.620   9.843   3.936  0.0575 -0.1408  0.0315
19250W        W36774  12.551  12.697   1.226 -0.0336 -0.0486  0.1344
19251W        W36775   3.788  17.406  10.804  0.4090  0.1739  0.0156
19252W        W36776   6.187  14.481   2.659 -0.1581  0.0856  0.1713
19253W        W36777  15.761   3.612  15.390 -0.3416 -0.0241 -0.1352
19254W        W36778   9.509   9.811   3.540  0.0219  0.2617 -0.2330
19255W        W36779  17.322  16.210   2.519  0.2492  0.0459 -0.1890
19256W        W36780   0.796   1.274   2.921  0.2184 -0.3822  0.0514
19257W        W36781   7.472   8.335   1.242  0.2628  0.0991  0.0169
19258W        W36782  15.864  10.720   0.204 -0.0607  0.1135  0.1830
19259W        W36783  11.539  16.244   3.124  0.0940 -0.0645  0.1074
19260W        W36784   9.755   3.372   0.674 -0.0221  0.1725 -0.0790
19261W        W36785   3.572   0.279   4.203 -0.1455 -0.3579  0.0318
19262W        W36786   4.664  13.090   5.904  0.1927 -0.2550  0.2690
19263W        W36787   4.071  12.925  11.654  0.1947 -0.2319  0.3601
19264W        W36788   3.793  16.752   4.399  0.4398 -0.0744  0.3118
19265W        W36789   6.485  13.975   3.824  0.4913 -0.1639  0.0375
19266W        W36790  10.912   7.247   4.594 -0.6234  0.1468  0.1140
19267W        W36791  17.556   8.808   1.123  0.1933 -0.0339 -0.0806
19268W        W36792   4.805   5.984   2.043 -0.1616 -0.1459 -0.0724
19269W        W36793   4.001  15.975   3.417  0.3600 -0.0695 -0.2534
19270W        W36794   5.035   9.461   0.713 -0.3388  0.1020 -0.4367
19271W        W36795  16.813   4.112   4.425  0.0768  0.0877 -0.0828
19272W        W36796   6.923  14.940  14.544 -0.2322 -0.3547 -0.0550
19273W        W36797   0.872   1.166  11.517  0.0968  0.0206 -0.0402
19274W        W36798  13.575  15.995   0.373 -0.5254 -0.0499 -0.1499
19275W        W36799   6.669   7.219  11.593 -0.1728 -0.0280 -0.3172
19276W        W36800  11.806  10.375   1.205 -0.0816  0.1169 -0.0856
19277W        W36801  14.774  10.716  12.554 -0.1364  0.1238  0.1056
19278W        W36802   0.455  15.782  12.609 -0.0309  0.0553  0.2150
19279W        W36803   4.407   5.279  15.184 -0.3312  0.1391  0.0354
19280W        W36804  13.254  12.243   3.232 -0.1102 -0.1004  0.1363
19281W        W36805   4.329  16.890   3.814 -0.1902 -0.0723 -0.0109
19282W        W36806  17.584  14.154   3.714 -0.4946  0.3534 -0.1243
19283W        W36807   9.545  17.447   3.434  0.0315  0.2438 -0.2047
19284W        W36808   4.662  17.954   0.815 -0.1806  0.1102  0.1642
19285W        W36809  13.785  17.046   4.025 -0.0497  0.0307  0.0086
19286W        W36810   9.569  12.581   2.839  0.2354 -0.3274 -0.0588
19287W        W36811   4.521   6.366  12.820 -0.0072  0.0219  0.0810
19288W        W36812   4.775   0.773  14.894  0.2704 -0.0257 -0.0660
19289W        W36813   5.925   8.378  12.280 -0.1892  0.2040  0.0606
19290W        W36814   5.680   9.947  13.011  0.1818  0.1723  0.2676
19291W        W36815   0.359  12.367  13.254  0.0257 -0.0687  0.0168
19292W        W36816  10.950  10.238   2.766 -0.1322 -0.0318 -0.3706
19293W        W36817  14.845   2.113  12.985  0.0225 -0.1211  0.2481
19294W        W36818  14.363   2.804   3.244 -0.2026  0.1081  0.2579
19295W        W36819  16.317   1.766   4.417  0.2807  0.4410  0.1096
19296W        W36820  14.089  17.692   2.043  0.2550 -0.0110  0.2054
19297W        W36821  14.361  16.714  11.686  0.0318 -0.1508 -0.0256
19298W        W36822   3.152  13.623  14.624 -0.0902  0.0190 -0.2423
19299W        W36823   5.205  17.055   3.811 -0.4031 -0.1404  0.1063
19300W        W36824   6.666  17.636   2.356 -0.0232 -0.1169  0.0298
19301W        W36825  17.404   7.463   2.700  0.3165  0.1462  0.1643
19302W        W36826   9.903  13.444  15.925  0.1318 -0.2919 -0.1617
19303W        W36827   2.598   9.831  13.868 -0.1414 -0.0637 -0.1528
19304W        W36828   7.242  15.839   1.988 -0.1129  0.2324 -0.1988
19305W        W36829   0.907  17.777  14.585 -0.0815  0.0694 -0.0886
19306W        W36830   9.601   9.453  11.785  0.3373 -0.0639  0.3139
19307W        W36831  16.151   6.599   5.024 -0.0757  0.1054  0.4631
19308W        W36832   4.638  11.254  11.272  0.0603  0.0111 -0.1271
19309W        W36833   4.767  17.023  14.456  0.1039 -0.0102  0.0760
19310W        W36834  12.528   0.278   2.388 -0.1291 -0.0197  0.0599
19311W        W36835  14.673   7.129  14.640 -0.2175 -0.0223  0.2896
19312W        W36836  16.360   9.913  15.839  0.0630 -0.0634  0.0103
19313W        W36837  17.425   7.672  15.324  0.2591 -0.2348  0.3324
19314W        W36838   6.691  16.576  12.297 -0.2423  0.0381  0.2559
19315W        W36839  13.300  15.850  11.839 -0.0375  0.0798  0.0691
19316W        W36840   1.505   4.704  11.339 -0.2753  0.0560  0.2655
19317W        W36841  17.117   8.771  13.369  0.2113 -0.1877 -0.1825
19318W        W36842  13.943  12.755   3.084  0.3061  0.1643  0.3782
19319W        W36843   1.557   5.613  13.167 -0.1806  0.2032 -0.1003
19320W        W36844   3.161   8.336   1.747 -0.0198 -0.2025 -0.0213
19321W        W36845  14.396  15.271  15.229  0.1968  0.1521  0.0954
19322W        W36846   5.375  15.741   0.994  0.2436  0.1495  0.1088
19323W        W36847   1.481   0.575   4.451  0.1641 -0.0131 -0.1213
19324W        W36848   8.236  12.367  10.993  0.1346 -0.3234 -0.0942
19325W        W36849  12.505  16.107  15.240  0.0307 -0.3107 -0.1604
19326W        W36850  12.134   2.361   1.931 -0.2897  0.3126 -0.0790
19327W        W36851   0.987   5.790  15.033 -0.1365  0.6795  0.0346
19328W        W36852  10.979   0.709  13.859 -0.2175  0.0393  0.0309
19329W        W36853  13.002   5.239  12.716  0.0477 -0.0714  0.0377
19330W        W36854   5.459   5.118   3.409  0.2562 -0.3532 -0.1639
19331W        W36855   6.684  11.191  11.451 -0.2140 -0.0544 -0.0079
19332W        W36856   8.157   6.699  13.113  0.5528 -0.0067 -0.0264
19333W        W36857  15.713   1.135   3.693  0.0547  0.0095 -0.1107
19334W        W36858   0.802   8.842   4.921 -0.1776  0.0055 -0.1665
19335W        W36859  10.321   8.257   0.660 -0.0059  0.1913  0.2204
19336W        W36860   5.380  10.997  13.189  0.3185  0.0488  0.1938
19337W        W36861   1.382   8.375   3.065 -0.0810  0.1978 -0.1179
19338W        W36862   2.585  11.896  11.861  0.3791 -0.1587 -0.2789
19339W        W36863  14.772  10.879   0.995  0.0852  0.0306 -0.0651
19340W        W36864  15.236   5.142  11.801 -0.1608 -0.2336 -0.2120
19341W        W36865   3.678   9.382  11.130  0.2743  0.1273 -0.1019
19342W        W36866   2.063   6.973  13.363  0.0080 -0.0985 -0.0741
19343W        W36867  12.987  10.825   1.243 -0.1481  0.0706 -0.0264
19344W        W36868  17.601  15.715  15.427  0.0653  0.0810 -0.3766
19345W        W36869   3.054   1.599   4.313  0.3556 -0.1991  0.2194
19346W        W36870  16.142   3.945   3.714  0.1180 -0.0714 -0.0464
19347W        W36871   6.700  15.700  14.524  0.3999 -0.0664  0.2276
19348W        W36872   5.261   2.273  11.087 -0.3844 -0.0260  0.1955
19349W        W36873  12.182   6.170   2.697  0.1963 -0.0195  0.0184
19350W        W36874  15.376   4.840  12.359  0.0952  0.0199  0.2619
19351W        W36875   1.973  10.773  12.498 -0.4197  0.2816  0.0685
19352W        W36876   9.499  13.326   2.246 -0.2192 -0.3537  0.1381
19353W        W36877  17.679   7.550   3.158  0.1865 -0.0713  0.1990
19354W        W36878   7.527   7.018   0.674  0.1409 -0.1646 -0.1503
19355W        W36879   8.089   8.380   4.395 -0.2722 -0.0060  0.1307
19356W        W36880   4.249   5.921  12.999 -0.2227  0.1088 -0.1472
19357W        W36881   5.234  16.351  13.445  0.1251 -0.2873 -0.0951
19358W        W36882   6.626  12.126  15.301  0.1896 -0.1452 -0.2081
19359W        W36883   0.572   0.136   0.480 -0.0948 -0.0739 -0.1964
19360W        W36884   9.802   6.266  15.638  0.1725  0.0523  0.0134
19361W        W36885   9.582   1.357  13.621 -0.0297 -0.2129 -0.3678
19362W        W36886  17.185   9.535  11.615  0.0392 -0.4237  0.1121
19363W        W36887   6.798  10.576   4.104 -0.2981 -0.1467 -0.2257
19364W        W36888   1.833   6.025   0.489  0.0551 -0.2025  0.1383
19365W        W36889   3.799   4.086  15.277  0.6504  0.0218  0.0165
19366W        W36890   0.294   7.348   2.764  0.1618 -0.0213 -0.3309
19367W        W36891   0.237   1.169  13.182 -0.0823 -0.2507 -0.1165
19368W        W36892   0.569   3.483   3.961  0.0878  0.0995 -0.1408
19369W        W36893  11.795   2.763   3.894 -0.1055  0.1104  0.0629
19370W        W36894  10.425   6.731  13.620  0.2374  0.1473  0.0576
19371W        W36895  10.811  17.218   3.134  0.0384  0.1214  0.1550
19372W        W36896   6.405  16.093  12.434  0.2152 -0.0894  0.1337
19373W        W36897   7.088  17.626  14.728  0.2769  0.0217  0.0797
19374W        W36898  18.077  16.521  14.552 -0.0833 -0.0719 -0.2321
19375W        W36899   4.595   9.751  12.681 -0.3684 -0.0191  0.0878
19376W        W36900   4.009   3.711   2.500  0.0144  0.1726  0.1157
19377W        W36901  14.980  15.693  15.522 -0.0436 -0.0040 -0.1921
19378W        W36902  13.940  13.040  15.421 -0.0691 -0.1132 -0.1119
19379W        W36903   7.186   7.773  14.690 -0.1025 -0.0003  0.0483
19380W        W36904   3.062  15.304  13.097  0.0215 -0.1974 -0.0993
19381W        W36905   2.554   9.209   3.261 -0.0681  0.0102  0.0260
19382W        W36906   2.634   0.699   0.577  0.0512 -0.0417  0.0199
19383W        W36907  15.109   5.992  15.465 -0.0103 -0.1591  0.1185
19384W        W36908  15.793  13.925   3.327 -0.4011 -0.3117  0.2686
19385W        W36909   0.350   2.303  11.825  0.1077  0.2852  0.2257
19386W        W36910   4.830   4.151   1.409 -0.4238  0.0784 -0.0766
19387W        W36911   4.890  15.373  12.503  0.2711  0.4413  0.0099
19388W        W36912  15.188  17.773   1.711 -0.1040  0.0584  0.1472
19389W        W36913  14.960  17.466   5.023 -0.0274 -0.0321 -0.1419
19390W        W36914  11.089  10.407   4.416  0.1223  0.2015  0.0792
19391W        W36915   7.619   6.571  13.910  0.0295 -0.0595  0.1676
19392W        W36916   9.456   4.128  14.840 -0.0708  0.0890  0.3448
19393W        W36917   1.387  12.577  14.047  0.1374  0.3335 -0.3606
19394W        W36918  13.437   3.289   4.640  0.0922 -0.3018 -0.1207
19395W        W36919  16.311  17.278  15.861 -0.0407  0.1037  0.1718
19396W        W36920   2.589   8.741   0.613 -0.2546 -0.1041 -0.2592
19397W        W36921   8.621  11.422   0.761 -0.1076 -0.2013  0.0599
19398W        W36922  12.917   4.167  14.697 -0.1023 -0.0856 -0.0611
19399W        W36923   7.229   9.999   4.787  0.1078 -0.2103  0.0538
19400W        W36924  15.963   2.218   1.379  0.0232  0.0502 -0.1279
19401W        W36925   5.309   2.953   0.282 -0.3633 -0.0326  0.2072
19402W        W36926   8.730  16.638  10.908 -0.2531  0.0913 -0.0535
19403W        W36927  12.066   6.438   0.414  0.2108  0.2747 -0.2364
19404W        W36928   5.569  14.297  15.550  0.0930  0.0483  0.0094
19405W        W36929  12.630  16.191  12.097 -0.0070  0.2658  0.0192
19406W        W36930   9.754   1.328  11.472  0.0062  0.2598  0.1593
19407W        W36931  16.580  13.552   4.389 -0.0195 -0.0073  0.1162
19408W        W36932   6.779  13.712   0.678 -0.1654 -0.1163  0.1479
19409W        W36933  15.133   1.185   0.380 -0.1482  0.1780 -0.1185
19410W        W36934   0.950  17.282  11.041 -0.3141 -0.0734  0.5331
19411W        W36935  15.628   9.480   2.386  0.0664 -0.0626 -0.1461
19412W        W36936  15.392  16.712  13.029 -0.0087  0.0535 -0.0869
19413W        W36937  17.630   7.853   0.613 -0.2470 -0.1555 -0.2061
19414W        W36938  14.922  14.666  13.620 -0.1420 -0.1637 -0.3178
19415W        W36939  18.020   1.385  12.815  0.0183  0.0103 -0.0063
19416W        W36940   3.139  16.205  11.366 -0.0062  0.0940 -0.1155
19417W        W36941   2.707  13.828   4.585 -0.1048 -0.0723 -0.0573
19418W        W36942   0.895   7.104   0.228 -0.2765 -0.0231  0.3216
19419W        W36943  12.300   6.358  14.293  0.1101  0.2759 -0.0023
19420W        W36944   3.977   0.258  12.998 -0.0328  0.1701  0.1448
19421W        W36945   1.418   4.456  15.224 -0.3027  0.1601 -0.0832
19422W        W36946  12.969  14.896   1.592 -0.0954  0.0926  0.0813
19423W        W36947   7.305   1.208  15.804 -0.3793  0.0716 -0.0499
19424W        W36948   8.568   0.511  11.624  0.2352 -0.0454 -0.0222
19425W        W36949   2.847  13.111   3.906  0.0601  0.0870  0.0905
19426W        W36950   8.014  17.894  12.045 -0.1243 -0.1076 -0.1733
19427W        W36951  10.593   9.251  15.415 -0.2987 -0.1005 -0.0405
19428W        W36952   9.673   9.662  14.599  0.2553 -0.1320  0.0813
19429W        W36953  17.720   3.414  14.652  0.0657  0.2666  0.0563
19430W        W36954  15.143  14.203  14.981  0.1447  0.0873  0.2677
19431W        W36955  14.389   9.831   3.018  0.1332 -0.1456 -0.3493
19432W        W36956   8.770   9.721  15.602 -0.0102  0.0917 -0.3018
19433W        W36957  11.574  13.980  14.621  0.2235 -0.1397 -0.2125
19434W        W36958   6.341  11.624   4.683  0.0488  0.2434  0.0606
19435W        W36959  14.420   0.823  14.002  0.1156  0.1500 -0.2290
19436W        W36960  15.233   2.069   2.270  0.1690  0.1554  0.2304
19437W        W36961   7.984   8.517  14.119 -0.0331  0.0463  0.1342
19438W        W36962   3.109   5.820  14.678  0.0069  0.0705 -0.0272
19439W        W36963  11.138   0.996   5.111  0.2015  0.2300  0.2048
19440W        W36964   9.049   6.199  14.165 -0.0805 -0.0541 -0.1098
19441W        W36965  17.977   9.097   1.089  0.1362  0.0748 -0.3384
19442W        W36966  18.054  12.369   4.861 -0.0317  0.1460  0.1653
19443W        W36967   1.617   6.314   3.230 -0.1804  0.1502  0.2915
19444W        W36968  17.012   6.665  14.253 -0.1354  0.2424 -0.0428
19445W        W36969   1.065   0.945  10.808  0.1940 -0.0681  0.0302
19446W        W36970   5.435   3.225   4.315  0.3306 -0.2314  0.0561
19447W        W36971  11.201   8.098   2.329  0.0963  0.1088 -0.1660
19448W        W36972  12.609   3.692   3.879 -0.0501  0.3814  0.0393
19449W        W36973   7.063  13.757   2.681 -0.0342 -0.1277  0.1542
19450W        W36974   9.566  13.377  15.098 -0.2578  0.0570  0.1718
19451W        W36975   3.114   0.367  13.153  0.1141 -0.4687  0.0238
19452W        W36976   3.724   3.989  11.707 -0.3632  0.1252 -0.1298
19453W        W36977  16.922   5.878   3.998 -0.2442  0.0613  0.1315
19454W        W36978   7.939   2.473  14.696  0.2941  0.3656 -0.1494
19455W        W36979  10.396  14.546  14.672 -0.2663  0.1119 -0.0897
19456W        W36980   7.822   0.550   2.487 -0.0467  0.2117 -0.3064
19457W        W36981  11.414   6.323  13.095 -0.0950  0.1452 -0.1373
19458W        W36982   2.353  11.941   3.019  0.2105  0.0570 -0.2429
19459W        W36983   6.810   0.705   3.705 -0.0290 -0.3397 -0.1489
19460W        W36984  13.728   9.694   0.976  0.2215  0.0968 -0.1589
19461W        W36985   6.513  12.521  10.106  0.1334 -0.0933 -0.0649
19462W        W36986  11.199   5.338   3.865 -0.0091 -0.4877 -0.2523
19463W        W36987   4.289  13.990   2.817  0.1262 -0.1299 -0.0663
19464W        W36988  12.531   6.335   4.427  0.3685  0.0317 -0.1737
19465W        W36989  17.894  17.170  12.284 -0.0090 -0.1007 -0.4316
19466W        W36990  17.418   4.145   2.105  0.3239 -0.1578  0.0445
19467W        W36991   6.222  15.654  14.773  0.0028  0.0898  0.0920
19468W        W36992  12.159   1.890   4.865  0.0923 -0.0483 -0.0727
19469W        W36993   0.698  11.177   3.153  0.0977 -0.0271  0.4750
19470W        W36994   2.549   8.576   1.135  0.0262 -0.0066 -0.0704
19471W        W36995  14.987  16.902   5.024 -0.2769  0.0710 -0.0036
19472W        W36996   6.879   8.202   2.871  0.0709 -0.1655 -0.1212
19473W        W36997  15.769   3.725  11.373  0.0517 -0.1154  0.1871
19474W        W36998  17.681   4.842  13.272  0.2277  0.2182  0.1151
19475W        W36999  16.360  10.780   0.876  0.0064  0.1792 -0.3730
19476W        W37000   2.492   0.522   1.538  0.0158  0.2428  0.1729
19477W        W37001  14.666  11.307   4.724  0.0051  0.2272 -0.4804
19478W        W37002  16.951   5.864  14.941  0.2501  0.1718 -0.0124
19479W        W37003   5.902  18.026   1.103 -0.0790 -0.2046  0.2076
19480W        W37004   8.982   4.376  13.963 -0.4340 -0.2050 -0.1905
19481W        W37005  14.723   5.364  12.440  0.1358 -0.1025  0.1801
19482W        W37006   3.802  12.746  13.482 -0.0077  0.0266  0.2031
19483W        W37007   9.280  12.802   3.630 -0.2843  0.2334 -0.0282
19484W        W37008  16.936  10.387   1.786 -0.1165 -0.2468 -0.2074
19485W        W37009   5.601   7.883  14.503 -0.0491  0.0409  0.0891
19486W        W37010   7.401   7.817   2.200 -0.2109 -0.1604 -0.0141
19487W        W37011   8.369   4.413   2.235  0.0704 -0.0440 -0.1698
19488W        W37012  10.240  11.146   2.736 -0.0335 -0.0725 -0.1064
19489W        W37013   3.397   7.127  15.881 -0.1258 -0.0981  0.1003
19490W        W37014  13.585  15.647  13.846  0.2354 -0.0833 -0.3097
19491W        W37015   1.158  17.100   1.072 -0.2189  0.1080  0.0647
19492W        W37016  11.006  17.887  14.424 -0.0072  0.0161  0.2049
19493W        W37017   7.266  13.971   3.406 -0.1787  0.1344 -0.0054
19494W        W37018  12.040   0.385  14.418 -0.2422  0.2565 -0.0475
19495W        W37019   6.738  15.702   2.787 -0.2504  0.2800  0.0694
19496W        W37020   3.430   8.696  12.626 -0.0444 -0.0030 -0.1513
19497W        W37021   2.248   7.231   0.951  0.1108  0.0477  0.3253
19498W        W37022   6.246  16.386   3.848  0.1650 -0.2638 -0.1262
19499W        W37023  12.424  15.099  15.269  0.1292 -0.0198  0.0907
19500W        W37024  13.738  16.970  12.736  0.2594 -0.0627  0.0538
19501W        W37025  13.636  12.850  13.234 -0.0868 -0.2376  0.2173
19502W        W37026   5.048   0.097   0.499  0.0908  0.0211  0.0997
19503W        W37027  17.319   5.732  15.301  0.1161  0.0124 -0.0362
19504W        W37028  15.376   6.995   2.676 -0.0403  0.1965 -0.0811
19505W        W37029   8.432  10.554  11.579 -0.0384 -0.2741 -0.2869
19506W        W37030   4.778  16.200   2.919  0.2265  0.0972  0.1740
19507W        W37031   9.397   0.378  15.462 -0.0362 -0.2699 -0.1414
19508W        W37032   5.963  14.058   2.908  0.0765 -0.3320  0.3398
19509W        W37033  16.497   1.444  12.976  0.0124  0.2622 -0.2548
19510W        W37034  16.356   7.913  14.679 -0.0712 -0.1717  0.2863
19511W        W37035   6.358   6.686   1.733  0.0898 -0.3611  0.1572
19512W        W37036  14.392   6.811  11.855  0.2570  0.2040 -0.4699
19513W        W37037   3.087  14.736  14.897  0.0591  0.2522 -0.2711
19514W        W37038  11.809  15.798   2.014 -0.1382  0.0724  0.1277
19515W        W37039  13.259  17.543   4.601  0.0938 -0.2705  0.0955
19516W        W37040   0.117  10.172  13.487 -0.1341 -0.0978  0.0780
19517W        W37041  17.351  16.117   0.979  0.0864  0.3165 -0.2947
19518W        W37042  18.120   3.565  10.278 -0.0695  0.1454  0.3548
19519W        W37043   9.035   0.987  11.928  0.1401 -0.0390 -0.1353
19520W        W37044  12.968  18.135   2.524 -0.0322  0.2802  0.1523
19521W        W37045   8.774  15.157   0.445 -0.0515 -0.0393  0.2185
19522W        W37046  11.825   7.696  13.065 -0.1250 -0.0810 -0.2059
19523W        W37047   9.294  12.515   1.663 -0.0914  0.2160  0.1244
19524W        W37048   6.040  15.079  14.997  0.3971  0.1885 -0.2470
19525W        W37049   7.493  15.877  12.094  0.0684 -0.1060 -0.0470
19526W        W37050  16.936   9.936  11.431  0.1267  0.1009  0.4238
19527W        W37051   4.429   1.421   0.537  0.2578  0.0546  0.0129
19528W        W37052   2.977  11.200  11.522 -0.0480  0.2583  0.2931
19529W        W37053  12.107  12.463   0.047  0.1237 -0.0007  0.1979
19530W        W37054   5.992  16.563   4.834  0.0422  0.3933  0.0359
19531W        W37055  15.807   6.807   3.199  0.2448  0.0074 -0.2404
19532W        W37056   0.792  11.827  15.533  0.0813  0.1882 -0.0918
19533W        W37057   6.603   5.597   0.935 -0.2502  0.0077 -0.0741
19534W        W37058   0.666  17.294   5.116  0.2469 -0.0504  0.0060
19535W        W37059   4.715   5.717  15.927  0.3838  0.1427 -0.0679
19536W        W37060  13.064   6.837  14.694 -0.1241  0.0841  0.2164
19537W        W37061  14.297   5.232   3.213  0.3947 -0.0140 -0.0492
19538W        W37062   9.661  17.836   1.684  0.1280  0.2478  0.0421
19539W        W37063   0.508  14.977   3.495  0.1145 -0.1067 -0.0986
19540W        W37064  14.809   0.116  15.028  0.0805  0.1322 -0.1396
19541W        W37065   1.396  13.303   4.374  0.0849  0.0875 -0.0622
19542W        W37066   5.604   9.418   3.789 -0.1920  0.0235 -0.0040
19543W        W37067  10.445  16.393   3.862  0.1123 -0.2296  0.0847
19544W        W37068  17.322   0.978   0.704 -0.4093  0.2378 -0.2075
19545W        W37069   8.835   6.814  13.530 -0.0347 -0.1548  0.0876
19546W        W37070   4.829  18.085  11.310 -0.2813 -0.1714  0.3164
19547W        W37071   8.856  15.564   0.131  0.0510 -0.1277 -0.0597
19548W        W37072   7.894   5.098  12.515 -0.2856 -0.0818 -0.1162
19549W        W37073   0.086  11.995  12.417  0.0397 -0.1520  0.1929
19550W        W37074  16.954  16.558  14.183 -0.1423  0.0877  0.1131
19551W        W37075   8.708  16.885   4.333  0.0036 -0.0870  0.0198
19552W        W37076   6.640   7.977   5.498 -0.0617  0.1644 -0.1435
19553W        W37077  13.266   1.426  14.506 -0.1048  0.0847 -0.1408
19554W        W37078   4.598   8.177   2.905  0.0398 -0.2045 -0.0393
19555W        W37079   3.254  10.365   3.489  0.1738 -0.2273 -0.2030
19556W        W37080   1.893   9.814  11.239 -0.0486 -0.2926 -0.1954
19557W        W37081  10.557   7.253  12.149 -0.4042  0.1223  0.0635
19558W        W37082   6.125  10.402   1.107 -0.1191  0.0538 -0.0007
19559W        W37083   2.824   1.992   5.542 -0.0251 -0.0437  0.0715
19560W        W37084   3.192  14.108   3.099 -0.0566  0.2610 -0.0323
19561W        W37085   9.069  13.017   3.224 -0.0610  0.2591  0.3668
19562W        W37086  14.691   6.320  11.182 -0.1809 -0.1291 -0.1433
19563W        W37087   6.783   2.726  12.658 -0.0698 -0.0359 -0.1168
19564W        W37088  10.106   7.101   1.115 -0.0789 -0.3461  0.1460
19565W        W37089  10.640  15.036  12.214  0.1829  0.0554 -0.0853
19566W        W37090  17.554   7.031   3.026  0.0767 -0.2447  0.1537
19567W        W37091   2.579   0.147   3.133  0.1586  0.1007 -0.2334
19568W        W37092   6.753  15.733  12.409 -0.1057  0.0454 -0.1336
19569W        W37093   3.617   4.533  13.182  0.4005  0.2731  0.0501
19570W        W37094   0.537   6.267  13.954 -0.0993 -0.2104  0.2942
19571W        W37095   2.127   3.248   2.991 -0.1844 -0.2211  0.0473
19572W        W37096  12.115  14.324   0.424  0.0102 -0.2532 -0.0885
19573W        W37097   2.959   3.306   4.101  0.3767 -0.0028  0.1081
19574W        W37098  16.186   5.271   4.292 -0.1608  0.0819 -0.2583
19575W        W37099   1.119  11.626   2.019  0.1958  0.1373 -0.0071
19576W        W37100   1.530   1.496   5.267  0.1615  0.0488  0.0916
19577W        W37101   3.011   9.833   3.537 -0.3324 -0.0627 -0.0364
19578W        W37102   5.224   2.731   0.836 -0.1652 -0.2664  0.4166
19579W        W37103   6.857  14.854   0.431  0.3154 -0.0093  0.5274
19580W        W37104  13.119   6.723   3.680 -0.1235 -0.2257  0.0185
19581W        W37105  12.650  13.806   3.743  0.1559 -0.0567 -0.0233
19582W        W37106   9.942  11.654   3.319  0.0546  0.1069 -0.2001
19583W        W37107   7.183  16.835  14.969 -0.2159  0.2088 -0.1061
19584W        W37108   3.773  13.317  11.775 -0.1176  0.1689 -0.1874
19585W        W37109  14.926   7.154  12.966 -0.1388  0.1999  0.3220
19586W        W37110   8.368  13.150  12.069  0.3002  0.0127 -0.0845
19587W        W37111  11.877   3.784  15.332  0.4244 -0.0906  0.1738
19588W        W37112  13.388   7.457   4.002 -0.1276 -0.1294  0.0203
19589W        W37113  13.954  12.921   2.348 -0.2173  0.0860 -0.1120
19590W        W37114   7.103   6.181  15.661  0.0982  0.1434  0.0681
19591W        W37115   3.048   9.223   2.848 -0.0809  0.3797 -0.1204
19592W        W37116   8.125  18.076  12.780 -0.1381 -0.2009 -0.1934
19593W        W37117  12.999   5.310   5.863 -0.1545  0.1609  0.1093
19594W        W37118   8.634  16.690   0.549 -0.0207  0.1450  0.0544
19595W        W37119   7.219   6.090   2.207 -0.0188 -0.1334 -0.0775
19596W        W37120   3.494   8.131  15.482  0.3425 -0.0313  0.0450
19597W        W37121  17.922   5.422   0.012  0.2629  0.0709 -0.0436
19598W        W37122  11.058   2.735  14.190  0.0401  0.1707  0.0499
19599W        W37123  14.825  13.816  12.306 -0.1808  0.1072 -0.0985
19600W        W37124   3.944   1.094   2.044 -0.3100 -0.0131 -0.2175
19601W        W37125  16.926  14.036   5.353 -0.1068 -0.1663 -0.0944
19602W        W37126   8.468   6.158   4.147  0.3358  0.3029  0.1597
19603W        W37127  15.588   6.639  12.260  0.0125 -0.3114 -0.0010
19604W        W37128  17.536   2.479  13.269  0.2212 -0.1769  0.1223
19605W        W37129   5.042   2.738  10.895  0.4083  0.0216 -0.0624
19606W        W37130   5.708   1.368  15.805 -0.2968 -0.0589 -0.3390
19607W        W37131   1.610  12.272   0.030 -0.1793 -0.0467  0.1962
19608W        W37132   5.513  12.760  11.551 -0.1593  0.1594  0.1253
19609W        W37133  16.953  12.931  14.708  0.1184  0.2457  0.2058
19610W        W37134  10.052  17.124   1.740  0.0101  0.2143 -0.0465
19611W        W37135  16.485   0.408   2.554  0.0367 -0.1736 -0.0200
19612W        W37136  11.296  13.344  13.004  0.1962  0.0174  0.0269
19613W        W37137  16.250  10.881   1.964 -0.0032 -0.0257 -0.0481
19614W        W37138  13.382   4.436   0.177  0.3504 -0.3083  0.2680
19615W        W37139  16.203   5.525   0.608 -0.4027 -0.0212 -0.0767
19616W        W37140   8.060  11.860  12.459  0.2442 -0.1345 -0.1955
19617W        W37141   0.480   1.348  12.769 -0.2723  0.0581  0.0216
19618W        W37142   5.169   5.532  12.356 -0.1934  0.2085 -0.1269
19619W        W37143   7.388  16.430   2.672  0.3573 -0.0835 -0.1259
19620W        W37144   6.031  11.585  13.762 -0.4753  0.0736  0.0234
19621W        W37145  17.851  13.025  15.829 -0.1416 -0.1692  0.2175
19622W        W37146  11.572   6.165   0.865 -0.2347 -0.2705 -0.1220
19623W        W37147  17.869  13.691   2.129  0.0252 -0.2438 -0.0148
19624W        W37148  15.679   0.351   0.130 -0.0277 -0.1571 -0.1766
19625W        W37149   3.104   4.837  11.449  0.1123  0.4048  0.0247
19626W        W37150  10.684  15.475   2.174 -0.0108  0.2877  0.0932
19627W        W37151  15.577  11.083   0.786  0.1995 -0.3937 -0.3843
19628W        W37152  11.729  17.090  15.614  0.1353  0.1340  0.1069
19629W        W37153   4.488   5.550  14.736  0.0836 -0.1818  0.2274
19630W        W37154  10.550  15.673  12.030 -0.4124 -0.2156  0.1065
19631W        W37155  11.544  10.515   3.508  0.0818 -0.4185  0.0972
19632W        W37156  10.892  13.703   2.241  0.1674 -0.1196  0.1440
19633W        W37157  11.787   5.633  11.614 -0.1118 -0.0353 -0.0649
19634W        W37158  14.683   8.295  12.764 -0.1896 -0.1228  0.1255
19635W        W37159   6.434  11.688  14.985  0.0321 -0.0649  0.0535
19636W        W37160   8.395   6.081  11.148  0.0614 -0.0108 -0.0722
19637W        W37161   4.329   1.592   1.762  0.0665  0.0896  0.0175
19638W        W37162   1.904   5.273   3.576  0.1757 -0.0495  0.0275
19639W        W37163   5.464  11.361   0.328 -0.1015 -0.2048  0.0624
19640W        W37164   3.562   0.667   3.784  0.1885  0.0946  0.0914
19641W        W37165   2.603  14.021   2.834 -0.0544 -0.2640  0.2201
19642W        W37166  11.361  12.506   0.625 -0.1433  0.0723 -0.1409
19643W        W37167  18.011   2.079   4.173 -0.2238 -0.3236  0.1797
19644W        W37168  15.810  17.704  11.844 -0.1199  0.3267  0.1857
19645W        W37169  12.433   0.451  14.664  0.0372 -0.0232  0.0912
19646W        W37170   5.475  14.079  13.335  0.2524  0.2629 -0.1469
19647W        W37171   8.759   7.398  13.022  0.1403 -0.1527 -0.1658
19648W        W37172  18.006   2.011  12.631 -0.0581  0.1245 -0.2753
19649W        W37173   5.367   1.849  15.142 -0.2083 -0.2543 -0.0775
19650W        W37174   0.936  17.380   2.509 -0.2026  0.0753  0.0754
19651W        W37175  10.084  16.065   3.910 -0.1265  0.0357 -0.0963
19652W        W37176  14.882  15.522   2.131  0.0274 -0.1929  0.0588
19653W        W37177   8.703  17.721  11.127 -0.1056 -0.0413  0.1499
19654W        W37178  11.334  13.173  15.522  0.2726  0.4058  0.0039
19655W        W37179   3.370   8.322  11.453 -0.0929  0.1085  0.0600
19656W        W37180  10.087   2.751  13.527 -0.0275 -0.2637  0.0547
19657W        W37181  11.087  15.404  15.333 -0.0253 -0.3048  0.0468
19658W        W37182  12.126  16.101   6.493  0.0226 -0.0429  0.0341
19659W        W37183  12.662  14.702   1.226  0.0475  0.1351 -0.1450
19660W        W37184  18.098  10.779  15.681 -0.0585  0.0948  0.0253
19661W        W37185  18.020   3.824   3.999  0.0231  0.2453  0.1983
19662W        W37186  14.448  11.630   1.560 -0.1371  0.1586  0.2096
19663W        W37187  12.571  11.588   4.891  0.0383 -0.0104 -0.1061
19664W        W37188   0.005  16.687   1.164  0.0505  0.1174 -0.4025
19665W        W37189   6.519   9.061   2.276 -0.4212 -0.1106  0.1139
19666W        W37190  10.366   8.843  11.892 -0.2026 -0.0473 -0.2100
19667W        W37191  17.411   1.985   3.459  0.0361  0.1226  0.2567
19668W        W37192   8.912   8.495  13.123 -0.3292  0.2923 -0.2440
19669W        W37193  13.637  10.790  10.861  0.1613  0.1641 -0.1081
19670W        W37194  12.653  16.703  10.906  0.2123 -0.0880  0.0877
19671W        W37195  17.270  13.330   1.666  0.0934  0.4510  0.0053
19672W        W37196  16.112  13.944  12.449 -0.2019 -0.1991  0.0088
19673W        W37197  12.351  11.512   2.537 -0.0953 -0.0302 -0.0743
19674W        W37198   2.463   5.255   0.579  0.1128 -0.1620  0.2120
19675W        W37199  10.445   9.792   3.522 -0.2905  0.1641 -0.0891
19676W        W37200   5.499  11.048  14.161 -0.0276  0.1473  0.1627
19677W        W37201   2.365   4.901  11.896 -0.0759  0.2333  0.2985
19678W        W37202   7.541   2.286   0.083  0.1320 -0.0825 -0.0413
19679W        W37203  12.985  13.426   3.423  0.0274  0.1045  0.0186
19680W        W37204   9.556   6.739  15.691 -0.4167  0.0314  0.1221
19681W        W37205   2.007  11.995   5.133  0.2059 -0.1286  0.0042
19682W        W37206  13.027   0.103  13.419  0.0593  0.0516 -0.1001
19683W        W37207   1.714  12.422   2.121  0.1400 -0.0885  0.6786
19684W        W37208   0.516   9.217   2.648  0.1157 -0.1827 -0.2043
19685W        W37209   4.137   3.083  11.868  0.1094 -0.3503  0.0775
19686W        W37210   4.160   2.548  11.998 -0.0083  0.1446 -0.1082
19687W        W37211   6.290  12.708  15.149 -0.1006 -0.1611  0.2085
19688W        W37212  12.220   8.965  15.522 -0.2190 -0.5171  0.2701
19689W        W37213   4.326  17.052  12.029 -0.0497 -0.2045  0.0442
19690W        W37214  10.748   3.373  10.975 -0.0025 -0.0766 -0.0148
19691W        W37215  13.587  17.332  15.152  0.0002 -0.1952  0.0803
19692W        W37216   6.946   9.270   3.726  0.1745  0.0233 -0.0797
19693W        W37217   4.978   1.268   0.771  0.1773 -0.2312 -0.1950
19694W        W37218   3.191  11.083  13.218  0.1008 -0.0671 -0.0804
19695W        W37219   4.106  10.339   2.503 -0.0346  0.0945 -0.1077
19696W        W37220   6.157  15.334  11.194  0.1478 -0.1316 -0.1728
19697W        W37221   1.917   5.429   2.993  0.0783  0.1671 -0.1689
19698W        W37222   2.864  11.251  15.258  0.3673 -0.1733  0.1234
19699W        W37223   1.275  12.994   3.912  0.0319  0.5075 -0.0212
19700W        W37224   0.619   8.139   2.927 -0.3602  0.0737 -0.1548
19701W        W37225   6.864  14.015  12.753  0.0575  0.1932 -0.0661
19702W        W37226  17.511   0.544   0.312  0.0099 -0.0161  0.2153
19703W        W37227   2.669   5.339   2.018 -0.3879 -0.1047  0.0164
19704W        W37228  13.997   9.955   1.908 -0.0637  0.1990 -0.2478
19705W        W37229   9.173  17.451   2.407  0.0795  0.0230 -0.3129
19706W        W37230  13.170   9.140  12.555  0.1098 -0.3943 -0.0095
19707W        W37231  16.692   1.529  16.056  0.2418 -0.1268 -0.0448
19708W        W37232  14.886  12.040   3.356  0.1593 -0.0778 -0.0303
19709W        W37233  15.526   0.892   1.444 -0.3237 -0.1131  0.0562
19710W        W37234  14.288   3.250   1.575 -0.0909  0.0056 -0.0345
19711W        W37235   7.050   1.948  15.342 -0.1629  0.0738 -0.1148
19712W        W37236   7.477   0.323  11.004 -0.1045  0.0808  0.0057
19713W        W37237   1.748  11.289  16.006 -0.0218 -0.1623  0.3733
19714W        W37238   8.801  13.780  12.881  0.0134 -0.1801 -0.0131
19715W        W37239  12.449   3.106   4.531 -0.1436  0.1908  0.1094
19716W        W37240  14.088   6.488   2.867  0.2133 -0.3470  0.1994
19717W        W37241   4.692   7.046   4.393  0.3652  0.0727 -0.0538
19718W        W37242   1.187  17.989   3.249  0.0699  0.0478  0.0568
19719W        W37243   9.269  17.208  11.729 -0.1627  0.1186  0.1983
19720W        W37244   4.799  17.164  12.462  0.0771  0.1287  0.1044
19721W        W37245   4.252   6.852   3.087  0.0575 -0.0757 -0.0893
19722W        W37246   1.410  17.238   2.154 -0.3940 -0.0647 -0.0460
19723W        W37247  11.678   0.763  14.413 -0.0887 -0.1921 -0.3924
19724W        W37248   5.636   7.767  15.471 -0.1223  0.1842  0.1850
19725W        W37249  15.749  10.063   3.956  0.2909  0.0456 -0.0314
19726W        W37250  17.398  16.612  15.544  0.0919  0.0305 -0.0952
19727W        W37251   6.984  11.382  13.877 -0.0062  0.0007  0.1835
19728W        W37252   9.404  17.800   0.570  0.0513 -0.2689 -0.1720
19729W        W37253  10.883  12.044   3.110 -0.1603 -0.1487 -0.0696
19730W        W37254   4.102   0.313  10.625  0.0252 -0.0908  0.1586
19731W        W37255  10.772  15.457   0.285  0.0448  0.1263 -0.3457
19732W        W37256  16.450   4.383  15.435 -0.0873 -0.0559  0.0428
19733W        W37257  17.129  14.790   2.709  0.2243 -0.1847 -0.1748
19734W        W37258   5.647   5.110  14.171  0.1620  0.0479  0.0065
19735W        W37259   5.112  12.003   2.637  0.1654 -0.3390  0.4893
19736W        W37260   9.791   9.838  12.484 -0.1194  0.0172 -0.0222
19737W        W37261  14.418  13.756  11.935  0.0582 -0.0902 -0.0195
19738W        W37262  11.450   6.067  14.663  0.2585  0.0255 -0.1683
19739W        W37263   0.530  15.858  14.598  0.0834  0.0579 -0.0281
19740W        W37264   1.508  15.325   1.702 -0.0936 -0.0052  0.0189
19741W        W37265   8.391   3.079   2.024  0.1198 -0.1821  0.1053
19742W        W37266   7.952  17.320   3.847  0.0780 -0.0611 -0.1713
19743W        W37267  10.785  13.853  14.003  0.2234 -0.0952 -0.1993
19744W        W37268   0.082   5.633  15.740  0.2254 -0.2738 -0.3356
19745W        W37269   3.010   0.072  12.769 -0.2586  0.0660 -0.0121
19746W        W37270  11.759  17.828   4.458  0.1192 -0.0300  0.0691
19747W        W37271  10.165   6.849  12.119  0.1283  0.3344  0.1360
19748W        W37272   3.533   9.195  11.597 -0.0398  0.0878 -0.0426
19749W        W37273  12.910  16.924   5.038 -0.2080  0.0005  0.0226
19750W        W37274  11.484   9.963   2.917  0.0307  0.0067 -0.1972
19751W        W37275  11.975  14.095  12.772 -0.2110  0.0202 -0.2724
19752W        W37276   8.099  12.852  12.393  0.3930  0.0008 -0.0572
19753W        W37277   4.867  15.716   3.197 -0.0103  0.0247 -0.3293
19754W        W37278  12.132   2.471   1.422 -0.0707 -0.0825  0.0902
19755W        W37279   8.085  15.592   3.272  0.0028  0.3192 -0.1369
19756W        W37280  13.552   7.815   4.343 -0.2573  0.0905 -0.3166
19757W        W37281   4.072  11.568  13.392 -0.1676 -0.0460 -0.3143
19758W        W37282   6.875  10.168  13.349 -0.3129 -0.1108  0.1356
19759W        W37283   3.586  12.302   0.538 -0.0201 -0.0367  0.0581
19760W        W37284  18.052   0.317   4.789 -0.3565 -0.1243  0.1464
19761W        W37285  14.005  11.172   4.000 -0.1018 -0.1930 -0.0763
19762W        W37286  17.485  15.834  12.267 -0.1345  0.2763 -0.4474
19763W        W37287  17.021   2.088  11.295  0.2049  0.0460 -0.1041
19764W        W37288   2.573  13.055  15.176 -0.0241  0.2379  0.1320
19765W        W37289  16.783   1.753   2.556  0.2552 -0.1191  0.0448
19766W        W37290  12.062  11.790   3.515 -0.0766  0.0476  0.1407
19767W        W37291   8.784   5.682   3.223  0.1358 -0.1000 -0.0234
19768W        W37292  15.834   5.536  13.556  0.0384 -0.2360 -0.0197
19769W        W37293   6.753  11.803   4.977 -0.0763  0.0149 -0.4819
19770W        W37294  10.745   5.518   3.160 -0.2287 -0.0834  0.2660
19771W        W37295   0.468   6.017   4.509 -0.1183 -0.0178  0.1112
19772W        W37296  17.491   2.819   4.458  0.1459 -0.1531  0.0909
19773W        W37297   8.914  15.918   1.586 -0.0717  0.1683 -0.2817
19774W        W37298   7.818   9.560   2.935 -0.0885  0.0370  0.0585
19775W        W37299   7.108   7.882   4.630  0.1755  0.0454  0.1271
19776W        W37300   9.099  11.669  14.173  0.1187 -0.0627 -0.1434
19777W        W37301  15.074  12.514   3.291 -0.2396 -0.2643 -0.2552
19778W        W37302   5.096   8.402   3.013 -0.2119 -0.3713  0.0447
19779W        W37303   1.540   6.193   5.015 -0.4469 -0.2649  0.0270
19780W        W37304  15.742   6.869  12.706  0.4163 -0.2306 -0.1833
19781W        W37305   8.602   6.754  10.970  0.0108 -0.0720  0.1317
19782W        W37306   3.160  17.718  15.109  0.0346 -0.0294  0.4180
19783W        W37307   8.009  17.956  13.247 -0.0920 -0.0038  0.1677
19784W        W37308   6.305   0.798   2.498 -0.2518 -0.0160  0.2434
19785W        W37309   0.111  15.177  11.798  0.0550 -0.0178 -0.0105
19786W        W37310   1.646  11.948  14.158 -0.0198  0.0094 -0.0957
19787W        W37311   3.141   5.002   0.245 -0.0546 -0.0889  0.1987
19788W        W37312   1.498   7.426  13.260 -0.4554  0.0656 -0.1390
19789W        W37313   2.071   9.123  13.566  0.4521  0.0995  0.1058
19790W        W37314  16.263   5.982   3.420 -0.3316  0.1137 -0.0458
19791W        W37315   2.161  10.801   3.985 -0.1486 -0.0687 -0.4163
19792W        W37316   6.490  14.206  12.488 -0.1324 -0.3109 -0.5847
19793W        W37317   9.696  17.293  13.558 -0.0802 -0.0122 -0.2702
19794W        W37318   8.793   8.986   1.977 -0.0234  0.1552  0.0247
19795W        W37319  10.860  12.516   2.392 -0.0546  0.1168  0.0784
19796W        W37320  16.279  13.777   3.085 -0.1641 -0.2168  0.2067
19797W        W37321  11.916   3.452  12.002  0.0903 -0.1666  0.1500
19798W        W37322   4.920  14.921  10.585 -0.2893 -0.0564 -0.1271
19799W        W37323  10.696   2.173   2.926 -0.0840  0.2199  0.2278
19800W        W37324   2.478   1.520   4.306 -0.0299  0.4589 -0.0613
19801W        W37325   6.470  12.755   2.859 -0.0545  0.3448 -0.0897
19802W        W37326  13.218   7.031   2.287 -0.3161 -0.0218 -0.0697
19803W        W37327   0.634   5.612  12.174  0.1028 -0.1341 -0.0639
19804W        W37328  11.560   4.511   3.582 -0.1191 -0.1656  0.0418
19805W        W37329  17.398  11.194  15.980 -0.0266  0.1099  0.0135
19806W        W37330   3.661   2.175  14.893 -0.3115  0.1417  0.2182
19807W        W37331  11.864   0.701   2.671 -0.3254 -0.1046  0.1256
19808W        W37332  16.724   0.869   5.112  0.0851  0.0095 -0.1296
19809W        W37333  15.127   9.606  10.867 -0.0865  0.3655 -0.0429
19810W        W37334  11.773  16.599  15.829 -0.2517  0.2698  0.2040
19811W        W37335   1.082   1.990  11.739  0.0186  0.3477 -0.1302
19812W        W37336   1.870  17.805  15.650 -0.1377  0.1584 -0.1457
19813W        W37337  12.915   0.674  13.568 -0.0952 -0.0861  0.1314
19814W        W37338  16.539   9.917  12.414  0.2875  0.2022  0.1985
19815W        W37339  13.446  13.000   0.156  0.0217  0.1221 -0.0195
19816W        W37340   9.562   3.826   0.561 -0.3266  0.0464  0.0072
19817W        W37341   9.454   1.931   2.997 -0.0099  0.0073  0.1573
19818W        W37342  11.357  17.664  11.506 -0.0102  0.1556 -0.2436
19819W        W37343   9.098   6.085   3.341  0.2117 -0.2438  0.1244
19820W        W37344  17.133  10.719  14.751  0.2371 -0.0178 -0.2477
19821W        W37345   7.483   4.696   2.747 -0.0712  0.1341  0.1558
19822W        W37346   1.314   2.064  14.421 -0.0093 -0.2261  0.0792
19823W        W37347   1.254   0.087   2.823  0.2289 -0.0368  0.1297
19824W        W37348  17.820  15.879   3.253 -0.3634  0.0310 -0.2173
19825W        W37349  15.575  18.024   1.524  0.2620 -0.1312  0.0557
19826W        W37350  14.915  14.049   1.173  0.2138 -0.1154  0.1827
19827W        W37351  12.368  16.904  14.805  0.1403  0.0523 -0.2409
19828W        W37352   7.794  12.045  13.828  0.3303 -0.0941  0.0953
19829W        W37353  17.690  12.348  13.827 -0.0895 -0.0320  0.3849
19830W        W37354   3.602  14.577   0.875  0.0028  0.1932  0.2091
19831W        W37355   0.350   9.961   3.234  0.0167  0.1092  0.0860
19832W        W37356   4.763  12.213  13.013  0.1864  0.0887 -0.2448
19833W        W37357   3.899   4.013   3.471 -0.1369  0.0620  0.0280
19834W        W37358   1.100  17.003  12.395  0.0827  0.1289  0.3638
19835W        W37359   6.715   3.810  14.905  0.0699 -0.1856 -0.2012
19836W        W37360  14.210   7.497   1.025 -0.0509  0.1880 -0.0025
19837W        W37361  12.803  17.748   4.543  0.1063 -0.0697  0.2019
19838W        W37362   9.035   1.803   3.626  0.2356 -0.1956 -0.2889
19839W        W37363   7.287   8.708   1.513 -0.2089 -0.0676  0.2637
19840W        W37364   8.604   6.592   0.022  0.0768  0.0002 -0.0070
19841W        W37365   3.868   5.394  13.703  0.2457  0.0566  0.0322
19842W        W37366  11.762  12.269   0.452  0.0634  0.0263 -0.0693
19843W        W37367   9.263   8.298   3.927  0.1588  0.1972 -0.2645
19844W        W37368  12.193   7.752  13.426 -0.1688 -0.1573  0.0813
19845W        W37369   5.057   0.641   3.628  0.1323 -0.1446  0.0928
19846W        W37370   1.331  13.457  14.458  0.1927  0.0596  0.2688
19847W        W37371   1.959  11.168   4.472  0.0244  0.0539  0.0627
19848W        W37372  13.081   6.615  13.525  0.1759  0.3298  0.1750
19849W        W37373   6.453  14.801  14.323 -0.1936 -0.0695  0.1604
19850W        W37374   2.063  12.151  11.947 -0.2697  0.2302 -0.0040
19851W        W37375  18.035   5.455   4.836  0.2426 -0.1158  0.3814
19852W        W37376  17.600   5.602  13.740  0.1945  0.2653 -0.1019
19853W        W37377  17.718  10.891  11.446 -0.4029  0.3403 -0.0197
19854W        W37378  14.468  17.145   1.088  0.3005 -0.1203  0.0435
19855W        W37379   8.959   5.910   2.271 -0.2919  0.2442  0.1269
19856W        W37380  16.695   3.064  11.609  0.1151 -0.0617 -0.2208
19857W        W37381   6.294  13.499   2.042  0.1459  0.0345  0.1308
19858W        W37382  12.861  15.708   0.332  0.0646 -0.0385  0.0378
19859W        W37383   0.499   9.659   2.216  0.1078 -0.1833 -0.0367
19860W        W37384  12.647   5.209  13.311 -0.2205 -0.2469 -0.1042
19861W        W37385   5.681   0.173  15.606  0.0030  0.1865  0.1403
19862W        W37386   8.309   7.699   3.892  0.0143 -0.1715  0.0002
19863W        W37387   2.095  17.157  13.498 -0.2369  0.0012 -0.3419
19864W        W37388  13.382  12.549   3.640  0.4512  0.0914  0.0910
19865W        W37389  13.022   1.317   0.940  0.3253  0.1403  0.1713
19866W        W37390   9.838   2.196   2.314  0.1631 -0.0520  0.1440
19867W        W37391  16.512  11.895   4.565 -0.1783 -0.1643 -0.0072
19868W        W37392   0.382   9.748  11.918 -0.3981 -0.0321 -0.0006
19869W        W37393   1.442   5.550  12.337  0.1994  0.0244 -0.1981
19870W        W37394  13.991   3.258   3.054 -0.0952 -0.1315 -0.1133
19871W        W37395   0.119  17.766   2.374 -0.2329  0.0326 -0.2276
19872W        W37396   7.115   5.646  15.335  0.1784 -0.0433 -0.2001
19873W        W37397   4.919  13.537  12.583 -0.0776  0.2574 -0.1771
19874W        W37398  13.682   5.047   2.807  0.0671  0.1233  0.0224
19875W        W37399   6.039  14.745  11.346 -0.2381  0.0461 -0.3208
19876W        W37400   9.097   4.642  13.012  0.3004  0.0923 -0.0695
19877W        W37401  11.991  16.291   2.298  0.3597 -0.0504 -0.2919
19878W        W37402  13.435  12.765   0.810 -0.0997  0.0947  0.0038
19879W        W37403   7.881  15.182   1.923  0.1762 -0.0360 -0.1174
19880W        W37404   4.932   8.748  14.766  0.1143  0.1607 -0.2084
19881W        W37405  17.231   8.631  12.899  0.0755 -0.1450  0.0269
19882W        W37406   1.208  16.375   0.432  0.0964 -0.0901 -0.1966
19883W        W37407   3.172   7.340  11.579  0.1793 -0.1179 -0.2046
19884W        W37408  14.862   3.225  14.408  0.0948 -0.1935  0.1522
19885W        W37409   0.847   5.062   4.531 -0.1427 -0.1183 -0.3055
19886W        W37410   3.286   0.915   1.314 -0.3438  0.0771 -0.1747
19887W        W37411  15.541   2.604  12.781  0.0573  0.3545  0.1357
19888W        W37412   2.972  15.295  14.904 -0.0610 -0.1422 -0.2830
19889W        W37413   3.374   7.991   0.369  0.0343 -0.0428  0.0564
19890W        W37414  15.483   6.374   0.694 -0.1711  0.1459 -0.1348
19891W        W37415  10.153  14.659   3.555 -0.0484  0.1411  0.1041
19892W        W37416  14.832   9.592  12.072 -0.1098 -0.0662  0.0655
19893W        W37417  13.998   1.306   0.942 -0.2484 -0.1586  0.0500
19894W        W37418   6.139  15.848  11.070 -0.0984 -0.2348  0.0251
19895W        W37419   2.427  10.636   5.179  0.0840  0.1321 -0.3589
19896W        W37420   1.648   9.323   2.974 -0.0180  0.2701 -0.0551
19897W        W37421  16.112   0.195  14.246 -0.0218  0.0726  0.4988
19898W        W37422   4.908  10.769   0.624 -0.1245 -0.1911  0.3692
19899W        W37423   2.255   1.016  14.676  0.0221  0.0746  0.1859
19900W        W37424   2.395   0.982  15.630 -0.1443 -0.1718 -0.0282
19901W        W37425   7.657  12.992  15.461 -0.1530 -0.0665  0.0347
19902W        W37426  17.691  14.057   1.149 -0.1743  0.1099  0.0684
19903W        W37427   6.812  10.164  12.378 -0.1322 -0.1944 -0.0297
19904W        W37428  17.613  10.786  14.631  0.0966 -0.0336 -0.1233
19905W        W37429  16.259  10.601  15.926 -0.0447  0.3470 -0.2527
19906W        W37430   9.367   3.217   2.435 -0.2229  0.1422  0.1187
19907W        W37431   6.622   2.393  13.131  0.1598 -0.0195 -0.0094
19908W        W37432   5.732  11.151   1.323 -0.3022  0.0609 -0.0465
19909W        W37433   0.106  15.166   1.758 -0.0421  0.1256  0.0487
19910W        W37434   9.595  12.298   5.539  0.1384 -0.2190 -0.0552
19911W        W37435  11.757   8.785   1.491 -0.2411  0.1464  0.1978
19912W        W37436  10.680  16.153  14.380 -0.0793  0.1194 -0.3692
19913W        W37437   3.600  12.707  15.123  0.1020  0.2958 -0.1329
19914W        W37438  10.698  14.886   2.961  0.0883 -0.0082 -0.2202
19915W        W37439  17.413   1.212   0.256 -0.1162  0.0168  0.0495
19916W        W37440  10.932   8.822   4.932 -0.3743  0.1984 -0.1905
19917W        W37441  14.430   5.930   2.142  0.2844  0.3104  0.3397
19918W        W37442  16.876  13.332   2.856  0.0173  0.1594 -0.0116
19919W        W37443   0.304   7.254  10.275  0.2614 -0.0138 -0.0823
19920W        W37444  12.871  14.520   5.352  0.1818 -0.2312 -0.3867
19921W        W37445   7.887  17.216   2.910  0.2353  0.0325  0.1817
19922W        W37446   3.154  13.023  11.599 -0.2951 -0.0913  0.2264
19923W        W37447   2.931  12.535  13.064 -0.2137 -0.2544  0.0243
19924W        W37448  10.909   5.077  11.051 -0.0060 -0.0932 -0.2732
19925W        W37449   8.239   9.714  12.672  0.1049  0.1867 -0.1348
19926W        W37450  14.937  11.371  14.122 -0.0432 -0.3469 -0.2183
19927W        W37451  16.236   1.243  14.850  0.0555  0.2618  0.0545
19928W        W37452  10.200  14.098   0.222  0.0225  0.0600 -0.2392
19929W        W37453  13.324   8.340  11.987  0.2044  0.3329 -0.0817
19930W        W37454   3.923   6.419  11.512  0.0768 -0.4158 -0.3773
19931W        W37455  14.882   6.997   3.024 -0.0180 -0.5620 -0.0961
19932W        W37456   8.926  16.048   0.102 -0.1408  0.0055  0.1156
19933W        W37457   1.795   2.125   4.080  0.1374  0.0527 -0.1369
19934W        W37458   5.267  17.817   2.052  0.0115 -0.0182  0.0484
19935W        W37459  15.018   3.886  15.072 -0.2419 -0.0471  0.1026
19936W        W37460   8.474   8.450  14.469  0.1279 -0.3813  0.0227
19937W        W37461   9.936  16.746   1.499 -0.0853  0.0697  0.2011
19938W        W37462   7.142   2.352   2.455  0.1117 -0.0516  0.1956
19939W        W37463  16.652  13.791  15.162 -0.1661 -0.0432 -0.2579
19940W        W37464   8.661   2.650   1.720 -0.2006 -0.1032 -0.0175
19941W        W37465   2.485  14.775  15.539 -0.2772 -0.0223 -0.0806
19942W        W37466  11.635  10.774   2.655  0.2064  0.2861  0.1509
19943W        W37467  13.695  15.009  11.576  0.3024  0.0010  0.3162
19944W        W37468  16.451   5.976  14.904 -0.3210  0.1176 -0.0877
19945W        W37469   8.075  10.611   2.876  0.1766 -0.1775  0.1438
19946W        W37470   5.447  14.510   3.775 -0.1234  0.0227  0.0801
19947W        W37471  13.053  16.435   4.638 -0.0054  0.1446 -0.1699
19948W        W37472   5.963  14.445  10.381 -0.4070  0.0726  0.0591
19949W        W37473  11.960  17.662   4.863 -0.0181 -0.2203  0.0810
19950W        W37474   6.976   0.912  15.589 -0.1152  0.0087  0.0956
19951W        W37475   1.383   0.574   3.906 -0.2900  0.4305 -0.2462
19952W        W37476  12.620   3.965  15.863 -0.0325 -0.1404 -0.1745
19953W        W37477  16.372  10.459  11.826  0.0207 -0.0202  0.1907
19954W        W37478   3.348   9.959   0.254  0.1739 -0.0052  0.3072
19955W        W37479   1.734   7.703  11.328 -0.2641  0.1420 -0.1049
19956W        W37480   3.784  16.683   0.116 -0.1402 -0.3299  0.1344
19957W        W37481   9.964  11.420   2.417  0.2301  0.2887  0.0844
19958W        W37482   8.086   6.697  12.543  0.0320 -0.2932  0.2018
19959W        W37483   0.569   8.731  14.934 -0.0321 -0.1010 -0.0474
19960W        W37484  11.071   6.533  15.854 -0.0556  0.2139 -0.0790
19961W        W37485  12.809   2.913  13.935 -0.1515  0.0223 -0.1841
19962W        W37486   1.385  17.782  14.794 -0.2237 -0.2707  0.2610
19963W        W37487   2.000   0.074  14.487 -0.0708  0.0331  0.1407
19964W        W37488   1.058   9.386   0.183  0.4900 -0.1563  0.1029
19965W        W37489  14.799   0.655  12.774 -0.0125 -0.4118 -0.0057
19966W        W37490  12.348  16.817   2.609 -0.0449 -0.0101  0.1506
19967W        W37491   8.736  16.904   1.000  0.0193  0.1637 -0.0224
19968W        W37492   4.389  12.745   4.510 -0.0515 -0.1854 -0.4736
19969W        W37493  16.895   8.163  12.156  0.1709  0.1379  0.1645
19970W        W37494   8.749   4.974  15.449 -0.0639  0.0656  0.0414
19971W        W37495   2.922   0.225   2.730 -0.0829  0.0535  0.2166
19972W        W37496  13.424   8.056   2.517  0.1177  0.2785 -0.0586
19973W        W37497   5.652   9.802  11.615  0.0838 -0.1808 -0.1693
19974W        W37498  14.750   8.815  15.368 -0.4651 -0.0324 -0.0281
19975W        W37499  13.900   0.102   1.922  0.0618  0.1630 -0.0528
19976W        W37500   4.384  10.345   2.113  0.0694  0.0555 -0.1264
19977W        W37501  17.084  10.487   4.220  0.2721 -0.2870 -0.1389
19978W        W37502   4.358  12.765  14.605  0.0167 -0.2602 -0.3338
19979W        W37503  17.745  15.182   0.107 -0.1281  0.0221 -0.0177
19980W        W37504  16.340  15.296   1.854  0.0558 -0.1638  0.1084
19981W        W37505   8.641   8.566  13.523 -0.1405  0.1401 -0.0609
19982W        W37506   5.650  12.435  13.773 -0.3408 -0.1160  0.0568
19983W        W37507  14.526   2.815  14.514 -0.3641  0.0472  0.1126
19984W        W37508  13.657   9.432  15.352 -0.0855  0.3090 -0.0547
19985W        W37509  13.169   5.373  11.708 -0.2591 -0.2907 -0.1968
19986W        W37510  15.613   2.196  12.444 -0.0598 -0.0900  0.0622
19987W        W37511  17.405  12.950  14.421 -0.2745 -0.2285 -0.0511
19988W        W37512  16.310   3.028  14.381  0.2283  0.1681  0.0140
19989W        W37513   8.331  11.871   0.825  0.0715 -0.3470  0.1428
19990W        W37514   7.094   4.489  14.738 -0.0506  0.0113  0.2023
19991W        W37515  12.836   4.763  13.800 -0.0221 -0.1046 -0.2086
19992W        W37516   5.499   6.052   1.321 -0.0235  0.2118  0.1574
19993W        W37517  11.234  16.983   3.287 -0.1361  0.2705  0.0533
19994W        W37518  10.020  14.419  11.331 -0.2434  0.0408  0.0506
19995W        W37519  11.728   4.348  15.509  0.2138  0.2181  0.3657
19996W        W37520   0.997  15.652  13.827 -0.0539 -0.0712  0.2091
19997W        W37521  17.712   2.639   2.743  0.1802 -0.2470  0.0425
19998W        W37522  13.333   9.803   4.227  0.3319 -0.2100  0.1110
19999W        W37523   1.575   3.672  11.974  0.2880 -0.1568  0.3744
20000W        W37524   3.762  15.933  15.331  0.0682  0.0784 -0.1782
20001W        W37525   6.368   7.458  11.291  0.2763  0.0246  0.1249
20002W        W37526   5.600  15.311   0.113  0.2757 -0.4464 -0.1129
20003W        W37527   2.249  14.915   2.267  0.2901  0.1343  0.1564
20004W        W37528  18.007   7.530   2.507 -0.1695  0.1706  0.1443
20005W        W37529   2.674   1.769   3.288  0.1436 -0.0573 -0.1987
20006W        W37530  11.487  14.681   5.444 -0.0579  0.1832  0.1047
20007W        W37531   5.866  11.132  13.864 -0.0837 -0.1496 -0.1510
20008W        W37532  16.544   7.467  12.540  0.1888  0.0752 -0.1528
20009W        W37533   0.239   4.664   0.084  0.2630 -0.1346 -0.0847
20010W        W37534   2.861   5.480   0.845 -0.1622 -0.0676 -0.0016
20011W        W37535   6.620  11.702  14.081  0.1848 -0.0964  0.1453
20012W        W37536   2.836   4.203   5.135  0.0481  0.0585  0.2560
20013W        W37537  17.861   6.266   2.201 -0.1539  0.2418  0.3628
20014W        W37538   5.042  15.518  14.269  0.0452  0.1582 -0.0464
20015W        W37539   8.636  12.285   3.230  0.1443  0.1552 -0.0507
20016W        W37540   9.846  13.609  12.770 -0.0938 -0.2981 -0.4570
20017W        W37541  11.485  13.991   0.021  0.1497 -0.3754  0.1964
20018W        W37542   4.101   7.870   4.100  0.2747 -0.1503  0.1775
20019W        W37543   1.354  14.679  12.816 -0.2174  0.2694  0.2928
20020W        W37544   0.047   9.264   3.870 -0.0296  0.3811 -0.0536
20021W        W37545   0.373   2.004  10.306  0.0763 -0.1112  0.3495
20022W        W37546  11.377   6.647  13.915 -0.0042  0.0001  0.2528
20023W        W37547  16.577  12.069   0.587 -0.1472 -0.1608  0.2392
20024W        W37548   6.105   1.226   1.119 -0.3507  0.0502  0.0785
20025W        W37549  13.086   4.642  15.663  0.1355 -0.1394  0.1534
20026W        W37550  14.451  11.143  12.555  0.1718 -0.2653  0.1991
20027W        W37551  15.342  12.055  13.628 -0.0331  0.0937  0.0201
20028W        W37552  15.287  15.198   3.812 -0.0894 -0.0985 -0.2091
20029W        W37553  12.943  14.826   3.606  0.0373 -0.0028  0.0764
20030W        W37554  14.413   5.643  14.051  0.0040 -0.0533 -0.3667
20031W        W37555   3.557   0.354  12.234  0.1194 -0.1481 -0.1585
20032W        W37556   7.147  10.044   5.262  0.1362  0.0335 -0.0042
20033W        W37557  15.994  15.243  13.534  0.0847  0.2806  0.2183
20034W        W37558  11.940  10.979   0.331  0.2480  0.1551  0.0245
20035W        W37559  10.178   8.965   5.904 -0.2271 -0.0482  0.2108
20036W        W37560   5.740   3.320  14.724  0.0888 -0.3525 -0.1634
20037W        W37561   3.432  13.010  15.721 -0.2543  0.0063 -0.0983
20038W        W37562   9.770   5.053   1.583  0.1732  0.3076 -0.0024
20039W        W37563  13.391  15.007  14.929  0.0670 -0.1203 -0.0301
20040W        W37564  15.655   4.430   2.447 -0.1576  0.1226 -0.1554
20041W        W37565   9.305  15.908  12.952  0.0313  0.1760  0.2834
20042W        W37566   5.000   1.455  13.396  0.3566  0.0593 -0.0894
20043W        W37567   0.685  17.206  15.818  0.0460  0.1332  0.1100
20044W        W37568  12.384   2.871   0.685 -0.1907 -0.0569 -0.1945
20045W        W37569   4.225   5.887  14.976 -0.0286  0.3367 -0.0398
20046W        W37570   2.102  13.392   1.237  0.1936 -0.0368 -0.0604
20047W        W37571   9.436  12.829  13.803  0.1084 -0.2260 -0.0835
20048W        W37572   0.652  16.685  14.231  0.5066 -0.0968  0.0383
20049W        W37573  11.185   8.934   2.165 -0.3360 -0.1588 -0.2098
20050W        W37574  14.440   0.078   0.610 -0.1311 -0.4719  0.1820
20051W        W37575   7.089   2.603   0.937  0.2405 -0.0612 -0.3422
20052W        W37576  13.879  14.979   4.840 -0.2890 -0.0396 -0.0089
20053W        W37577   2.549   5.614  13.034 -0.2011  0.0615 -0.1628
20054W        W37578   4.814  17.856   3.520 -0.0623  0.1514 -0.0864
20055W        W37579   7.373  15.857   4.661  0.2132 -0.2041  0.0693
20056W        W37580   9.954  13.620  11.780 -0.0269 -0.2676 -0.0086
20057W        W37581  11.205   5.343   3.354 -0.1915 -0.0487 -0.1581
20058W        W37582  16.879   7.604   5.506  0.2140 -0.0187  0.0198
20059W        W37583   0.136  13.476  14.258 -0.0787  0.1986 -0.0631
20060W        W37584   6.294   0.694   3.540 -0.2271  0.0634 -0.4480
20061W        W37585   0.618  17.717   2.164  0.1394 -0.1428 -0.1844
20062W        W37586   3.222  12.539  14.151  0.2067  0.4309 -0.2201
20063W        W37587  11.883  10.960   4.120 -0.1431  0.2342  0.3180
20064W        W37588  12.564   9.596   2.111  0.1848 -0.0805  0.2353
20065W        W37589  13.373   4.372  11.993 -0.2667 -0.0784  0.1013
20066W        W37590   4.750   1.786  15.902  0.1854 -0.0338 -0.1146
20067W        W37591   0.595   6.890   4.060  0.1816 -0.0003  0.0359
20068W        W37592   7.130   3.420   2.186 -0.1727 -0.1919  0.2321
20069W        W37593  17.365   5.110  11.526 -0.0559  0.1048  0.0336
20070W        W37594  11.992   1.596   4.108  0.1611 -0.0693 -0.0894
20071W        W37595  14.816   1.625   0.535  0.1310  0.0396  0.0042
20072W        W37596  13.613   6.464   0.018  0.1551  0.1368  0.0083
20073W        W37597  14.303   4.406  14.787  0.0858  0.3610 -0.2641
20074W        W37598  14.625   8.130  14.979  0.1321  0.5135  0.1975
20075W        W37599   4.894   8.952   4.913 -0.0005 -0.1112  0.1084
20076W        W37600  13.190   3.327   4.184 -0.1672  0.0777 -0.0501
20077W        W37601   3.698   1.887  10.473 -0.2440 -0.3728  0.3661
20078W        W37602   8.541   2.512  13.469  0.0542 -0.1621  0.0663
20079W        W37603  16.276   3.516  13.595  0.1125  0.2788 -0.1591
20080W        W37604  10.034   5.238  15.411  0.0127 -0.0120  0.0061
20081W        W37605   1.760   6.647  13.689 -0.0007 -0.2409  0.1415
20082W        W37606   1.424   9.202   3.918 -0.0758 -0.0269  0.0447
20083W        W37607   7.702   4.522   1.199  0.2653  0.1926 -0.3413
20084W        W37608   9.390   9.574   3.117  0.1994 -0.2310 -0.0660
20085W        W37609   6.135   7.064   0.648  0.0413  0.0311 -0.0391
20086W        W37610   1.174   2.771  14.940 -0.2206 -0.3818 -0.2178
20087W        W37611   0.357  15.264  12.619  0.0286  0.1679 -0.1964
20088W        W37612   5.952   0.002  14.717  0.1742 -0.4197 -0.1001
20089W        W37613  16.389  11.655  15.255  0.0937 -0.1493  0.1249
20090W        W37614   6.379   4.585  14.017  0.1584  0.3854  0.0514
20091W        W37615  15.145   2.120  11.626  0.0602 -0.3115 -0.0572
20092W        W37616   7.543  12.978   3.180  0.0491  0.0962  0.0038
20093W        W37617   0.458   9.977  15.497  0.2148 -0.1119 -0.1018
20094W        W37618  14.935   8.448   0.297  0.0416 -0.0124  0.1824
20095W        W37619  15.907   4.651  11.699  0.1175  0.1336 -0.1728
20096W        W37620   1.981  10.841  15.399 -0.2819 -0.0258  0.0388
20097W        W37621   9.346   3.342   1.919  0.0431  0.0847  0.1474
20098W        W37622   7.940   6.192  10.998 -0.0603  0.2466 -0.0943
20099W        W37623   7.699  15.542  11.395  0.2244  0.0436  0.1013
20100W        W37624  18.101  18.046   1.966  0.3819  0.0321  0.0433
20101W        W37625  12.730   2.451   1.382  0.1600 -0.3243  0.2578
20102W        W37626   6.393   5.260   3.419 -0.0532 -0.0333 -0.1178
20103W        W37627   0.284   8.859   1.043  0.0165 -0.0975 -0.2298
20104W        W37628  11.939   5.418  14.602 -0.4179  0.1427  0.2412
20105W        W37629   9.782  11.422  15.279  0.3562  0.0257 -0.2241
20106W        W37630   4.595   3.000  15.696 -0.1620  0.1659  0.1095
20107W        W37631   3.543   6.485  11.865  0.0415 -0.0122 -0.0982
20108W        W37632  14.506  15.568   4.164  0.2616 -0.0603  0.2393
20109W        W37633  10.133  16.679   0.457  0.1443 -0.1898  0.0239
20110W        W37634  15.188  12.576   4.783 -0.1065  0.3318  0.1429
20111W        W37635  13.347  13.620   2.752 -0.0214  0.2699  0.1632
20112W        W37636   7.053   8.566   1.115 -0.2416 -0.3191 -0.2414
20113W        W37637   0.312  11.958  13.558 -0.2007  0.0466  0.0403
20114W        W37638   3.629  14.153   3.479  0.2026  0.0289 -0.1035
20115W        W37639  11.514  11.460   4.987 -0.1815  0.1698 -0.1422
20116W        W37640  17.578   8.052  15.008 -0.1546 -0.0754 -0.3162
20117W        W37641  15.576   2.681   0.477  0.1151  0.3379 -0.1290
20118W        W37642   2.386  15.751  13.672 -0.3372  0.2030  0.1033
20119W        W37643   3.803  16.765   5.899  0.0193 -0.0157 -0.1090
20120W        W37644  13.339   4.924   0.120  0.2544 -0.1783  0.2087
20121W        W37645   7.451   2.046   0.967  0.0073 -0.0606  0.0445
20122W        W37646  16.802   8.332   1.436 -0.0752 -0.0420 -0.0241
20123W        W37647   5.785  14.776  12.256  0.1195 -0.0548 -0.0368
20124W        W37648   7.286  16.052   3.633  0.1379 -0.2534  0.1078
20125W        W37649   7.895   4.564   1.671  0.3330 -0.0050  0.0695
20126W        W37650  12.377  16.032   4.607  0.0923  0.0367 -0.0941
20127W        W37651   9.599  16.191   0.922  0.2211  0.0592 -0.0456
20128W        W37652   6.576  10.179  11.464 -0.0796  0.1594 -0.3482
20129W        W37653   3.429   4.048   1.784  0.1447  0.1272 -0.0909
20130W        W37654   2.601  13.702   1.058 -0.2559  0.1072  0.0927
20131W        W37655  17.682   9.216  10.951  0.1827 -0.0858  0.1067
20132W        W37656   1.711   3.927   1.722 -0.1403 -0.0338 -0.1334
20133W        W37657  16.549  11.723  13.253 -0.0715  0.0800 -0.0153
20134W        W37658   9.194   8.926   2.325  0.0823 -0.1129 -0.2018
20135W        W37659  16.714  12.232   4.256 -0.3080  0.0539 -0.1374
20136W        W37660   9.388   0.440  13.537  0.0106  0.1646  0.1116
20137W        W37661   5.649  10.139   0.985  0.0463  0.2960  0.1715
20138W        W37662   0.472   4.282  13.970 -0.3802 -0.1358 -0.0720
20139W        W37663  12.130   0.155   1.410 -0.0592  0.1769 -0.2873
20140W        W37664   6.672   1.790   3.516  0.2081  0.2618 -0.0485
20141W        W37665   3.091   7.764   1.224 -0.1906  0.1327 -0.2892
20142W        W37666   7.956   2.015  14.488  0.2653 -0.0718  0.0178
20143W        W37667  11.431  14.932   5.900 -0.1657  0.1166 -0.0745
20144W        W37668  11.264   9.704  16.036 -0.1426  0.2748  0.0025
20145W        W37669   7.596   0.470  12.612  0.0644 -0.2258  0.0904
20146W        W37670  15.658   2.898  11.920  0.1150 -0.2938  0.1005
20147W        W37671  15.270   4.202   5.408 -0.0835  0.0394 -0.1418
20148W        W37672   5.200   2.715   4.040  0.0703 -0.2338  0.2042
20149W        W37673   3.842  16.406  15.676 -0.0642 -0.0070 -0.0788
20150W        W37674   3.085  13.398   5.621 -0.2852  0.0417 -0.4167
20151W        W37675   4.270  16.373   2.078 -0.1957 -0.2594  0.0124
20152W        W37676   5.396  14.994   0.439 -0.0666  0.0730 -0.2607
20153W        W37677  15.295   0.982  13.868 -0.0853 -0.2041  0.1838
20154W        W37678   1.590  16.191  14.079 -0.0703  0.0359 -0.2929
20155W        W37679   1.187  14.164  11.845 -0.4005 -0.2075  0.1875
20156W        W37680  13.194  14.460   3.359 -0.2462  0.1769  0.2652
20157W        W37681  13.961   1.549   3.468  0.1067 -0.1063 -0.1563
20158W        W37682  10.406  12.452   3.718  0.1025  0.1323 -0.0289
20159W        W37683   7.347   6.573  15.776 -0.3839 -0.2539 -0.0557
20160W        W37684   2.761   5.224   2.467 -0.0955  0.1146 -0.0440
20161W        W37685  17.639   7.628  11.874 -0.1936  0.1352  0.1547
20162W        W37686  11.752  13.505   4.634  0.3506  0.1614 -0.3178
20163W        W37687  14.543   0.071  12.998  0.1549 -0.1897 -0.2188
20164W        W37688   0.456   4.180   5.099  0.2050  0.0656  0.1931
20165W        W37689  16.739  12.247  15.828 -0.0698  0.1502  0.2362
20166W        W37690  12.434   0.740   2.554 -0.0153  0.1147 -0.2095
20167W        W37691   2.303   7.367   1.833 -0.0152 -0.1948 -0.0043
20168W        W37692   0.470  14.386   0.137  0.0097 -0.0422 -0.2993
20169W        W37693  16.548   0.461   0.509 -0.0440  0.3306  0.2606
20170W        W37694   1.654  11.295  15.409 -0.0633 -0.2021 -0.1891
20171W        W37695   1.408   9.639  13.047  0.1149  0.2505 -0.0002
20172W        W37696  17.909   4.907   0.191 -0.0750  0.1281 -0.0246
20173W        W37697   8.754   3.646  11.415  0.1544 -0.1338  0.0296
20174W        W37698  15.258  12.643   1.661 -0.1151  0.1315 -0.4240
20175W        W37699  11.359   5.943   2.141 -0.1878  0.2496  0.0590
20176W        W37700   2.287  10.573   0.816 -0.1700 -0.0193  0.0198
20177W        W37701  13.144   3.634   2.910  0.1308 -0.1595  0.0599
20178W        W37702   3.643   4.365  12.103 -0.0621 -0.1337  0.0015
20179W        W37703   2.305   8.730   3.698  0.5167  0.1596  0.3194
20180W        W37704   6.499   3.151  11.936 -0.1191 -0.3838 -0.0360
20181W        W37705   1.374  10.860   5.188  0.0853  0.0129 -0.1336
20182W        W37706  17.678   1.397  10.603  0.4486  0.2316 -0.2401
20183W        W37707   4.088   2.393   1.731  0.1567  0.2201  0.0090
20184W        W37708  17.729   6.424   0.693  0.1087 -0.0581  0.1240
20185W        W37709   0.228   5.871  12.018 -0.2865  0.0466 -0.0555
20186W        W37710  13.005   9.463  15.756 -0.2423  0.0319 -0.4631
20187W        W37711   3.847   1.781   1.028  0.0297  0.1126  0.1171
20188W        W37712  15.485   0.284  12.743  0.0483  0.0852  0.2066
20189W        W37713  15.231   2.018  15.762  0.0345 -0.0265 -0.2340
20190W        W37714  17.455  12.631  15.114 -0.1947  0.1347 -0.0524
20191W        W37715  16.926   4.675   2.376  0.1946  0.2240  0.0839
20192W        W37716  15.150  17.032   2.299 -0.2263 -0.0993 -0.0270
20193W        W37717  11.146  13.823  14.308  0.1605  0.0289 -0.0130
20194W        W37718   8.359  17.988  11.692 -0.0649 -0.1433  0.0906
20195W        W37719   9.540   0.935  11.814 -0.0145 -0.0232  0.0850
20196W        W37720   2.730   7.011   0.905  0.0555 -0.1352 -0.0970
20197W        W37721  10.506   0.453  14.103  0.3361 -0.0005  0.2669
20198W        W37722   3.448   2.118   1.055  0.1017 -0.1170  0.0340
20199W        W37723  14.013  16.417   4.877 -0.0521  0.1008 -0.0990
20200W        W37724   5.828  13.343   1.896  0.1333 -0.2449 -0.0233
20201W        W37725   2.688   1.471  14.404  0.0952 -0.0330  0.1970
20202W        W37726  10.788  12.689  11.294 -0.0918  0.2063  0.0147
20203W        W37727   2.274  12.837   0.716  0.1256 -0.0605  0.0925
20204W        W37728   9.302   0.242   4.492  0.2806  0.1120  0.3618
20205W        W37729   0.897   8.148   1.612  0.0048  0.1448 -0.2234
20206W        W37730   9.261  12.473   4.935  0.3504  0.0983  0.0748
20207W        W37731   6.641   5.775  12.201  0.0508  0.2884  0.1872
20208W        W37732  12.997   6.114  15.506 -0.2454 -0.2167 -0.0262
20209W        W37733   6.601   9.912   4.602 -0.1058 -0.1093 -0.2294
20210W        W37734  10.579   1.756  12.288 -0.2103 -0.1413  0.1358
20211W        W37735  15.336   4.698  14.784  0.1726 -0.1691  0.2920
20212W        W37736  17.593  11.806   0.145 -0.1855  0.0173  0.1164
20213W        W37737  13.515   6.773   0.380 -0.1857  0.3520  0.2630
20214W        W37738  10.433  17.515  11.579  0.4546 -0.0844  0.1844
20215W        W37739   1.861  12.349  13.954  0.2370 -0.1336 -0.3098
20216W        W37740   1.701   5.122  12.238 -0.1492  0.1007  0.3945
20217W        W37741   9.101  10.282   2.637  0.1556  0.2901  0.0340
20218W        W37742   4.513   2.379   4.654  0.0219 -0.3089  0.0241
20219W        W37743  15.899   0.393   3.365 -0.1280 -0.0292  0.0864
20220W        W37744  12.456  16.791   4.004 -0.1831 -0.1457 -0.1153
20221W        W37745   1.643   2.928   0.523  0.0246  0.4596  0.0762
20222W        W37746  13.473   2.754   5.364 -0.2113 -0.0717  0.1989
20223W        W37747   9.750  16.143  13.025 -0.0277 -0.2539  0.2529
20224W        W37748  11.121   1.604   0.036  0.0318 -0.1288  0.0854
20225W        W37749  17.739   1.816   4.537  0.0734 -0.1061  0.1145
20226W        W37750   9.800  11.773   2.081 -0.0400 -0.3058  0.0873
20227W        W37751   8.108   4.839  14.887  0.0321 -0.1099 -0.0926
20228W        W37752   4.440   2.951  13.712  0.2805 -0.0040  0.1455
20229W        W37753   6.335  17.293   0.606  0.3092  0.0507  0.0619
20230W        W37754   0.257  12.610   0.895  0.0284  0.0430 -0.0264
20231W        W37755   0.081   7.894   2.839  0.0135  0.0234 -0.1080
20232W        W37756   0.077   0.166   3.246  0.0058  0.1766  0.0723
20233W        W37757  16.852   1.674   4.628 -0.1207  0.1935  0.2044
20234W        W37758   7.645   9.673   4.567  0.2603  0.5379 -0.3022
20235W        W37759   1.030   9.716   4.546  0.0488  0.0062 -0.0926
20236W        W37760   3.324  17.861   0.660 -0.2426  0.0859 -0.1220
20237W        W37761   6.898   0.776  14.785 -0.0653  0.3931  0.3226
20238W        W37762  11.434  14.334  13.136 -0.1708  0.1847 -0.2664
20239W        W37763  14.604  16.108   2.236 -0.2056  0.1934 -0.0683
20240W        W37764  17.937  16.190   4.872 -0.1134 -0.0797 -0.0560
20241W        W37765  13.142   8.613   0.425 -0.2342  0.2187 -0.0235
20242W        W37766   6.769  14.954   1.739  0.0686  0.0365 -0.2640
20243W        W37767   2.321  13.638  14.952  0.3008 -0.2897 -0.0426
20244W        W37768   6.767   7.624   0.271 -0.2488 -0.2375  0.4319
20245W        W37769   9.939   9.310  10.792  0.2919  0.1927 -0.0355
20246W        W37770   7.860   8.651   1.281 -0.3932 -0.0013 -0.1326
20247W        W37771  17.871   1.383   1.504 -0.0493 -0.0209 -0.1307
20248W        W37772  15.411   2.291  15.341 -0.3561 -0.2435 -0.0249
20249W        W37773  17.972   9.100   3.310 -0.0760  0.3082  0.1873
20250W        W37774   7.149  12.331  10.961  0.0421  0.0198  0.0747
20251W        W37775   8.106  10.919  11.494  0.0297 -0.0689 -0.1700
20252W        W37776   0.376  16.556   1.604  0.0211  0.1289 -0.2992
20253W        W37777   2.109  12.806  12.575 -0.1604 -0.0976 -0.1078
20254W        W37778   7.969  16.384  14.473 -0.1746 -0.1041  0.0393
20255W        W37779  13.779   8.780   2.922  0.0008 -0.1014  0.1570
20256W        W37780  13.394   1.193  14.931  0.0700 -0.0293 -0.0655
20257W        W37781  15.495   0.780   1.911 -0.1393 -0.1330 -0.3673
20258W        W37782  11.181   6.367  14.295  0.1217  0.0650 -0.2090
20259W        W37783   5.382  14.744   1.584 -0.0208  0.0696 -0.2521
20260W        W37784   4.316  15.755   1.737 -0.1437 -0.1977 -0.0241
20261W        W37785  17.057   0.081  15.796  0.4142 -0.0521  0.2589
20262W        W37786   4.283   1.711  13.105 -0.2746  0.1895  0.2550
20263W        W37787  11.125   1.555   2.748 -0.0696  0.2585 -0.0006
20264W        W37788   0.796  10.628  11.523 -0.3216  0.0296  0.0719
20265W        W37789   6.248   6.540  14.937 -0.0233  0.1903  0.2113
20266W        W37790   8.154   9.280  14.502 -0.3477  0.0567 -0.1195
20267W        W37791   3.866   2.093  13.661 -0.0711  0.1300  0.1109
20268W        W37792  11.266   6.636  12.000  0.0348 -0.1668 -0.0827
20269W        W37793   5.996   9.292   5.003 -0.1496 -0.1939  0.1188
20270W        W37794  11.235  17.568   0.156 -0.1275  0.1844 -0.2536
20271W        W37795  10.320  14.679  11.025  0.1106 -0.0189 -0.0396
20272W        W37796   7.663   0.131  15.681 -0.0144  0.0284  0.0018
20273W        W37797   8.339   6.422   2.868 -0.2648 -0.1172  0.1819
20274W        W37798   6.010  13.389  12.628 -0.0122  0.1260  0.0828
20275W        W37799   5.434  17.512   4.299 -0.1732  0.5524 -0.0938
20276W        W37800  14.839   4.612  14.616  0.0571 -0.0678  0.0888
20277W        W37801  17.051   7.101   2.912 -0.1611 -0.4187 -0.1872
20278W        W37802   3.108  12.038  11.685  0.0171 -0.3658 -0.0699
20279W        W37803   2.858  17.724   0.501 -0.1979 -0.2035 -0.1044
20280W        W37804   1.472  17.601   4.740 -0.1289 -0.1362 -0.0170
20281W        W37805  12.186   9.728  14.037  0.0564 -0.0275 -0.1400
20282W        W37806   3.006  13.350   3.349  0.1283 -0.1276  0.0350
20283W        W37807   2.588   6.736   2.342 -0.2999  0.1153 -0.1031
20284W        W37808  14.857   7.116  15.694 -0.0559  0.2559  0.3848
20285W        W37809   1.227   1.681   0.161 -0.1147 -0.0902 -0.0533
20286W        W37810  16.398   8.750  11.950 -0.1959 -0.0103  0.1165
20287W        W37811   8.542   6.636  14.809 -0.1891 -0.3116  0.0495
20288W        W37812   6.351  12.367   5.619 -0.1945 -0.2107  0.0519
20289W        W37813   2.331  13.355  14.166 -0.2473  0.1299 -0.0641
20290W        W37814   4.613  10.064  14.375  0.4411 -0.2560  0.0826
20291W        W37815   8.328  10.782   0.123 -0.0135  0.0391 -0.1785
20292W        W37816  13.101   1.538  13.357  0.1424 -0.1111  0.3274
20293W        W37817   4.969   4.548   2.422  0.1245 -0.3153  0.0249
20294W        W37818  11.542  17.917  14.659 -0.1261  0.1365 -0.0366
20295W        W37819   9.699  14.847   1.960  0.0710  0.0412 -0.1587
20296W        W37820  13.367   7.248   0.271  0.1092 -0.0838  0.1347
20297W        W37821   3.402   5.664   0.895 -0.0722 -0.0263  0.2514
20298W        W37822  14.676  11.270   2.391  0.0353 -0.0209  0.0616
20299W        W37823  16.361   2.378   1.132  0.2169  0.0793 -0.0343
20300W        W37824   5.185   3.879  11.857  0.3245  0.2685  0.1676
20301W        W37825   3.064  17.952   3.091  0.1863 -0.0760 -0.0492
20302W        W37826   8.237  15.106   3.946  0.1981  0.0275 -0.1962
20303W        W37827   3.665  11.263  13.421 -0.2817 -0.1494  0.2953
20304W        W37828  15.482   1.078  11.747 -0.0078 -0.0572  0.0286
20305W        W37829   8.931   0.463  15.007 -0.0736 -0.1635 -0.0671
20306W        W37830   9.952   8.962   0.018 -0.1498 -0.0440  0.0967
20307W        W37831  12.744   6.860   0.963  0.1706 -0.1783 -0.0921
20308W        W37832   6.119   1.676  12.683 -0.0112  0.2753  0.0958
20309W        W37833  17.370   6.179  13.175 -0.0372  0.1898  0.1283
20310W        W37834  10.019   8.976  15.555  0.1771 -0.0341  0.1183
20311W        W37835  11.453   2.026   1.240  0.2311 -0.2662  0.1838
20312W        W37836   2.013   1.847  10.802 -0.0191 -0.1610  0.4067
20313W        W37837  14.403  12.398  13.151  0.2094 -0.0169  0.2052
20314W        W37838   2.605  12.411   4.717 -0.0372 -0.1747  0.3237
20315W        W37839  12.313   0.005  13.141 -0.0350  0.0050  0.0416
20316W        W37840   8.032   8.767  13.347  0.1046  0.0171 -0.3055
20317W        W37841   7.543  10.397  13.991  0.2194  0.0031  0.0440
20318W        W37842   6.595   6.561  13.513  0.2546 -0.3386 -0.0247
20319W        W37843  12.319   7.677  12.686  0.2320 -0.1316 -0.1111
20320W        W37844   1.060   4.932  11.605 -0.1478 -0.0932 -0.0360
20321W        W37845  18.111   8.409  15.791  0.1579 -0.2768  0.1905
20322W        W37846  10.473   3.432  13.974  0.1097 -0.2069 -0.1892
20323W        W37847   2.483   6.167   2.593 -0.1400  0.2159 -0.0047
20324W        W37848   4.321  10.938   2.886 -0.4314 -0.1868  0.0966
20325W        W37849  11.605  10.293  11.602  0.1615 -0.3874 -0.1454
20326W        W37850   5.798   5.546  13.929 -0.2391 -0.0109 -0.1032
20327W        W37851   1.488  11.855   3.296 -0.0146  0.1311 -0.0207
20328W        W37852  10.089   0.440  13.481 -0.4847 -0.0508  0.0863
20329W        W37853  14.715  17.176  11.000  0.0522 -0.4378  0.3833
20330W        W37854  14.071   2.312  11.595  0.1564 -0.0258  0.0133
20331W        W37855  16.458   9.470   3.764  0.0502  0.3915  0.0024
20332W        W37856   7.771  15.827  13.829  0.0001 -0.0798  0.0068
20333W        W37857   8.875  17.964   3.042  0.0921  0.4331  0.0963
20334W        W37858   7.911   4.834  14.219 -0.0435 -0.2133 -0.0847
20335W        W37859  16.036   9.041  11.792 -0.1385  0.2700 -0.0956
20336W        W37860  13.635   1.198  11.468  0.2887  0.0950 -0.2551
20337W        W37861   4.978  13.573   2.184 -0.1153 -0.1242 -0.1414
20338W        W37862   0.211   3.749  13.734  0.0992  0.0500 -0.1222
20339W        W37863   8.860   4.856   2.937 -0.2626  0.0357  0.0801
20340W        W37864  11.414   5.023   1.027  0.1158  0.0894 -0.0886
20341W        W37865   3.335   7.444   1.603  0.1168  0.2911  0.0838
20342W        W37866   9.441   5.725  13.354  0.0366  0.0951  0.1967
20343W        W37867   8.244  14.430  13.077  0.0252  0.2756  0.1207
20344W        W37868   4.429  16.613   2.895 -0.1904  0.0952  0.0714
20345W        W37869  15.466  11.589  14.546 -0.1088  0.0909 -0.2183
20346W        W37870  16.068  17.233  12.054 -0.1400 -0.1524 -0.3751
20347W        W37871  12.782   7.313   0.137  0.1598  0.1691 -0.4797
20348W        W37872   0.018  13.929  14.975  0.1132  0.0440 -0.3108
20349W        W37873   5.366   2.054  14.296 -0.0261  0.0620  0.2058
20350W        W37874  14.949   6.217   2.286 -0.1374  0.0332 -0.1605
20351W        W37875  10.965   5.211   5.228  0.1103 -0.0414  0.2074
20352W        W37876   7.537  14.335   1.551  0.1079 -0.1011 -0.0160
20353W        W37877  12.780  17.366   1.447 -0.2686  0.2167 -0.0834
20354W        W37878  17.924   9.420  14.282 -0.0659  0.0470  0.0488
20355W        W37879   3.903   7.681   0.803  0.2013 -0.2020  0.0566
20356W        W37880  10.768   6.000  14.680 -0.0794  0.2665 -0.1064
20357W        W37881   9.676   5.464   4.454 -0.2206 -0.2108 -0.0833
20358W        W37882  10.172   7.634   4.548 -0.0986  0.4096  0.2635
20359W        W37883   9.733  13.648  13.429  0.0014 -0.0166  0.2541
20360W        W37884  10.129   9.170   4.935 -0.1863  0.2273  0.3235
20361W        W37885   3.353  14.294   4.468  0.2257 -0.0620 -0.0133
20362W        W37886  17.413   1.534  13.859 -0.1748 -0.0783  0.0815
20363W        W37887  10.307   3.270  15.491  0.4034 -0.2122  0.2745
20364W        W37888  15.488   8.777   4.467  0.0668  0.0374  0.2786
20365W        W37889  12.950  16.827  14.336 -0.1661  0.1294  0.0388
20366W        W37890   9.492  16.717   2.845  0.0804  0.0555 -0.2887
20367W        W37891   6.543   5.477   4.040 -0.0403 -0.0866  0.0893
20368W        W37892   4.340   5.967  11.847  0.0284 -0.0773  0.0696
20369W        W37893  11.868  11.029  12.017  0.1728 -0.0244  0.2225
20370W        W37894   9.730   5.090  11.977  0.1129  0.4364 -0.0483
20371W        W37895   3.526   7.232  12.390  0.0636 -0.1735  0.2990
20372W        W37896   1.723   8.212  15.115 -0.0395  0.0007  0.2452
20373W        W37897   8.738  12.180  11.703 -0.3431 -0.2632  0.1883
20374W        W37898   8.196  18.101  14.838  0.0004 -0.1794 -0.0588
20375W        W37899  11.090   4.621   2.218 -0.2460 -0.0421  0.1269
20376W        W37900  17.087   7.453  15.588 -0.0095 -0.1945  0.3923
20377W        W37901  12.347   1.939  11.675  0.2709 -0.2896 -0.1419
20378W        W37902  14.143  10.917  14.680  0.3535 -0.0322 -0.1549
20379W        W37903  14.645  11.809   0.045 -0.2907  0.4322  0.0973
20380W        W37904   4.055   7.719  11.391  0.1294  0.1456  0.3978
20381W        W37905  15.598   4.145  13.483  0.0717  0.0775  0.0728
20382W        W37906  17.186   3.222  13.960  0.2393 -0.4125 -0.1495
20383W        W37907   7.494  12.995  14.548  0.1266 -0.2520  0.0292
20384W        W37908  13.848   2.190  14.153  0.2529 -0.0598  0.1718
20385W        W37909   0.478   3.280  15.908 -0.1848 -0.3425 -0.0502
20386W        W37910  17.074   9.215  13.103 -0.1643 -0.1033 -0.0393
20387W        W37911   2.006   9.649  10.314 -0.1573 -0.0957  0.1168
20388W        W37912   0.263   2.484  13.785 -0.3459  0.0480 -0.2636
20389W        W37913  10.035   3.018   2.682  0.4818  0.0411 -0.3720
20390W        W37914  17.706   1.175  11.783 -0.0808  0.1125 -0.2499
20391W        W37915   0.011   7.053   5.421 -0.0907  0.0676 -0.2448
20392W        W37916  13.548  13.746  13.711 -0.2203  0.0889 -0.0923
20393W        W37917  11.695  17.460  12.952 -0.0066  0.1114 -0.0217
20394W        W37918   1.482  10.129  11.303  0.2750  0.2057  0.0054
20395W        W37919  17.221   1.563   3.298 -0.1167 -0.1425 -0.1951
20396W        W37920  14.256  10.379   0.329 -0.0600  0.1851  0.2510
20397W        W37921  10.643   3.236   2.558  0.1489  0.0431  0.3621
20398W        W37922  16.136   4.162  11.854 -0.0665  0.0408 -0.1514
20399W        W37923   8.454   8.941   0.193 -0.4722  0.1087  0.1526
20400W        W37924   0.703   5.455  13.188 -0.0536  0.1372 -0.0784
20401W        W37925  12.971  17.776   3.895  0.1434  0.1549  0.1541
20402W        W37926   4.504  10.318  12.942  0.0726  0.0727  0.0348
20403W        W37927   1.075   7.584  12.990  0.1579 -0.0444  0.1034
20404W        W37928   1.618   5.521  16.007 -0.0738 -0.0831 -0.0098
20405W        W37929  10.655   7.193  13.558 -0.1851 -0.0885 -0.1156
20406W        W37930   2.117  17.823   1.813  0.0374 -0.2347  0.0754
20407W        W37931  12.693  15.320   2.291 -0.1824 -0.2057 -0.2623
20408W        W37932   9.320  15.307  15.183  0.0136 -0.1568 -0.0884
20409W        W37933   2.246   0.291  13.548 -0.1196  0.1504 -0.0072
20410W        W37934   6.246   0.720   2.967  0.2060 -0.1956 -0.1324
20411W        W37935   3.821   8.581  11.519  0.1808  0.0349 -0.1393
20412W        W37936  17.592   7.401   3.823  0.0162 -0.2265 -0.1027
20413W        W37937   1.081  14.598   1.216  0.2044 -0.1146  0.1515
20414W        W37938  16.312  15.783  14.519 -0.1320  0.0317 -0.0957
20415W        W37939   2.546  10.492  13.758 -0.0974  0.1766 -0.0815
20416W        W37940  15.387   6.100   1.858  0.1760  0.0728 -0.1906
20417W        W37941   2.213   2.996   3.440  0.0439  0.2554 -0.1170
20418W        W37942  16.088  11.662   2.078  0.2891 -0.2455  0.1720
20419W        W37943  16.169   5.076  11.961  0.0332 -0.2684 -0.1720
20420W        W37944   1.799   5.901   4.213  0.3435 -0.2838 -0.0124
20421W        W37945   6.620   7.159   4.589  0.1503  0.1021 -0.1012
20422W        W37946   8.361  17.657  13.279 -0.2532 -0.1345 -0.1092
20423W        W37947   3.010   0.986   0.806 -0.1341  0.3082  0.1440
20424W        W37948   9.934   3.930  14.307 -0.0791 -0.2090 -0.2262
20425W        W37949  12.343  13.263   1.406  0.0684 -0.1090 -0.3124
20426W        W37950   7.343  12.491  14.922 -0.1748 -0.0549  0.0976
20427W        W37951  12.830   2.056  13.963 -0.0645 -0.1675  0.2446
20428W        W37952   5.930   6.721   0.214 -0.1630 -0.1769 -0.1104
20429W        W37953   4.090   2.989  12.443  0.2152 -0.0777  0.1961
20430W        W37954   8.323  11.510   1.140 -0.1712 -0.2586 -0.3070
20431W        W37955  15.182   5.652  14.077  0.0029 -0.1746 -0.2116
20432W        W37956   9.426   6.457  14.359 -0.2322 -0.2391  0.0722
20433W        W37957  14.409   1.427   2.804 -0.1818  0.3149 -0.0533
20434W        W37958   4.627  11.817  14.557 -0.1591 -0.0936 -0.1371
20435W        W37959   6.742   0.364  11.567  0.1908  0.1317 -0.0113
20436W        W37960  15.512  16.705   2.027 -0.0482 -0.0916  0.0054
20437W        W37961   9.061  13.498   2.438 -0.2796  0.0905 -0.3519
20438W        W37962  17.727  11.068  15.574  0.0107  0.2270  0.1956
20439W        W37963   1.138   4.459   3.631 -0.0950 -0.3919 -0.1476
20440W        W37964   5.659  15.430   4.628 -0.2645 -0.0550  0.0068
20441W        W37965  17.671   6.380   4.472  0.0613  0.0947 -0.1769
20442W        W37966   8.276  11.802  11.432  0.0011  0.5206  0.1774
20443W        W37967  11.451  15.549   0.824  0.0582 -0.2804  0.3874
20444W        W37968  15.470  14.731   4.353  0.2769 -0.0698  0.2213
20445W        W37969  17.257  11.113   4.698  0.0655 -0.0870 -0.1888
20446W        W37970  16.410   0.967   1.143  0.2126 -0.0485  0.2528
20447W        W37971   9.391  10.429  13.949  0.0759 -0.2926 -0.2857
20448W        W37972   2.081  10.143   2.694  0.2610 -0.2664 -0.0066
20449W        W37973  13.970   8.392   3.253 -0.3113  0.0698 -0.0480
20450W        W37974  17.312   1.501   4.675 -0.3767  0.1578  0.0086
20451W        W37975  17.384  12.399  12.278 -0.2899 -0.1425  0.0891
20452W        W37976  14.762  14.203  13.647 -0.2345  0.0401  0.0160
20453W        W37977   8.196  11.512   1.609  0.3011 -0.3263 -0.1040
20454W        W37978  16.834   9.671  12.145 -0.0296  0.1335 -0.0256
20455W        W37979  11.535  15.070  10.471 -0.0562  0.1089 -0.1281
20456W        W37980  13.337  11.589  13.113 -0.1698 -0.0202 -0.1773
20457W        W37981   3.733  15.839   0.394 -0.1040 -0.1114 -0.2390
20458W        W37982   5.427  10.310  11.581 -0.0222 -0.1169 -0.2435
20459W        W37983  13.662   4.172   2.403  0.1477 -0.1411 -0.3856
20460W        W37984  11.563   0.309  14.654 -0.2633 -0.3696  0.0544
20461W        W37985   3.484   5.484  13.977 -0.1634  0.0135 -0.4892
20462W        W37986  11.290  17.572   3.378 -0.1950 -0.2183 -0.2469
20463W        W37987  12.685   2.407  13.426 -0.1044  0.2563 -0.0555
20464W        W37988   5.992  13.432  13.687 -0.3117 -0.3403 -0.0934
20465W        W37989  10.100  11.266  14.046  0.0165 -0.2150  0.2311
20466W        W37990   5.961   7.235  12.124 -0.2382  0.2050  0.0743
20467W        W37991   6.161   5.044   4.585 -0.2955 -0.2211  0.0732
20468W        W37992  16.611  18.122  12.474 -0.1824  0.1553 -0.2225
20469W        W37993  16.110  12.548  12.151 -0.0154 -0.3730  0.4250
20470W        W37994  10.317  12.857   3.392 -0.1422  0.3515  0.3013
20471W        W37995   8.479   2.089  13.695 -0.0452  0.1929 -0.1449
20472W        W37996   1.245  11.021   0.777  0.0685  0.0971  0.1577
20473W        W37997  11.359  13.802   4.361 -0.0290  0.0824 -0.0268
20474W        W37998  15.606  10.581  13.954 -0.0102 -0.0659 -0.0138
20475W        W37999  14.426   8.300   4.166  0.1006  0.0468 -0.2623
20476W        W38000  10.960  15.693  11.719 -0.1559 -0.0408 -0.3021
20477W        W38001  12.535   4.379   4.512 -0.0978 -0.2777  0.0718
20478W        W38002  10.937   0.554   0.937 -0.3453  0.0687  0.4799
20479W        W38003   7.666   1.507   2.886 -0.1928 -0.1618 -0.0123
20480W        W38004   7.160   3.536   3.721 -0.0519 -0.3925  0.0928
20481W        W38005  11.667   9.660  15.624  0.2742 -0.0223 -0.0414
20482W        W38006   3.459   7.292  12.881 -0.2468 -0.0617  0.0997
20483W        W38007   0.397   3.542  12.801  0.3477 -0.0932  0.1564
20484W        W38008  15.703   2.446   3.944 -0.0103  0.3103  0.2947
20485W        W38009   4.418  16.443  12.575  0.2761  0.2191 -0.3883
20486W        W38010   8.672  16.950  13.621  0.0160 -0.0864 -0.0997
20487W        W38011  16.591   6.501   2.051 -0.1685 -0.1877  0.0732
20488W        W38012   2.628   9.869  14.599 -0.3351  0.0127  0.0249
20489W        W38013   0.176   8.400   3.624  0.1134  0.0679  0.0779
20490W        W38014  16.299   9.654  14.853 -0.1274  0.0247  0.0118
20491W        W38015  16.846   9.065  12.051 -0.0087  0.0962 -0.4870
20492W        W38016  12.646   4.978  10.941 -0.2196  0.0354  0.0256
20493W        W38017  12.332  17.091   4.348 -0.3523 -0.0407 -0.1291
20494W        W38018  10.100   8.493  12.713  0.2701 -0.0907  0.0564
20495W        W38019   5.258   1.664   2.942  0.2991  0.1795 -0.0526
20496W        W38020  12.560   3.595   5.244  0.2214 -0.3220  0.1168
20497W        W38021   5.612  11.996  15.499 -0.1240 -0.1079  0.0243
20498W        W38022  15.364   4.469  12.771  0.2505 -0.0687 -0.0334
20499W        W38023   0.468   7.553  15.624 -0.0721  0.0541  0.0832
20500W        W38024  13.196  13.596   1.336 -0.1926 -0.3485  0.2938
20501W        W38025  11.858  13.275   4.187 -0.1896 -0.1438 -0.0591
20502W        W38026  10.951   1.183   4.079  0.0754  0.1845  0.1092
20503W        W38027   3.265   8.853  15.542  0.2967  0.2404 -0.2997
20504W        W38028  12.906  17.828   0.846 -0.2367 -0.3334  0.3678
20505W        W38029   0.144  11.534  12.604 -0.0620 -0.0235 -0.0955
20506W        W38030  11.600   8.211  13.895  0.1938 -0.2053 -0.1365
20507W        W38031   1.513   1.648   1.476  0.0375 -0.1845  0.1839
20508W        W38032  16.617  17.311  13.211 -0.0505  0.1270  0.1303
20509W        W38033  17.986   4.630   4.413  0.3578  0.1698  0.0618
20510W        W38034  10.825  14.335   5.285  0.2595 -0.0269 -0.0355
20511W        W38035  14.820  16.021  14.634  0.1214 -0.0820  0.1852
20512W        W38036  17.288   1.851   4.210 -0.1753  0.1765 -0.1881
20513W        W38037  16.374   0.400  13.779 -0.0447 -0.0313  0.1061
20514W        W38038   7.848  10.686   0.141  0.0383 -0.1435 -0.0605
20515W        W38039   3.690   2.577  11.832 -0.1889 -0.0494 -0.4369
20516W        W38040   5.494  15.539   2.688 -0.1844 -0.2021  0.0792
20517W        W38041  12.045  17.672   2.528 -0.1715  0.1826 -0.3671
20518W        W38042  15.724   5.750   1.868  0.2251 -0.0502  0.1690
20519W        W38043   3.013   2.223  13.975 -0.1596  0.2966  0.0106
20520W        W38044  14.400   7.705  15.157  0.1407 -0.3496 -0.0553
20521W        W38045   6.270   3.078  12.937 -0.0166 -0.1029 -0.3049
20522W        W38046  17.448  16.472  16.008 -0.0019 -0.1315  0.0427
20523W        W38047  13.779   2.334   2.453  0.1537 -0.1835  0.0877
20524W        W38048  11.828  10.286   2.522  0.2675  0.1235  0.0704
20525W        W38049   1.016  12.369  14.571  0.1057  0.2660  0.1280
20526W        W38050   4.814  11.229   2.845  0.1890 -0.0930 -0.0632
20527W        W38051   9.475  13.975   4.016  0.1315 -0.1604 -0.0423
20528W        W38052   8.137   6.005  14.205  0.0365 -0.0365  0.1939
20529W        W38053   4.278   4.492   4.036  0.0208 -0.0371 -0.2445
20530W        W38054   2.362  13.248   3.986 -0.0013 -0.1576 -0.4813
20531W        W38055   8.764   2.134  15.757  0.2323  0.0180 -0.1389
20532W        W38056  12.355  16.008   1.136  0.2341  0.0773  0.0380
20533W        W38057  11.933   0.971   3.398 -0.2318 -0.0748  0.2404
20534W        W38058   8.191   8.637   4.870 -0.0686  0.1058 -0.0565
20535W        W38059   6.508   6.116  14.936 -0.2664  0.2302  0.2538
20536W        W38060   2.580  15.723   3.000 -0.0078  0.0050  0.2293
20537W        W38061  16.807   3.313   0.890  0.1702  0.0222 -0.2146
20538W        W38062  11.694   1.135  10.877  0.0060  0.0462 -0.0773
20539W        W38063  12.112  15.035   4.241  0.0102 -0.0410  0.0265
20540W        W38064  11.038   3.950   2.086 -0.0026  0.1056  0.0647
20541W        W38065   0.138   7.168   0.698 -0.2516  0.2317  0.1257
20542W        W38066  16.220   3.064   4.656  0.2164  0.1173  0.0215
20543W        W38067  15.959   7.074  10.860 -0.3062 -0.1797 -0.0357
20544W        W38068  13.429  16.849   5.053  0.1516 -0.1822 -0.3055
20545W        W38069   2.136  15.005  15.239  0.2332  0.0446  0.1521
20546W        W38070  11.426   7.253  15.453  0.1904 -0.1519  0.0910
20547W        W38071  11.911   6.575  14.044 -0.1309  0.1311 -0.1188
20548W        W38072   3.224  11.197   3.669  0.1391  0.2952  0.0577
20549W        W38073   0.588  15.320  13.548  0.0549 -0.0884  0.1397
20550W        W38074   5.600   5.340   1.612  0.0851  0.0060  0.2441
20551W        W38075   5.630  17.820  11.642 -0.0191 -0.0698 -0.0387
20552W        W38076  13.100  13.227  15.929  0.0117  0.1824  0.1479
20553W        W38077   2.357   3.856  13.182  0.1775  0.0742 -0.3362
20554W        W38078  13.072   0.075   1.177  0.0689 -0.2654  0.0560
20555W        W38079   1.633   2.942   3.038 -0.3637  0.0371 -0.4470
20556W        W38080   1.911  11.325  13.049 -0.0940 -0.2226 -0.0018
20557W        W38081  13.928  15.258  15.377  0.3747  0.1507  0.1404
20558W        W38082   8.124   0.609   1.153  0.0261  0.0772  0.1176
20559W        W38083  13.790  18.012   2.608 -0.1528 -0.2412 -0.0177
20560W        W38084  17.242  16.915   1.865  0.1781  0.1945  0.2606
20561W        W38085   4.881  18.013  15.981 -0.0883 -0.1117 -0.0323
20562W        W38086  10.377  15.336   3.619  0.0746  0.0279  0.0424
20563W        W38087   6.342   2.139   2.166  0.2049 -0.0813  0.0365
20564W        W38088   3.436   8.656  13.634  0.0010  0.1467 -0.1423
20565W        W38089  10.313   4.503  11.564 -0.0935  0.0020  0.1426
20566W        W38090  16.289   7.675   1.618 -0.2035  0.4569 -0.2060
20567W        W38091   3.008  14.735  12.451  0.1743  0.1771 -0.3015
20568W        W38092  16.304  17.734   5.054  0.0339 -0.0820  0.2307
20569W        W38093  11.565  14.331  12.569  0.0177 -0.0388  0.3153
20570W        W38094   2.146   3.369   0.626 -0.2850 -0.2304  0.0595
20571W        W38095   1.388   8.224   4.476  0.1841 -0.1942 -0.1213
20572W        W38096   2.734  17.685  12.252  0.3967 -0.1123  0.0716
20573W        W38097   9.069   9.240   0.134  0.1517  0.1880 -0.3334
20574W        W38098  13.680  16.617  12.356  0.2650 -0.3620  0.2809
20575W        W38099   3.430  17.357  11.249 -0.1356 -0.2054 -0.1151
20576W        W38100  14.431   3.723  15.690 -0.1382 -0.3242  0.3500
20577W        W38101  10.784   8.841   3.866 -0.1360  0.0201  0.1035
20578W        W38102  12.708   9.697   1.647  0.2317  0.0417 -0.0430
20579W        W38103  15.247  13.424  12.413  0.0125  0.2502  0.0494
20580W        W38104  16.360   1.625   4.891 -0.0326  0.1929  0.0143
20581W        W38105  10.946   8.251  15.927 -0.0722 -0.1209 -0.0531
20582W        W38106   8.473  14.000  15.544 -0.0045  0.1768 -0.1483
20583W        W38107   2.398   3.467  12.442 -0.2162  0.0421 -0.0300
20584W        W38108   6.556   5.882  14.038  0.1729  0.0237  0.1784
20585W        W38109   2.066  14.205   0.601  0.0745  0.1741  0.1510
20586W        W38110  16.047   2.616  12.121 -0.1563  0.2949 -0.0539
20587W        W38111   5.232  10.884   2.394 -0.0672 -0.1980  0.0231
20588W        W38112   8.956   9.683   2.646 -0.1263 -0.0923  0.0573
20589W        W38113  16.065   9.747  15.383  0.2656  0.2645 -0.1080
20590W        W38114   9.549  11.192   5.258 -0.0793  0.1271  0.1319
20591W        W38115  11.448   7.851  15.944 -0.2559 -0.2373 -0.0941
20592W        W38116   2.000   6.607   4.007 -0.0442 -0.1892  0.1451
20593W        W38117  13.219   8.043   4.638 -0.1345  0.1649  0.2122
20594W        W38118   6.053  17.320   4.186 -0.2626 -0.0047  0.1439
20595W        W38119  14.878  16.885  14.174 -0.1570 -0.1350  0.2164
20596W        W38120  12.131   9.435   5.625  0.2742 -0.0752 -0.1071
20597W        W38121   6.669   0.386   1.046 -0.1688  0.1797  0.3275
20598W        W38122   1.107  16.873   4.420 -0.0887  0.1334 -0.0303
20599W        W38123   9.933   3.030  14.465 -0.2007 -0.2594 -0.3394
20600W        W38124   4.339  13.643  14.860 -0.2511 -0.1925  0.2957
20601W        W38125  10.092  17.222   4.303 -0.1628 -0.0039 -0.2290
20602W        W38126  10.623   8.759   0.566 -0.0544 -0.0289 -0.0263
20603W        W38127  16.382   6.368  12.683  0.2707 -0.0858  0.0672
20604W        W38128  16.242   0.487   3.856  0.0467  0.1385  0.2122
20605W        W38129   7.620   3.953  13.957  0.2078 -0.3271 -0.0416
20606W        W38130   1.355   5.928  15.827 -0.2794 -0.0431  0.0994
20607W        W38131  16.586   5.431  12.811  0.0791  0.0893 -0.0920
20608W        W38132   4.916  15.624  11.599  0.1549  0.3274  0.3593
20609W        W38133  15.360  11.685   1.744 -0.0546  0.1042 -0.1079
20610W        W38134   5.881   6.272   0.577  0.0522 -0.1439  0.2964
20611W        W38135  13.300  14.069  14.641 -0.0924  0.1457  0.3042
20612W        W38136   7.103   8.051   1.058  0.1287  0.0583 -0.0154
20613W        W38137  14.326  16.658   6.223 -0.0771  0.0607 -0.0008
20614W        W38138  16.979   0.793   0.332  0.0071 -0.2077 -0.1856
20615W        W38139  15.967  13.168   2.501  0.5999 -0.3644  0.1428
20616W        W38140   4.639   5.786   0.392  0.0767  0.0793  0.1435
20617W        W38141   3.443  18.114  13.602  0.0107 -0.3695 -0.0583
20618W        W38142   6.707  17.863   4.768  0.3183 -0.1368  0.1048
20619W        W38143   5.702   2.062   2.787 -0.0444 -0.3131 -0.2011
20620W        W38144   3.716  13.878  11.374  0.1565  0.0554  0.1084
20621W        W38145  14.804  13.707   0.781 -0.0230  0.1254  0.0252
20622W        W38146   2.648   8.230   1.464  0.1454 -0.1085  0.1945
20623W        W38147  16.592   9.056   3.577 -0.2884 -0.4467 -0.0666
20624W        W38148   4.665  16.904   4.508 -0.1737  0.1680 -0.1061
20625W        W38149  14.544  16.565   2.502 -0.2554  0.1528 -0.0032
20626W        W38150   1.015   3.627  13.812  0.1469  0.0428 -0.1425
20627W        W38151   7.361   9.983   1.286 -0.0248 -0.0776  0.3142
20628W        W38152   1.772  15.033   4.510 -0.3229 -0.1829  0.1931
20629W        W38153   0.509  15.753   3.260 -0.1034  0.2242  0.0131
20630W        W38154   3.304   4.584  14.556 -0.1549 -0.3089  0.2569
20631W        W38155  16.652   2.434   3.561 -0.1125  0.2160 -0.2068
20632W        W38156  14.746   7.270  12.049  0.0097 -0.2148  0.2207
20633W        W38157  13.232   9.756   0.893 -0.1477 -0.2552  0.0882
20634W        W38158  13.076   9.342  15.250 -0.1022 -0.0857  0.1561
20635W        W38159   7.172   2.740   1.449 -0.0473  0.1175 -0.1320
20636W        W38160   3.991   2.364   2.347  0.3179  0.3720 -0.1648
20637W        W38161   0.721  16.494   4.343  0.0118  0.2976  0.0463
20638W        W38162   4.960  16.628  10.790 -0.0038  0.0615 -0.1396
20639W        W38163   9.788  11.993  12.376 -0.0365  0.0751 -0.1732
20640W        W38164  17.476   2.588  15.349  0.3474  0.3289 -0.2106
20641W        W38165   7.617  16.640   3.102 -0.0555 -0.0937 -0.1617
20642W        W38166   6.221  15.483   2.236  0.1428 -0.0191  0.0805
20643W        W38167   9.127  13.021   2.222 -0.1057 -0.0011 -0.1453
20644W        W38168   2.146  13.286   4.844 -0.0314  0.1993  0.2655
20645W        W38169   4.701   3.734  11.813 -0.1795  0.0235 -0.0725
20646W        W38170  11.716  17.033  12.504  0.3758 -0.2405  0.0418
20647W        W38171   2.925   1.269   3.622  0.0328  0.1192  0.0907
20648W        W38172  16.738   8.489  15.254  0.0496 -0.0618  0.1151
20649W        W38173   7.852  11.518  15.505 -0.0347 -0.4800 -0.2746
20650W        W38174  11.719  12.730   0.321 -0.0767 -0.1976  0.2703
20651W        W38175  15.762  15.708   2.900  0.1313  0.0379 -0.0796
20652W        W38176   1.993  17.116  12.978  0.0184  0.0423  0.2747
20653W        W38177   6.837   6.481  15.008  0.2995  0.0124  0.1496
20654W        W38178  17.064   5.389  13.602 -0.0738 -0.1163  0.1459
20655W        W38179  17.250  16.047  15.644 -0.2703  0.2475 -0.1474
20656W        W38180   4.023  14.029   2.035 -0.1237  0.0423 -0.1355
20657W        W38181  17.100   2.173   3.804  0.1760 -0.1226 -0.1581
20658W        W38182   5.786   3.971   1.540  0.0740 -0.2835 -0.2998
20659W        W38183   1.765  17.082   4.292 -0.2856 -0.2305  0.1073
20660W        W38184  15.927  14.670   1.880 -0.1091 -0.0971 -0.2797
20661W        W38185   6.408   1.894  11.085 -0.2718 -0.3308 -0.0526
20662W        W38186   6.197   8.510   1.668  0.0773 -0.1908  0.2305
20663W        W38187  12.159   2.757  12.682 -0.0608 -0.0623  0.0564
20664W        W38188  12.699   7.367  12.827 -0.0492 -0.0111  0.2814
20665W        W38189  11.312  10.276   2.471  0.1293 -0.2433  0.2301
20666W        W38190  12.000   5.141   3.071 -0.2864 -0.2418  0.0146
20667W        W38191   4.496  15.662  16.012  0.2384 -0.1561  0.2677
20668W        W38192   5.914  10.903   4.417 -0.4207  0.0600 -0.0250
20669W        W38193   6.672   4.795  11.884  0.1407  0.1944  0.0349
20670W        W38194  17.030  11.492  11.375 -0.2686 -0.1320  0.1043
20671W        W38195  10.665   2.999  15.158 -0.0529  0.1589 -0.0191
20672W        W38196  11.381  14.657   0.546 -0.0393  0.2467  0.0369
20673W        W38197   7.124   5.500  12.960  0.0813  0.0210  0.2667
20674W        W38198   5.155  16.926  12.048 -0.0338 -0.1993  0.2891
20675W        W38199  14.518  13.249   4.393  0.0080 -0.2430  0.0494
20676W        W38200  15.295   0.296  13.975 -0.0029  0.0549  0.1313
20677W        W38201   6.202  16.321   3.337  0.1423 -0.4313 -0.1191
20678W        W38202  14.355  17.748  15.867 -0.2728 -0.0712  0.1133
20679W        W38203  16.923  10.283   4.729  0.3456 -0.1887 -0.1949
20680W        W38204   1.648   8.793  13.438 -0.1927 -0.0118 -0.0746
20681W        W38205  12.504  13.400   4.776 -0.3251 -0.1311 -0.0436
20682W        W38206  13.487  15.017   0.087 -0.0394 -0.2811 -0.1865
20683W        W38207   4.120   9.666  14.640 -0.3890  0.2609  0.1873
20684W        W38208  14.567  12.703   3.932  0.1578  0.3929 -0.1505
20685W        W38209  14.775   6.558  14.047 -0.1640  0.3451  0.1643
20686W        W38210  17.101   2.789  14.204 -0.2884 -0.0894  0.1037
20687W        W38211  11.312   6.594   0.739  0.2873  0.1175  0.1073
20688W        W38212  14.946  12.888   2.919  0.4024  0.0892  0.0306
20689W        W38213   2.005   7.870   3.608 -0.2523 -0.3340 -0.0912
20690W        W38214  10.644  11.681  15.134  0.2487 -0.0086 -0.1903
20691W        W38215  16.373  15.971   2.505  0.2186 -0.0059 -0.4660
20692W        W38216  16.563  14.050  13.413  0.0086  0.1100 -0.0747
20693W        W38217   5.309   1.756   1.081  0.1420 -0.3014  0.0923
20694W        W38218  18.030  14.525   5.100  0.1070  0.3467 -0.0284
20695W        W38219  16.343   0.868   0.672  0.0986 -0.0193  0.3168
20696W        W38220   7.534  12.611  11.115 -0.1574 -0.0091  0.1671
20697W        W38221  14.077   9.943   4.915 -0.2546 -0.0268  0.2212
20698W        W38222   1.648   8.486   3.548 -0.2143 -0.1782 -0.1565
20699W        W38223  11.782   8.673  11.747 -0.2155  0.3540  0.1767
20700W        W38224  11.591   8.275   1.311 -0.1793  0.1268 -0.0497
20701W        W38225   1.026  11.892  14.826 -0.0258 -0.2260 -0.2853
20702W        W38226  13.909   0.263  12.597 -0.4301  0.0177 -0.0062
20703W        W38227   5.103  15.329   4.372  0.0598 -0.0905  0.1248
20704W        W38228  16.118  10.550  12.869 -0.2130 -0.1581  0.4792
20705W        W38229   8.642   7.641  13.881  0.2067  0.2834  0.3409
20706W        W38230  14.211   9.529   2.155 -0.1938  0.0278 -0.1028
20707W        W38231  11.627   3.906  10.928 -0.0668  0.0215 -0.0818
20708W        W38232   5.191  17.543  15.080 -0.1640 -0.1006  0.1956
20709W        W38233   2.830   0.702  15.411 -0.2257  0.2184  0.1874
20710W        W38234  14.172   0.111  15.099 -0.0204  0.2204 -0.1153
20711W        W38235  11.385  14.495   4.294 -0.0390 -0.3199  0.0104
20712W        W38236  14.442   8.804   5.131  0.3980  0.0629 -0.0938
20713W        W38237   3.347  13.496   1.493 -0.2177  0.0488  0.1654
20714W        W38238   1.211   9.247  12.753  0.1145  0.3210  0.0307
20715W        W38239  11.783   6.054  10.762  0.0357 -0.0823  0.0385
20716W        W38240  16.377   6.750  14.795  0.0347  0.1067 -0.0865
20717W        W38241  10.412   6.422  12.100 -0.0616  0.0937 -0.2945
20718W        W38242   8.466  18.044   1.651 -0.2622 -0.1851  0.1726
20719W        W38243   4.206   3.773  11.746 -0.1415 -0.0467 -0.4412
20720W        W38244   3.788   4.843  14.342 -0.0422 -0.0439  0.3579
20721W        W38245   6.298   2.629  15.062 -0.3021  0.1733  0.0243
20722W        W38246  16.006  13.381   6.195  0.2252 -0.1350  0.2492
20723W        W38247   8.341   9.413   5.361 -0.3843  0.0861 -0.4602
20724W        W38248  17.204   2.073   5.377 -0.1740 -0.0248  0.1820
20725W        W38249   2.600   5.909  10.851  0.0693 -0.0035  0.1601
20726W        W38250  11.146   4.282  15.562 -0.0427  0.1619  0.1369
20727W        W38251  15.415  12.197  15.656  0.0820  0.0859  0.0396
20728W        W38252  14.712  12.029   2.484  0.0174  0.3700 -0.0795
20729W        W38253  16.050  13.262   4.781  0.2252  0.2425 -0.0961
20730W        W38254   4.406   0.076  14.345 -0.2195  0.0019 -0.0636
20731W        W38255   9.991  15.544   0.785  0.1149  0.1349 -0.2966
20732W        W38256  12.262  17.305   3.354  0.0256 -0.1076  0.1095
20733W        W38257   0.025  13.352   5.059  0.0717 -0.0452 -0.2408
20734W        W38258   6.083  15.283   1.546  0.2049 -0.1941  0.0137
20735W        W38259  17.236  14.371  12.234  0.2375 -0.3740  0.0649
20736W        W38260  13.181  14.680   0.341 -0.2008 -0.0027 -0.1539
20737W        W38261   1.056   5.664   3.370  0.0077  0.1484 -0.5055
20738W        W38262   7.101  11.824  11.627 -0.0578 -0.4782  0.4292
20739W        W38263  15.556  16.325  14.885  0.1264  0.0338 -0.2338
20740W        W38264  15.470  15.667  11.962 -0.0134 -0.2110  0.2194
20741W        W38265   8.326   7.370  14.206 -0.1128  0.0650  0.0040
20742W        W38266  11.476  11.043   0.617  0.1071 -0.1660 -0.1201
20743W        W38267  14.912   0.900  16.000 -0.3756 -0.2895  0.0945
20744W        W38268  15.816  16.726   2.435  0.0500 -0.0648 -0.1582
20745W        W38269   9.799   2.291  15.671 -0.0977 -0.1550 -0.0526
20746W        W38270   9.907  12.775  14.476 -0.2324  0.0561 -0.1306
20747W        W38271   1.784  11.204  11.808 -0.0821  0.1406  0.2084
20748W        W38272   6.440   8.110   0.554  0.1169  0.1226  0.1722
20749W        W38273  17.261   9.141   2.829  0.2328  0.0748 -0.0428
20750W        W38274   0.371   5.788   1.702  0.0801 -0.1781 -0.1461
20751W        W38275   4.378   2.661  13.272 -0.1320  0.3440 -0.0057
20752W        W38276  17.761  17.893  15.882 -0.1144 -0.0880 -0.1798
20753W        W38277   0.493   3.884   2.382 -0.0047 -0.0764 -0.0919
20754W        W38278   5.291   0.316  13.711  0.1814  0.0496  0.1554
20755W        W38279  10.515   4.072   0.232 -0.1430  0.0308 -0.1374
20756W        W38280  17.629  17.683   3.856  0.0183 -0.1681  0.1366
20757W        W38281   9.964   0.047  14.203  0.0180  0.2820  0.0061
20758W        W38282  14.316   8.989   2.611 -0.1129  0.3162 -0.1913
20759W        W38283   3.942   2.836   2.637  0.1233  0.1632  0.0788
20760W        W38284   3.689  10.849  12.286 -0.1528 -0.2506  0.1664
20761W        W38285   3.755   8.243  12.718  0.0304  0.0190 -0.3438
20762W        W38286  13.067   1.486   2.807 -0.0453 -0.2562  0.0501
20763W        W38287   6.158   4.807  13.434 -0.0068 -0.0677 -0.1531
20764W        W38288   7.215  10.548   5.404  0.3234  0.0468 -0.1527
20765W        W38289  12.989   0.820   1.024  0.1001  0.0063  0.2196
20766W        W38290  16.467   0.878  15.026  0.1475 -0.3428  0.3261
20767W        W38291   1.355   9.715  11.034 -0.1254  0.0477 -0.0992
20768W        W38292  14.256  11.305  12.131  0.1669  0.1312 -0.1095
20769W        W38293  14.819   5.648  13.737 -0.0461 -0.1277  0.0669
20770W        W38294  13.458  11.129  13.017  0.0478 -0.0448  0.1083
20771W        W38295   0.295   6.457   3.250 -0.1001 -0.0200 -0.2303
20772W        W38296   1.165  13.234  14.857 -0.1002 -0.1415  0.0683
20773W        W38297   1.865   5.060  11.086 -0.2897 -0.2158  0.1131
20774W        W38298  14.763   8.894   3.301  0.0666 -0.1521 -0.0135
20775W        W38299   7.664  16.950   2.405  0.4205  0.0002  0.0847
20776W        W38300   2.811   9.194  15.979  0.5172 -0.1459 -0.0786
20777W        W38301   3.357   1.936  11.247 -0.3494  0.5168 -0.4339
20778W        W38302   0.548  17.805   4.745  0.3003  0.1609  0.1859
20779W        W38303   6.087  14.907   2.893  0.0080  0.1242 -0.2455
20780W        W38304  11.385   8.556   1.716 -0.0559  0.0401  0.0091
20781W        W38305  11.359   1.445   4.202 -0.1380  0.0145 -0.0418
20782W        W38306  11.427  16.064   0.985 -0.0388 -0.0391  0.3152
20783W        W38307  11.271   6.258   1.796  0.5324 -0.0361 -0.1492
20784W        W38308   6.725   7.572   3.288 -0.0881  0.1537  0.1351
20785W        W38309   5.821   6.534  15.787  0.1428  0.2159  0.0617
20786W        W38310  16.934  14.606  15.410  0.2280 -0.1277 -0.2451
20787W        W38311   5.131   9.985   2.430 -0.0344  0.0327  0.0149
20788W        W38312  15.275   3.633  13.945  0.3038  0.1326  0.1335
20789W        W38313  17.487  12.270   4.798  0.1118  0.0318  0.1173
20790W        W38314  14.664  17.928   2.040 -0.1543 -0.0785  0.1761
20791W        W38315   1.899   0.068   2.124 -0.0462 -0.2546  0.0851
20792W        W38316   4.876   5.182   3.304  0.0748  0.1754  0.3246
20793W        W38317  15.626   4.415   0.529 -0.1183  0.2919 -0.3131
20794W        W38318  16.666   4.178  15.076 -0.0951  0.2569  0.1179
20795W        W38319  14.260   1.042   3.580 -0.1546  0.1789 -0.1034
20796W        W38320   5.678   4.350   4.588 -0.1986 -0.0295 -0.1055
20797W        W38321   7.674  11.565   4.739  0.2918 -0.1132 -0.1606
20798W        W38322   1.958  16.530   3.062 -0.1701  0.1908 -0.0454
20799W        W38323  15.656   9.671  13.128 -0.0834 -0.2558  0.1266
20800W        W38324  17.047   3.843  13.880  0.3469  0.1618  0.0383
20801W        W38325  15.323   2.958   5.896 -0.1054 -0.0742 -0.1497
20802W        W38326   2.863  11.598   3.791 -0.0142 -0.0028  0.0453
20803W        W38327  16.001   0.150  11.770  0.0750 -0.0604  0.0214
20804W        W38328  16.575  10.809  12.975 -0.3329  0.2532 -0.0525
20805W        W38329   6.525  16.585   4.713  0.0209 -0.0250  0.1614
20806W        W38330  17.529  12.068  12.614 -0.0903  0.3696  0.1190
20807W        W38331  12.728  13.032   4.369  0.3042 -0.1466  0.2315
20808W        W38332   9.101   2.797  15.309 -0.1499  0.1798 -0.1896
20809W        W38333   7.687  12.612   3.495 -0.0560  0.0752  0.2161
20810W        W38334   1.766  13.001   2.564 -0.1997  0.2849  0.0339
20811W        W38335  10.417   3.955  14.121 -0.0237 -0.0937 -0.0284
20812W        W38336   7.751   7.409  15.518 -0.0393 -0.0873  0.0091
20813W        W38337   4.425  17.236  11.562 -0.0345  0.0354  0.3025
20814W        W38338  11.711   4.435  13.158  0.1042 -0.2108 -0.0336
20815W        W38339   3.145   5.148   4.629 -0.1658 -0.2545  0.2229
20816W        W38340   0.407  11.649  13.070 -0.0532 -0.3371  0.2219
20817W        W38341  15.097  13.912   4.170 -0.2547  0.1083 -0.1120
20818W        W38342  16.402  15.613   3.468  0.0484 -0.3596  0.1132
20819W        W38343  12.576   6.001  11.205 -0.0032  0.2671 -0.2540
20820W        W38344  17.737   8.650  11.012 -0.1494  0.1632  0.0923
20821W        W38345  17.741   3.693   2.874 -0.4236  0.2689 -0.0759
20822W        W38346  11.585  14.293  13.690  0.1679  0.3904 -0.2035
20823W        W38347  16.481  12.315  11.679 -0.1637  0.2003  0.2274
20824W        W38348   8.308   9.358  14.016 -0.2596  0.0578  0.2614
20825W        W38349  12.441   7.802   1.203 -0.2766  0.4452 -0.3130
20826W        W38350  12.785   9.502   4.723 -0.0174  0.0409 -0.0613
20827W        W38351  15.802  14.401   3.580  0.0875 -0.1296  0.1584
20828W        W38352   0.862   0.608   1.255  0.0735 -0.0047  0.0138
20829W        W38353   4.760   8.489  12.572 -0.1746  0.0059  0.0121
20830W        W38354  15.251   3.841   1.289 -0.1176 -0.1536  0.1130
20831W        W38355   2.353   5.235   2.741 -0.1114  0.3033 -0.0372
20832W        W38356   8.671   0.883   2.003  0.2063 -0.0828 -0.4288
20833W        W38357   8.386   2.373   4.075  0.3162 -0.0601  0.0110
20834W        W38358   7.989   8.223  14.670 -0.0853 -0.0207 -0.0228
20835W        W38359  13.430   4.020  15.161  0.0652  0.1137  0.1664
20836W        W38360   3.491  10.474  11.889 -0.1865 -0.2000  0.1186
20837W        W38361  15.683  14.845   0.193  0.0703  0.1465 -0.0549
20838W        W38362   8.750  12.269  13.658 -0.1506 -0.0557 -0.1377
20839W        W38363   4.083  15.505   2.116  0.1766 -0.6497  0.1067
20840W        W38364  16.683  17.739   1.307  0.2255 -0.1081 -0.0935
20841W        W38365  10.783  10.712  12.836  0.1215 -0.0138  0.2806
20842W        W38366   3.662  15.665   4.479 -0.0100  0.0024 -0.2727
20843W        W38367   6.945  11.652  12.031 -0.0319  0.0673  0.0087
20844W        W38368   0.975  17.499   5.796 -0.2349 -0.4395 -0.0054
20845W        W38369  10.090   0.847  15.855  0.1698 -0.2420 -0.0681
20846W        W38370  17.182   8.358   0.990  0.1133  0.0325 -0.0004
20847W        W38371   9.496  16.559   1.344  0.0046  0.1685  0.1871
20848W        W38372   5.850   7.247   2.712 -0.0923 -0.0702  0.0284
20849W        W38373   8.265  12.234  11.738  0.0222 -0.2187 -0.0850
20850W        W38374  18.082   3.341  12.599 -0.0972 -0.0912 -0.0711
20851W        W38375  15.960   8.037  13.409  0.0761  0.2731  0.1061
20852W        W38376  17.132   6.276   1.623  0.0588 -0.2095  0.2913
20853W        W38377  13.454   6.445  12.647 -0.0288  0.0571  0.0845
20854W        W38378  11.587  10.476  13.215 -0.0594 -0.2401 -0.1482
20855W        W38379  14.162   4.917   3.685  0.2849 -0.5088  0.1533
20856W        W38380   0.748   9.240  13.450 -0.1150  0.0795  0.2410
20857W        W38381   2.852  11.724   0.103  0.0235 -0.4469  0.0211
20858W        W38382   0.301   2.399  15.865 -0.1197  0.2510 -0.1267
20859W        W38383   3.856   6.689   2.107  0.2187  0.1925 -0.4617
20860W        W38384  14.709   9.779  11.021  0.4050 -0.0480 -0.4404
20861W        W38385  16.418   0.654  10.896  0.1328  0.1909  0.3851
20862W        W38386  10.367  14.185   3.450 -0.3840 -0.0466  0.0509
20863W        W38387   2.538   5.416   1.545  0.0301  0.2564 -0.0901
20864W        W38388  16.522  15.983  12.206  0.1191 -0.1432 -0.0603
20865W        W38389  16.797  10.713   2.776 -0.0641 -0.3178 -0.1297
20866W        W38390  15.626   4.979   2.602  0.0622 -0.0672  0.0004
20867W        W38391   6.186  10.907  11.253 -0.0022 -0.0208  0.0597
20868W        W38392   9.461  12.559   4.447 -0.1328  0.2430  0.1453
20869W        W38393  11.928   0.103  11.436  0.0087  0.0226 -0.3492
20870W        W38394  15.612  11.529   2.221 -0.2531  0.1300  0.2188
20871W        W38395  14.421  16.633  15.878  0.0778 -0.2809 -0.1297
20872W        W38396   5.796   8.778   0.803  0.2199  0.0226 -0.3078
20873W        W38397   2.957  16.825  13.979 -0.0590  0.3644 -0.1345
20874W        W38398   7.875  10.207  13.021  0.0633  0.2782  0.3142
20875W        W38399   4.599   2.575  10.706 -0.0913  0.1487 -0.5509
20876W        W38400   3.758   8.163   0.683 -0.0973  0.2971  0.1938
20877W        W38401   0.916   6.838  15.018  0.2457 -0.0148  0.0927
20878W        W38402  14.189  14.470  13.673 -0.2343 -0.3499  0.0824
20879W        W38403   5.405   9.193   0.039 -0.2165  0.1162  0.0633
20880W        W38404  12.320   5.335  10.710 -0.1905 -0.0946  0.1648
20881W        W38405  13.537  14.164  11.842  0.2077  0.1113  0.0881
20882W        W38406   1.274  11.343   4.001  0.0107 -0.1264  0.1393
20883W        W38407   4.152  16.601  10.983  0.3862 -0.1471 -0.0901
20884W        W38408   6.558  16.708   4.093  0.0990  0.1071  0.0490
20885W        W38409   3.352  12.365  12.193 -0.0397 -0.1108  0.0735
20886W        W38410  15.473  11.307   3.306  0.1303 -0.3634  0.1115
20887W        W38411   8.555  15.153   1.308  0.1482  0.1515  0.1870
20888W        W38412  16.969  12.923  13.567 -0.1196  0.0741  0.1244
20889W        W38413  15.232  17.300  11.339  0.0440 -0.0568 -0.1989
20890W        W38414   5.768   0.536  13.335  0.0062  0.2955 -0.2443
20891W        W38415  17.652  14.101   4.910  0.1664  0.3433  0.3062
20892W        W38416   4.221   9.683  13.474 -0.1519  0.1055 -0.1213
20893W        W38417  18.029   8.912  11.800 -0.1711 -0.2741  0.1144
20894W        W38418  14.847   1.059   4.070 -0.0504  0.2447  0.1934
20895W        W38419   0.563  11.260  11.935 -0.0844 -0.0083 -0.2937
20896W        W38420   3.386  15.388   1.679 -0.0292 -0.2507 -0.0203
20897W        W38421  16.085   0.218  13.402 -0.3051 -0.1156 -0.0565
20898W        W38422  16.179  12.595  15.488 -0.1228 -0.0695  0.0191
20899W        W38423  10.434  12.676  10.892 -0.1073 -0.0703  0.2680
20900W        W38424   7.054   3.462  14.724  0.0415 -0.2554  0.1123
20901W        W38425   4.253  17.642   1.992  0.0894  0.2413  0.1730
20902W        W38426   0.194   6.867   2.712  0.3074  0.0271  0.2907
20903W        W38427   6.194   4.719   0.507 -0.1164  0.0545  0.0644
20904W        W38428   3.867  17.174  11.625 -0.0476 -0.2297 -0.0755
20905W        W38429   9.520   4.120  12.567 -0.2087  0.0010  0.1323
20906W        W38430   5.450   0.276  13.001 -0.1921  0.1914  0.0708
20907W        W38431  16.212  14.731   3.681 -0.0039  0.1140 -0.0586
20908W        W38432  15.636   4.508   4.254 -0.1776  0.0524 -0.0076
20909W        W38433  13.423   8.902  14.775  0.3805 -0.0013  0.0444
20910W        W38434   5.181   4.629  13.631 -0.0337  0.1201 -0.0902
20911W        W38435  11.507   8.636  12.164 -0.3930  0.0313  0.2652
20912W        W38436   7.003   1.934   0.216  0.0304  0.2710  0.2523
20913W        W38437   4.499   7.208   3.340 -0.1144 -0.0203  0.0293
20914W        W38438   1.615  15.551   1.236 -0.1878 -0.0176 -0.1802
20915W        W38439  13.265  10.845   3.361  0.0899  0.0887 -0.1007
20916W        W38440   8.965  14.836   3.177  0.0184  0.0912 -0.4355
20917W        W38441   8.154   1.708  12.178  0.1558 -0.0817  0.1190
20918W        W38442  13.439   5.947   3.012  0.1317 -0.1250  0.0289
20919W        W38443  15.168   9.630   3.811  0.0229 -0.1633  0.2333
20920W        W38444   9.100   5.273  15.654 -0.0405 -0.0599 -0.0251
20921W        W38445  14.313  12.064   0.748  0.1261  0.2727  0.2459
20922W        W38446  15.341  17.475   2.523  0.1604  0.4096  0.0132
20923W        W38447  14.430  15.742  15.333 -0.1231  0.0566  0.3586
20924W        W38448   0.215  11.822   0.987  0.1300 -0.0484  0.1762
20925W        W38449   8.970   7.024  12.667 -0.3387 -0.0745  0.0836
20926W        W38450   7.978   0.035   4.078  0.0768 -0.1639  0.1350
20927W        W38451  13.796  13.735  12.665 -0.0736  0.0497  0.0006
20928W        W38452   1.594  17.774  16.056 -0.0731 -0.1721  0.0080
20929W        W38453   8.295  16.620   3.563 -0.0667  0.0705 -0.1642
20930W        W38454   4.450  13.865  11.759  0.3771 -0.1857 -0.1300
20931W        W38455  13.641   5.032   5.000  0.2807 -0.3205  0.0541
20932W        W38456  14.669   5.180  14.584 -0.5534  0.4660  0.1030
20933W        W38457  10.054   1.530   1.458 -0.0212  0.1909 -0.3892
20934W        W38458   1.953   5.457   1.463 -0.1044 -0.0562 -0.2754
20935W        W38459   9.106   5.605  13.006 -0.0765 -0.0315  0.0415
20936W        W38460  12.713   1.300  15.805 -0.0543  0.4429  0.1683
20937W        W38461   7.179   1.359  15.358  0.2123  0.1427  0.1877
20938W        W38462  15.840   3.127  13.664  0.0186  0.1506  0.1160
20939W        W38463   8.549   1.899   0.131  0.4028 -0.1042 -0.0257
20940W        W38464   9.005  17.172   3.621 -0.0004 -0.2003 -0.1529
20941W        W38465   8.479  12.401  14.132 -0.2680 -0.3550 -0.1239
20942W        W38466  11.007   7.933  12.624  0.1696 -0.1080  0.2605
20943W        W38467  10.985  18.007   0.025  0.0727 -0.1445 -0.3465
20944W        W38468  17.592  15.961   3.749  0.0754  0.0335 -0.2602
20945W        W38469  11.704   4.795   4.320 -0.2658  0.1166  0.0280
20946W        W38470   6.627   0.226  15.834  0.2130 -0.0786 -0.0562
20947W        W38471   3.046  17.735   0.015 -0.1249 -0.3723  0.0147
20948W        W38472  11.629  12.682  11.836 -0.0694  0.2581  0.1544
20949W        W38473   6.823  15.651  15.498  0.0529  0.0244  0.0813
20950W        W38474   3.497   5.297  12.219  0.2222  0.2644  0.3412
20951W        W38475   4.450  14.329  11.512  0.0853 -0.1996  0.0489
20952W        W38476  16.387   2.019   2.757 -0.1548  0.0376  0.4004
20953W        W38477   6.324   2.531   0.374  0.1217 -0.1034 -0.2879
20954W        W38478  11.775  17.920  12.862  0.0055  0.1154  0.1422
20955W        W38479   7.516   8.901   5.973  0.0786  0.2028 -0.0428
20956W        W38480   7.211  11.115   1.701 -0.1684  0.0472 -0.0058
20957W        W38481   0.430   3.129   3.513 -0.0872 -0.0466 -0.1011
20958W        W38482   7.126  14.386   2.089  0.0005  0.0381  0.0796
20959W        W38483  16.889  17.714   2.529  0.1197  0.2840 -0.0366
20960W        W38484  11.279   7.536   4.741  0.2146  0.2694  0.1424
20961W        W38485  17.706  14.330   1.560  0.1252  0.1488  0.0732
20962W        W38486  15.730  10.345  14.643 -0.0252 -0.3881 -0.1445
20963W        W38487   1.083  16.817  15.245  0.0377  0.2333  0.0859
20964W        W38488  16.823  13.273  15.038 -0.4719 -0.0456 -0.3695
20965W        W38489  16.868  14.666   0.236 -0.0534 -0.1130 -0.1435
20966W        W38490  11.601   3.407  10.105 -0.1137  0.0910  0.0918
20967W        W38491  17.433   8.399  12.481 -0.1434  0.1391 -0.3567
20968W        W38492  11.389   1.632   1.645  0.1289 -0.1870  0.1003
20969W        W38493   2.950   8.589   4.969  0.3607 -0.2271  0.1472
20970W        W38494   3.580  16.175   1.667 -0.3637 -0.0696  0.0676
20971W        W38495  13.090  15.966  12.293  0.2009  0.0024 -0.0640
20972W        W38496   9.470  16.600   4.917  0.1751 -0.0074 -0.2906
20973W        W38497   6.202  10.789  13.708 -0.1758 -0.1826  0.1136
20974W        W38498   1.371   9.007  11.617 -0.0867  0.1088  0.0132
20975W        W38499  17.068  17.891  12.637  0.3004  0.0834 -0.0918
20976W        W38500  15.589   5.901  15.408 -0.0151  0.1474  0.2042
20977W        W38501  10.550   0.550  13.628 -0.3840  0.4280 -0.2637
20978W        W38502   1.018  17.805   0.971  0.0181  0.0552 -0.0543
20979W        W38503   5.908  15.623   1.832 -0.3294  0.2497  0.2630
20980W        W38504   5.640   7.979  13.991  0.0605  0.0756 -0.1005
20981W        W38505   4.401   7.770   4.537 -0.1268  0.2020  0.0376
20982W        W38506   0.699  12.783   5.622 -0.3885 -0.2379 -0.2288
20983W        W38507   7.254   1.602   2.025  0.1447 -0.0645  0.0854
20984W        W38508  15.432  10.628  11.410  0.1530  0.0827 -0.1785
20985W        W38509  13.246  10.318  15.259 -0.2630  0.0172 -0.0832
20986W        W38510   0.254   0.064  11.442  0.0025  0.2163  0.1516
20987W        W38511  16.660   3.784   1.014  0.1104 -0.2052  0.0349
20988W        W38512  12.594  17.209   3.733  0.2555  0.0314  0.0086
20989W        W38513  12.793  11.392  10.440 -0.0066  0.0698  0.1465
20990W        W38514  12.037   4.129  12.864  0.0169  0.0964  0.0346
20991W        W38515  13.525   6.392  13.341 -0.0609 -0.0770  0.0470
20992W        W38516   8.652  10.409   2.189 -0.1276  0.4334  0.2237
20993W        W38517  17.122   2.564  12.934  0.1236 -0.0200 -0.0852
20994W        W38518  14.866  12.172  13.558 -0.0820 -0.2218 -0.0412
20995W        W38519   3.335  15.446   3.834  0.0568 -0.0043  0.2067
20996W        W38520  12.096   9.134   4.323 -0.1623  0.0557  0.0005
20997W        W38521  15.472   4.222   1.945 -0.2552  0.3726  0.1115
20998W        W38522  14.981   1.133  11.835  0.2820  0.0268  0.0693
20999W        W38523  14.235  10.315   2.101 -0.1014 -0.0538 -0.0725
21000W        W38524   6.541   4.593  15.660  0.3229 -0.0542  0.2073
21001W        W38525   0.027  10.690   0.147  0.2103 -0.0838  0.0021
21002W        W38526   3.836  15.563  14.968  0.2012  0.0738  0.0631
21003W        W38527   5.154   7.045   1.964 -0.0428  0.0406 -0.0291
21004W        W38528   2.990  11.913  10.202 -0.2843 -0.3160 -0.1210
21005W        W38529   4.401   6.317   3.246  0.0443 -0.0062 -0.1040
21006W        W38530  15.575  10.753  14.412 -0.0358 -0.0383  0.0021
21007W        W38531   1.369  13.416  12.959  0.1450 -0.1156  0.0225
21008W        W38532   1.281  14.688   0.764  0.2009  0.1211  0.3683
21009W        W38533  15.020   5.661   2.845  0.2020  0.2327 -0.1309
21010W        W38534  15.399   9.208   3.705  0.1273  0.0528  0.0098
21011W        W38535  10.337  14.972   1.290 -0.1126  0.5608 -0.2918
21012W        W38536   1.776   2.343   0.378 -0.1034  0.1292 -0.0102
21013W        W38537  14.052   8.650   4.294  0.1489  0.1138  0.0207
21014W        W38538   3.092  10.490   2.492  0.1748  0.1324  0.2836
21015W        W38539   9.704  11.919   2.573 -0.2143 -0.4105 -0.1680
21016W        W38540   7.676  14.898   3.332 -0.0403 -0.0111 -0.2159
21017W        W38541  11.421  17.374  14.598 -0.1276  0.2381  0.2181
21018W        W38542   2.852  16.578  12.637  0.0291  0.0564  0.0217
21019W        W38543   7.313   7.077  15.664  0.0825 -0.2982  0.0948
21020W        W38544   5.898   2.700  11.492  0.0676 -0.0137  0.3115
21021W        W38545  12.866  14.867  10.968  0.1569  0.3555 -0.1448
21022W        W38546  12.225   9.364   3.115  0.0114 -0.2750  0.4582
21023W        W38547  16.801  14.713   3.559 -0.0517 -0.0413  0.0565
21024W        W38548  16.538   5.935   4.321 -0.0331  0.1181 -0.1623
21025W        W38549   8.069   6.437   2.331 -0.1715 -0.1063  0.3269
21026W        W38550   0.535  15.320   2.045  0.0535  0.3266 -0.2117
21027W        W38551   1.564   7.806   4.361  0.0203  0.1835 -0.1021
21028W        W38552   4.147  14.041   3.298  0.0496  0.2675 -0.0641
21029W        W38553   1.793   8.800   3.886  0.0340 -0.2604 -0.0360
21030W        W38554  12.439   4.643  11.800 -0.0266 -0.1964 -0.1815
21031W        W38555  11.980  15.902  13.129  0.1260 -0.0543 -0.0025
21032W        W38556  16.167  16.393   3.909  0.0438 -0.2134  0.0427
21033W        W38557   7.583  12.648  12.159 -0.2599 -0.2069  0.2450
21034W        W38558   5.092   2.042  15.560  0.1932  0.5108  0.3463
21035W        W38559  15.722  15.588   3.869 -0.3720 -0.0599 -0.0893
21036W        W38560  15.169   4.620   4.196  0.1539 -0.0435 -0.0202
21037W        W38561  16.062  10.196   5.744 -0.0990  0.0053  0.4282
21038W        W38562   2.257   4.212   3.329  0.1145  0.2964  0.2221
21039W        W38563  16.498  16.626  15.569 -0.0409  0.0349  0.0009
21040W        W38564   2.048   9.459   1.064  0.1778  0.1277  0.1899
21041W        W38565  11.450  16.072   2.229 -0.2485  0.2199 -0.0260
21042W        W38566   5.220   2.109   1.550  0.0713 -0.1771 -0.1993
21043W        W38567  15.805   4.034   4.151  0.0598 -0.0717  0.3133
21044W        W38568   3.588   8.516  14.145  0.1538  0.2562  0.0070
21045W        W38569  12.206   1.984   2.751  0.0518 -0.1232 -0.0451
21046W        W38570   7.596  11.360  12.407  0.0213 -0.1968  0.1343
21047W        W38571   1.717  15.809  11.409  0.2674 -0.0278  0.2324
21048W        W38572   5.199  11.475   3.745 -0.3631  0.0140 -0.0963
21049W        W38573   7.327   1.741  13.251 -0.1425  0.1500 -0.0311
21050W        W38574  15.349   3.130  11.479  0.1890  0.2373 -0.3953
21051W        W38575  11.234   4.554   4.119 -0.0906 -0.1192 -0.1510
21052W        W38576   5.238  17.688  11.290 -0.0736  0.1073 -0.0731
21053W        W38577   3.593   0.961   1.681 -0.2152  0.3401 -0.0000
21054W        W38578  10.862  14.314   2.788  0.2547  0.5050  0.0875
21055W        W38579  15.132  10.849   0.639 -0.1629  0.2617 -0.1289
21056W        W38580   1.862   2.290  11.152  0.2767  0.0581  0.2705
21057W        W38581  18.059   5.896   0.065  0.1662  0.1721 -0.2166
21058W        W38582   6.535   7.276   5.072 -0.1549 -0.2045  0.2179
21059W        W38583  15.889  17.201  15.610  0.0666  0.0880 -0.0567
21060W        W38584  18.076  16.534   3.081 -0.1603 -0.0759  0.0650
21061W        W38585   7.672  11.769  11.442  0.1651  0.0166  0.0517
21062W        W38586   2.445   6.792  12.464  0.2815 -0.2128 -0.2787
21063W        W38587  11.230   7.946  11.585 -0.0512  0.0036 -0.2673
21064W        W38588  11.677   5.943   3.470  0.0440  0.1813  0.3980
21065W        W38589  16.259  13.790   6.047 -0.2299  0.1029 -0.2451
21066W        W38590   4.160   6.150   1.489  0.2403 -0.0991 -0.1440
21067W        W38591  16.326   1.630  15.663 -0.1535 -0.0928  0.1986
21068W        W38592   2.540   4.584  12.229  0.6261 -0.0058 -0.2358
21069W        W38593  11.685  16.855  13.879  0.3890 -0.0853  0.0565
21070W        W38594  11.200  13.266  13.503  0.1421  0.0236 -0.0045
21071W        W38595  10.777   5.362   5.632  0.0104  0.1612  0.0429
21072W        W38596  15.870   1.809   0.446 -0.0857  0.1745  0.1178
21073W        W38597  12.739  14.692  11.973  0.1411 -0.0476 -0.1701
21074W        W38598   6.840   9.672   4.184  0.2618  0.2137  0.0887
21075W        W38599   7.369   5.858  12.102  0.1154 -0.0556  0.1060
21076W        W38600   5.927   8.204   4.439  0.4647  0.0650  0.2637
21077W        W38601  11.513  10.123   4.603  0.0761  0.1358 -0.1754
21078W        W38602  11.982  17.194  12.097 -0.0587 -0.0203 -0.0272
21079W        W38603   8.990   8.282  12.166  0.0786  0.1602 -0.3086
21080W        W38604   1.349   8.906   1.159 -0.3029  0.2118  0.1386
21081W        W38605   7.892  12.913  13.557 -0.0154  0.1625 -0.1284
21082W        W38606   3.363  11.753  13.996 -0.2176  0.1175  0.0988
21083W        W38607   8.459  15.374   0.787 -0.0246 -0.0713  0.0225
21084W        W38608   2.236  11.184  11.436 -0.2275 -0.1332  0.3943
21085W        W38609   7.768   8.601   2.718  0.2069  0.0741  0.0504
21086W        W38610   1.087   6.019   4.929 -0.1622 -0.2159  0.0631
21087W        W38611  12.871   7.890  11.454 -0.0195  0.1558 -0.0813
21088W        W38612  12.416   3.229  11.875 -0.0474  0.1481 -0.1631
21089W        W38613   3.175   7.496  11.087 -0.1569  0.1626  0.3623
21090W        W38614   5.691  16.221  12.810 -0.2282 -0.1790 -0.0411
21091W        W38615   9.312  17.213  15.035  0.1771 -0.3551 -0.0281
21092W        W38616  17.917   5.316   5.265  0.1550  0.1156 -0.0121
21093W        W38617  10.846  13.868  15.432 -0.1184  0.1908  0.3451
21094W        W38618   7.590   0.419   1.106 -0.1265 -0.1946 -0.2747
21095W        W38619   3.416   3.177  14.826 -0.1899 -0.1364 -0.0401
21096W        W38620  10.425  11.384   2.229 -0.0188  0.2974 -0.1163
21097W        W38621   5.539   6.321   2.889  0.0131 -0.0295  0.1698
21098W        W38622   3.260   2.727  13.254 -0.1503 -0.2815  0.0184
21099W        W38623   0.746  14.515   1.846 -0.3255  0.1754  0.0096
21100W        W38624   2.277  16.984  15.184 -0.1176  0.1794  0.1901
21101W        W38625  15.367   8.608   5.223  0.1166  0.0447  0.0397
21102W        W38626  17.817   6.071  14.047  0.2916  0.2552  0.0164
21103W        W38627   0.848   0.341   2.608  0.1330 -0.2676 -0.1403
21104W        W38628   9.363   3.390  12.588  0.0546 -0.3145 -0.0028
21105W        W38629  11.395  17.055   0.879  0.0739  0.0250  0.3174
21106W        W38630   9.353  17.479   2.934  0.0786 -0.2694 -0.1017
21107W        W38631   7.146   8.485  12.753 -0.1421  0.2528  0.0447
21108W        W38632   4.521  16.926  10.714 -0.0716  0.1932 -0.1598
21109W        W38633  16.589   4.626  14.904  0.1126 -0.0132 -0.1480
21110W        W38634   9.984  12.948  11.026  0.2017  0.0875  0.1895
21111W        W38635  10.799  11.017  15.627 -0.2490 -0.0852  0.0112
21112W        W38636  17.235  10.498   3.753 -0.1897 -0.1503  0.4020
21113W        W38637  11.706  12.897  12.313 -0.1250  0.1309  0.0783
21114W        W38638  15.079   4.705  13.141 -0.2635  0.3524  0.2237
21115W        W38639   7.363   3.863   2.711 -0.0113  0.1230  0.1888
21116W        W38640  13.398   9.822   1.877 -0.0800 -0.1728 -0.3923
21117W        W38641   0.387   2.295   2.062  0.2622  0.3557  0.0372
21118W        W38642   3.723  10.847   0.312  0.0005 -0.0220 -0.0773
21119W        W38643   9.785  12.583   5.188 -0.0735 -0.0795  0.2222
21120W        W38644  17.256   1.058   2.035 -0.3061  0.2344 -0.0543
21121W        W38645   8.254  17.047   3.228 -0.1854  0.0862 -0.0714
21122W        W38646   4.757  14.053  14.058  0.1865  0.1527  0.1662
21123W        W38647  13.125   3.982   1.501 -0.0643 -0.1909 -0.0296
21124W        W38648  13.490  17.734   3.901 -0.2676  0.1605  0.1843
21125W        W38649  13.868   5.563  12.210 -0.0534  0.0208 -0.6120
21126W        W38650  18.044   8.240  15.269  0.0222 -0.0853  0.0966
21127W        W38651   1.732   7.248  13.689  0.1039  0.0024  0.1685
21128W        W38652  13.145  12.493  13.039  0.1895  0.1764 -0.2097
21129W        W38653   1.322  12.407   1.780 -0.1464  0.0675  0.0018
21130W        W38654  16.317   6.800   0.018 -0.0355 -0.0196  0.2043
21131W        W38655   6.974   2.117   3.866  0.3787 -0.1106 -0.1557
21132W        W38656  10.942   3.659   2.500  0.1815  0.2347 -0.2221
21133W        W38657   1.752   5.631   2.529  0.1532  0.0272  0.0606
21134W        W38658   0.603   4.623  11.248 -0.1868  0.1288 -0.2090
21135W        W38659  10.327   8.665   5.507  0.0075 -0.1850  0.1872
21136W        W38660   1.165   1.767   0.630 -0.1103 -0.4330 -0.1305
21137W        W38661  15.675  11.821  15.530 -0.1810 -0.1067  0.1146
21138W        W38662   8.304   3.899  15.392  0.0598  0.1126 -0.0045
21139W        W38663  12.710   2.636  15.064 -0.1153  0.2858  0.0390
21140W        W38664   7.406  10.257  14.499 -0.2514  0.1233  0.0515
21141W        W38665   5.033   4.297  12.014  0.1442 -0.0156 -0.1847
21142W        W38666   9.825   0.005   0.151 -0.2313 -0.1993 -0.3421
21143W        W38667   1.256   0.519  13.818  0.2546 -0.2759  0.0691
21144W        W38668   6.909  13.676  15.143 -0.0791 -0.3398  0.2630
21145W        W38669   7.151  16.372   3.278 -0.2139  0.2233 -0.0511
21146W        W38670   5.794  14.381   1.926  0.2534 -0.1871  0.2210
21147W        W38671  17.437   8.311  15.899 -0.1882  0.1797  0.1281
21148W        W38672  15.539  12.451  13.911 -0.0344 -0.0610  0.2699
21149W        W38673  17.078   6.017  11.671  0.2688  0.1474  0.1980
21150W        W38674   6.136  17.178   5.316 -0.0356  0.2604  0.3640
21151W        W38675  11.620  10.070  15.969  0.1414  0.0024  0.0660
21152W        W38676   6.064  12.383   4.152 -0.0277 -0.1825  0.0534
21153W        W38677  13.985  13.736   0.089  0.2372 -0.0693  0.0910
21154W        W38678   8.382  15.181   4.462 -0.2885 -0.2775 -0.5541
21155W        W38679   7.974   0.749   1.690  0.2648 -0.1168  0.0977
21156W        W38680  11.638   5.158  11.452 -0.3377 -0.0828  0.2416
21157W        W38681   4.285  17.856   4.442  0.0006 -0.1142  0.3264
21158W        W38682   0.620   9.195  15.846  0.1741  0.1013  0.2170
21159W        W38683   7.212  11.525   0.284 -0.3455  0.0861 -0.1711
21160W        W38684   8.245   9.939   6.030  0.1424 -0.0420  0.2288
21161W        W38685  16.058  12.727  11.553 -0.1171 -0.2850 -0.1496
21162W        W38686   3.677   1.949   1.494 -0.0412 -0.1008 -0.0327
21163W        W38687   6.734   2.869  13.127 -0.0521 -0.0931 -0.1872
21164W        W38688   4.391   7.898  13.461 -0.0543 -0.0633 -0.0372
21165W        W38689  11.393   4.465   4.590 -0.1782 -0.1861  0.0332
21166W        W38690   3.354   2.644  12.282 -0.0594 -0.0591 -0.0507
21167W        W38691   9.834   3.196  15.267  0.1865  0.3033 -0.0843
21168W        W38692   5.492   8.072   2.583 -0.0895 -0.0427 -0.2570
21169W        W38693   4.933   8.036  15.495  0.1262 -0.1231  0.0151
21170W        W38694   2.887  14.004  14.389  0.0383 -0.0128  0.0518
21171W        W38695   1.136   7.368   3.853  0.0615 -0.1822 -0.0928
21172W        W38696  11.492  17.613  15.065  0.1689 -0.3409 -0.0697
21173W        W38697  15.283   3.803   1.823 -0.1869  0.2010  0.4082
21174W        W38698  14.838   5.813  11.222 -0.2877 -0.0142 -0.1429
21175W        W38699   9.174  13.329  11.415 -0.1228  0.3080 -0.0973
21176W        W38700  13.692   1.138  14.523  0.0337  0.1478 -0.0386
21177W        W38701  16.433  17.758   3.100 -0.3447 -0.1280 -0.4268
21178W        W38702  13.936   8.496   0.237  0.2886 -0.1683  0.2727
21179W        W38703  16.049   8.216  14.424 -0.2541 -0.0668 -0.2044
21180W        W38704   3.427   2.767   2.665 -0.2382 -0.1401  0.0470
21181W        W38705  12.407   6.336  15.439  0.0879 -0.3124  0.1383
21182W        W38706   5.732   0.588   3.022  0.3746  0.1495 -0.1040
21183W        W38707  13.810  12.839   0.452 -0.0591  0.3068  0.1148
21184W        W38708   1.521  13.023  13.866  0.0579  0.1302 -0.2192
21185W        W38709   8.667  11.978  15.612  0.1828 -0.1099  0.1707
21186W        W38710  14.372   8.482  13.569 -0.0286 -0.0814  0.1284
21187W        W38711  11.334  12.706   1.532 -0.2185  0.1296 -0.0231
21188W        W38712   1.001  10.252  13.683  0.0505 -0.1807 -0.0836
21189W        W38713   2.051   1.666   1.342 -0.0190  0.0271 -0.0394
21190W        W38714  16.855  15.529   4.667  0.0926 -0.3012  0.2536
21191W        W38715   7.186  10.474   1.147  0.0837  0.3372 -0.0056
21192W        W38716  17.789   7.161  15.847  0.1979  0.1405  0.0754
21193W        W38717   6.532  11.023   3.758 -0.2208 -0.0270  0.1506
21194W        W38718   0.954   6.318  14.864  0.3044 -0.1472 -0.1106
21195W        W38719  17.334   5.483   2.605  0.0256  0.1506 -0.3598
21196W        W38720   1.061  11.600   3.328 -0.0280  0.0378 -0.4421
21197W        W38721  13.271   5.315  14.868  0.4590 -0.1389 -0.2822
21198W        W38722   4.164   1.654  13.713 -0.0699  0.0515  0.0535
21199W        W38723   9.389  11.568  14.957  0.0761  0.0522 -0.0069
21200W        W38724   4.120  14.194  14.591 -0.2459 -0.4137 -0.0324
21201W        W38725   5.036  15.039  14.086 -0.0052 -0.0373  0.2179
21202W        W38726  12.494   7.854  11.855  0.0294  0.2008  0.0314
21203W        W38727  14.995   7.654   2.985 -0.1063  0.0490 -0.1059
21204W        W38728  17.380  10.168  15.623 -0.1101 -0.1097  0.1396
21205W        W38729   1.610   8.084   3.930 -0.1034  0.1887 -0.3195
21206W        W38730  13.098  17.371   2.213  0.1657 -0.0232 -0.3089
21207W        W38731   7.390   0.909  14.616 -0.2837 -0.2291 -0.0325
21208W        W38732  17.359  10.619   4.653 -0.3745 -0.3825  0.2646
21209W        W38733  10.621  10.549   3.509 -0.0332 -0.0131 -0.0346
21210W        W38734  10.243  10.393  11.884 -0.1677  0.1642  0.2225
21211W        W38735   6.405   3.904  11.970  0.0611  0.2629  0.1029
21212W        W38736   6.950  17.265   2.664  0.0974  0.0437 -0.0830
21213W        W38737  15.920  12.314  15.729 -0.0778 -0.0149  0.1986
21214W        W38738   3.269   5.907   4.707 -0.0438 -0.0261 -0.0996
21215W        W38739   2.227   7.305   5.487 -0.0696  0.0075  0.1362
21216W        W38740  12.034   4.445  13.608 -0.4175  0.1061  0.2134
21217W        W38741  14.077  17.573  15.483  0.0002  0.2885  0.2291
21218W        W38742   0.067   5.075   3.393  0.2751 -0.2313  0.0436
21219W        W38743   1.468   7.942   1.689  0.0614  0.2864  0.0805
21220W        W38744   3.236   7.122   0.774 -0.3998 -0.0149  0.1316
21221W        W38745   7.668   9.915   5.135  0.1953  0.2573 -0.1187
21222W        W38746   8.065  13.241   9.890  0.0112 -0.0040 -0.0091
21223W        W38747  14.600   3.344   2.011 -0.1149 -0.0342  0.1123
21224W        W38748   5.670   6.434   3.517  0.1683  0.0045 -0.0118
21225W        W38749  15.889   0.213   4.222  0.0035 -0.2996 -0.0709
21226W        W38750   8.152  11.108  15.560  0.1031  0.1631 -0.0655
21227W        W38751   9.688  17.825  13.708  0.2036 -0.1015 -0.0634
21228W        W38752  17.955  11.519   0.733 -0.0622  0.2891  0.1011
21229W        W38753   8.294   3.203  10.686 -0.2645 -0.1592 -0.2750
21230W        W38754  15.155   5.650  13.069  0.2097 -0.0920  0.0287
21231W        W38755   4.889   3.696   1.799  0.2891  0.1350  0.0668
21232W        W38756  11.483   7.190   4.459 -0.1743 -0.2567 -0.0407
21233W        W38757   8.288  16.436  11.075 -0.1664  0.3034 -0.2536
21234W        W38758  15.221  15.710   2.625 -0.4031  0.0002  0.3343
21235W        W38759   1.049   3.010  11.281  0.5369  0.0644  0.1414
21236W        W38760  15.002   0.697  13.623  0.0402  0.0968  0.1039
21237W        W38761  10.911  13.996   4.479 -0.0271 -0.3503 -0.1691
21238W        W38762   6.591  17.088  12.550  0.1659  0.0737  0.0630
21239W        W38763  13.680   7.227   4.339  0.0582  0.0242  0.0585
21240W        W38764   7.145   6.321   1.462  0.0645 -0.1380  0.0076
21241W        W38765  11.568  10.644   4.496  0.1403  0.2126 -0.0061
21242W        W38766   7.387  18.080   1.125  0.3393  0.2772 -0.2747
21243W        W38767   6.949   7.982   3.669 -0.1734  0.1005  0.0057
21244W        W38768   3.888   0.266   4.590  0.0348  0.0598 -0.0446
21245W        W38769   2.610  17.722   2.007  0.1762 -0.2091  0.0955
21246W        W38770   2.160   3.541   4.782 -0.1994  0.2826 -0.0878
21247W        W38771   2.975   5.709  11.757  0.1058 -0.2173 -0.4338
21248W        W38772   1.606   4.914  11.777 -0.1836  0.0825 -0.2096
21249W        W38773  11.474   9.457  11.718 -0.2034 -0.0430 -0.4678
21250W        W38774  14.251   3.718  14.729 -0.1745  0.2328  0.2315
21251W        W38775   4.816  15.817  11.109 -0.2816 -0.1312  0.2524
21252W        W38776   6.897   1.756  11.306  0.2408  0.2065  0.0475
21253W        W38777  14.279   5.612  11.733  0.3699  0.1962 -0.0080
21254W        W38778  15.399   4.619  11.845 -0.1722 -0.1562 -0.0709
21255W        W38779  14.374   3.094   0.825 -0.0029  0.0570  0.3938
21256W        W38780  13.609  12.498  16.033 -0.2025 -0.2387 -0.2177
21257W        W38781   8.569  11.662  12.495 -0.1811 -0.0777  0.0054
21258W        W38782  12.182   9.438  15.657  0.0817  0.3896  0.1687
21259W        W38783   6.370  15.979  13.357 -0.4349 -0.0930  0.1833
21260W        W38784  14.545   6.356  12.785 -0.0488  0.0131  0.1995
21261W        W38785  17.142   7.858  14.869 -0.3210  0.3309 -0.0362
21262W        W38786   2.094  11.128  10.947  0.1830 -0.2758 -0.0434
21263W        W38787   7.191   4.025   0.676 -0.2298  0.2093 -0.0775
21264W        W38788   4.723   2.515  14.683  0.0341 -0.1074 -0.1913
21265W        W38789  17.860   4.296   2.269  0.2732 -0.3053  0.1528
21266W        W38790   6.864  14.108  15.872  0.0127  0.5299  0.1100
21267W        W38791   0.515  17.623  14.221  0.0806  0.0706 -0.1586
21268W        W38792  14.971   9.541   4.941 -0.0672  0.2450  0.1656
21269W        W38793  16.625   8.704  15.816  0.2388 -0.0894  0.0324
21270W        W38794   0.504  11.340  15.385 -0.0555 -0.0801 -0.4525
21271W        W38795  10.061   6.045  15.069  0.0542 -0.0360 -0.0991
21272W        W38796  15.004   2.192   3.594 -0.1965 -0.0121 -0.3430
21273W        W38797  14.456   6.925  12.810  0.1693 -0.0534 -0.1819
21274W        W38798  11.235  12.330  11.312  0.1003 -0.1285 -0.2768
21275W        W38799  13.179   3.393  12.017  0.2005  0.1872  0.1608
21276W        W38800   1.439  12.942   0.769  0.4883  0.1194 -0.0896
21277W        W38801   5.906  18.007  15.989 -0.0712  0.0355 -0.0287
21278W        W38802  11.194  13.447  14.661  0.0087  0.3795  0.1890
21279W        W38803  12.916  14.012   3.299 -0.3168 -0.2214 -0.2875
21280W        W38804  15.863  15.752   3.398 -0.0701  0.1357 -0.0578
21281W        W38805   7.210  15.435  15.233  0.1035  0.0603 -0.1823
21282W        W38806   8.501  15.060  15.895  0.1794 -0.2245 -0.1907
21283W        W38807  16.867  16.583   2.104  0.1170 -0.0611 -0.1026
21284W        W38808   1.963  14.437   4.554 -0.2374  0.0698  0.2654
21285W        W38809  16.073   9.549   1.724 -0.1095  0.3782 -0.1188
21286W        W38810  14.882  14.524  11.508 -0.1021  0.0968  0.2354
21287W        W38811  10.449   9.695   4.502  0.1045 -0.2707  0.0308
21288W        W38812  14.124   6.965  14.401 -0.2505 -0.4001  0.0350
21289W        W38813  17.997  15.554   0.760  0.1676  0.0612  0.0487
21290W        W38814   9.847  12.855   1.190 -0.0517 -0.0234  0.1530
21291W        W38815  13.773   7.498   1.602 -0.1797 -0.1555 -0.2175
21292W        W38816   8.988  11.527  14.619  0.0921  0.2470 -0.2284
21293W        W38817  12.312  15.492  14.627 -0.3601 -0.0859 -0.2560
21294W        W38818  13.897  12.551  14.238  0.0776 -0.2156  0.2118
21295W        W38819  15.142  16.645  12.637  0.2682 -0.0508 -0.0098
21296W        W38820  17.741  17.183  11.359  0.0228 -0.0502  0.0999
21297W        W38821   9.622  14.362  13.633  0.1275  0.0806 -0.2070
21298W        W38822   5.256   5.177  13.796 -0.2805 -0.0237  0.2433
21299W        W38823  16.987  12.390  11.424 -0.0429 -0.0465 -0.1550
21300W        W38824  12.281   2.582   4.312 -0.0559 -0.1820  0.2498
21301W        W38825   2.073  14.258   1.130 -0.0358  0.1503  0.1162
21302W        W38826   5.697   1.200   1.520  0.1163 -0.5260 -0.0284
21303W        W38827  13.463  17.664  11.293 -0.0017  0.3832 -0.2854
21304W        W38828   7.636  14.797  14.073  0.1137  0.0410 -0.1455
21305W        W38829   7.584  10.177  15.058 -0.2099  0.0356 -0.0180
21306W        W38830   8.726   1.254  13.765 -0.0685  0.1601  0.0922
21307W        W38831  11.643   8.107   3.190  0.0376 -0.0082  0.0048
21308W        W38832   5.937   7.563   0.770 -0.0590  0.1010 -0.0769
21309W        W38833  10.717   0.180  11.892 -0.0591  0.0023 -0.1513
21310W        W38834  15.060   1.382   0.988 -0.2687 -0.1372 -0.1256
21311W        W38835   6.322  15.894   5.146 -0.2279 -0.1291  0.0164
21312W        W38836  17.030   2.777  12.189 -0.1227  0.1460 -0.1318
21313W        W38837  12.393   8.040   0.719  0.0847 -0.0754 -0.2618
21314W        W38838   0.026   6.475  11.001  0.3423 -0.2081  0.1029
21315W        W38839  13.588   9.387   3.636 -0.2273 -0.2680 -0.3084
21316W        W38840  14.138   6.719   1.269  0.4831  0.1664 -0.2784
21317W        W38841  13.038  13.925   0.315 -0.0655  0.3281 -0.4487
21318W        W38842   9.924   2.076   1.433 -0.0137 -0.0226  0.2329
21319W        W38843   5.314  13.854  12.441 -0.1048  0.0756  0.0144
21320W        W38844   9.080   8.795   2.848  0.0490  0.2859  0.1223
21321W        W38845  13.081   8.234   4.165 -0.2476  0.1154  0.0710
21322W        W38846   6.158   7.923   0.970  0.2141  0.0768  0.0915
21323W        W38847   4.433  16.292   1.642  0.0667  0.0653  0.1648
21324W        W38848  10.343   1.920   2.605 -0.1528  0.0006  0.3388
21325W        W38849   5.640  14.718  13.546 -0.1382  0.0578  0.1265
21326W        W38850   6.745  10.615  13.161 -0.2161 -0.1614  0.0036
21327W        W38851   3.486   7.990  12.262  0.0786 -0.1587 -0.0623
21328W        W38852  16.104  10.542  14.361 -0.2309 -0.0721 -0.0224
21329W        W38853  10.449   1.747  13.915 -0.0782 -0.3017  0.1569
21330W        W38854  15.247   4.431   3.225 -0.2294 -0.1464 -0.6875
21331W        W38855   4.518   2.854   2.605  0.0912  0.0992 -0.3289
21332W        W38856  16.194  12.320   0.418  0.2450 -0.1163 -0.0184
21333W        W38857  12.108   2.426  12.321  0.1297  0.1680 -0.2898
21334W        W38858   7.122   5.478  14.804  0.1426  0.3608 -0.2506
21335W        W38859  15.066  17.611   4.534  0.3364 -0.1203  0.1653
21336W        W38860   1.939   8.974   0.303  0.0429 -0.2818  0.1897
21337W        W38861   1.908  15.988  13.467 -0.3211 -0.1303 -0.0603
21338W        W38862  14.719   1.217   2.395 -0.4237  0.1825 -0.1564
21339W        W38863   9.655   0.776   2.738  0.0398 -0.0017  0.0405
21340W        W38864   7.786   6.607  11.176  0.1729 -0.0496  0.1986
21341W        W38865   7.489  13.837   1.432 -0.1423 -0.0009  0.0026
21342W        W38866   1.110   9.051   4.209  0.0634  0.1012 -0.3193
21343W        W38867   8.259  16.814  14.445  0.2870  0.2259 -0.2776
21344W        W38868  11.992  11.884   1.556 -0.2564  0.0812 -0.0581
21345W        W38869   4.725   6.224   0.835 -0.1333 -0.1251  0.1413
21346W        W38870  10.597  17.599  14.211 -0.0823  0.3651  0.0680
21347W        W38871   2.422  11.689   3.424  0.1050  0.1150 -0.0288
21348W        W38872   9.348   4.266   0.564 -0.5202 -0.1904 -0.0562
21349W        W38873  13.688  15.981   5.782 -0.0759  0.1724  0.0713
21350W        W38874  16.219   9.729   5.892  0.0097 -0.1649  0.0329
21351W        W38875  12.374  16.760  12.897 -0.0107 -0.1290  0.1569
21352W        W38876   0.054  15.769  15.307 -0.0103 -0.0736 -0.1651
21353W        W38877  11.588   2.721   2.990  0.4487  0.0802  0.1070
21354W        W38878  14.937  17.991  13.192  0.0900 -0.0212  0.0429
21355W        W38879  11.296  16.919   1.360 -0.0044  0.0869 -0.1981
21356W        W38880  15.506   0.678  13.487 -0.0594  0.4268  0.0926
21357W        W38881  15.646  17.022  12.157  0.1616  0.3663 -0.1304
21358W        W38882   1.669  17.011   2.929  0.0937  0.0552 -0.1000
21359W        W38883  15.894  16.334   1.255 -0.3921 -0.3709 -0.2600
21360W        W38884  17.634  11.641  14.956 -0.0135  0.2008  0.0510
21361W        W38885   8.910   8.743  11.334 -0.2092  0.1063  0.1402
21362W        W38886  14.334  11.460   4.290  0.0769  0.0919 -0.0714
21363W        W38887  11.961  14.923   1.707  0.2046 -0.3290  0.1193
21364W        W38888  10.159  15.560   2.304 -0.0743 -0.0666  0.1861
21365W        W38889  15.716  14.209   1.774  0.2128  0.0916  0.0852
21366W        W38890   2.635   8.276  14.055 -0.0331 -0.3093 -0.1763
21367W        W38891   4.474   4.174  12.003 -0.1979 -0.0759 -0.1781
21368W        W38892   1.743  10.261   1.607  0.1661 -0.0334  0.0466
21369W        W38893   2.888  17.939   0.936  0.2994  0.1878 -0.0570
21370W        W38894   4.452   1.987  11.002  0.3045  0.1334  0.1041
21371W        W38895  17.847  12.934  15.330  0.2466 -0.2462  0.1880
21372W        W38896   0.180  13.220   1.917 -0.0356  0.0455 -0.1917
21373W        W38897  10.351  17.597   3.928  0.4812 -0.0688 -0.0315
21374W        W38898   9.304   7.220   5.201 -0.0595 -0.2268 -0.2430
21375W        W38899  14.655   4.910   3.022  0.0713 -0.0428 -0.0712
21376W        W38900   0.415   9.735   0.053  0.2917  0.0159 -0.2737
21377W        W38901   3.676  14.373  10.467 -0.0331 -0.0918 -0.1459
21378W        W38902  16.692  10.863   1.270  0.3700  0.0469 -0.1515
21379W        W38903   4.426   7.781  11.023 -0.3893 -0.3261  0.1361
21380W        W38904  11.822  16.922  11.674  0.1153 -0.0360  0.1957
21381W        W38905  16.907   5.101  12.615  0.1229 -0.1814 -0.3062
21382W        W38906   6.585  16.357  11.525  0.0091  0.1784 -0.0851
21383W        W38907  16.402  17.418   1.626  0.3281 -0.0949  0.0261
21384W        W38908   2.750   5.132  11.680 -0.1268 -0.0819  0.3319
21385W        W38909   6.691   2.832   0.729  0.1438  0.1706  0.3954
21386W        W38910  11.352   3.883  12.119  0.0073  0.1293  0.2127
21387W        W38911  12.098  11.236  12.918  0.1130  0.1786  0.2553
21388W        W38912   1.788   6.963   3.254 -0.2093  0.1688  0.0496
21389W        W38913   6.209  17.470   1.068 -0.1083  0.0360  0.6110
21390W        W38914   2.784   7.130   3.675  0.0190  0.0758 -0.2836
21391W        W38915   6.769   4.201   0.972 -0.2252  0.2380 -0.0787
21392W        W38916   4.182  13.527  13.621 -0.2002 -0.0758 -0.0024
21393W        W38917  16.791   8.177  14.930  0.2527 -0.0157 -0.0044
21394W        W38918   0.589  10.671   4.882  0.0943 -0.2813  0.1299
21395W        W38919   6.041   0.247   3.210  0.0985 -0.2331  0.4520
21396W        W38920   8.235   7.535  14.753 -0.1376 -0.0635  0.2960
21397W        W38921   8.467  11.068  15.124  0.0341 -0.0850 -0.1001
21398W        W38922  16.119   5.306  14.903 -0.0799 -0.1461 -0.1485
21399W        W38923  14.728  12.828   1.459  0.0479  0.0698  0.1580
21400W        W38924  10.016   3.263   0.207  0.3118  0.0254  0.0839
21401W        W38925  12.261  11.164   2.109  0.1760  0.1519 -0.0965
21402W        W38926  18.105   2.526   2.381 -0.0574  0.0238  0.0993
21403W        W38927   8.414   8.583   0.578  0.0726 -0.0330 -0.0348
21404W        W38928   2.323   2.152  14.347  0.1805  0.1684 -0.1940
21405W        W38929  11.476  15.189  10.929 -0.0240  0.0296 -0.0538
21406W        W38930  17.696   8.472   1.520  0.0450 -0.1171 -0.0697
21407W        W38931   7.473   0.537   0.589 -0.0784 -0.2695 -0.5392
21408W        W38932   7.004   5.057  11.527  0.0103 -0.0336 -0.0500
21409W        W38933   3.399   3.662  13.549  0.0547 -0.4307  0.0268
21410W        W38934  12.629   0.571  12.530  0.1085  0.5457  0.1027
21411W        W38935  12.252  16.127   5.534 -0.1426 -0.1941 -0.0061
21412W        W38936   3.850   9.966  11.762 -0.2542  0.2149 -0.0859
21413W        W38937   9.970  10.819  13.171  0.0014  0.0831 -0.2119
21414W        W38938   3.449  10.503   0.009 -0.2128  0.0569  0.0392
21415W        W38939   4.738   9.820  12.203  0.1522 -0.0701 -0.3486
21416W        W38940  17.067   5.447  13.031 -0.1276  0.1115  0.3975
21417W        W38941  17.150  17.056   0.338  0.2137 -0.0672  0.0737
21418W        W38942   1.738   8.444  15.557  0.0356 -0.0752  0.2524
21419W        W38943   4.953  10.390  11.199 -0.2654 -0.0913  0.1805
21420W        W38944   8.603   5.579   4.018  0.2012 -0.0449 -0.0482
21421W        W38945   2.590  12.250   2.326 -0.1617  0.4073 -0.0173
21422W        W38946  10.186  14.125   4.758  0.2293 -0.1992 -0.0819
21423W        W38947  11.127  14.061  12.458  0.0994  0.2070  0.1769
21424W        W38948  15.264   6.484  14.078 -0.1084  0.1968 -0.0173
21425W        W38949   7.275   0.837   0.962 -0.0912  0.0781 -0.0191
21426W        W38950   0.532  15.670  14.073  0.0652 -0.1962 -0.1477
21427W        W38951  15.593  11.228   3.768 -0.2177  0.1895  0.1038
21428W        W38952   7.003   0.907   2.275  0.0173  0.1537 -0.1717
21429W        W38953   8.049   2.381   2.473 -0.1677 -0.2880 -0.0154
21430W        W38954   0.284  14.605   1.031 -0.0821 -0.0305 -0.0755
21431W        W38955   2.108   9.511   5.598 -0.1463  0.1406 -0.0364
21432W        W38956  13.353  11.835  11.682 -0.3485  0.2051 -0.1233
21433W        W38957  13.048   9.646  14.321 -0.3035 -0.0468 -0.0341
21434W        W38958  15.929   0.658  12.624 -0.1932  0.0726  0.2744
21435W        W38959   9.630   0.601   4.323 -0.0634 -0.0231 -0.0542
21436W        W38960   4.272  16.665   5.562 -0.1110  0.0549  0.2868
21437W        W38961   1.362   9.985  14.964 -0.1123  0.3195 -0.1922
21438W        W38962   0.664   1.481   2.471 -0.1948 -0.0019 -0.2172
21439W        W38963   5.785   8.226   3.932 -0.0806  0.0631 -0.0398
21440W        W38964   1.359   5.839  13.558 -0.0500  0.1145  0.3122
21441W        W38965   1.827   0.176   2.651 -0.0852  0.0446  0.1779
21442W        W38966   6.386  15.595   4.665 -0.3883 -0.2451  0.1255
21443W        W38967   0.146  16.616   3.531 -0.0519  0.2550  0.1529
21444W        W38968   3.400   0.020   1.690 -0.2090 -0.1745  0.1939
21445W        W38969   5.866  16.460   2.599  0.0069  0.1769 -0.2068
21446W        W38970  17.726  10.021   1.751  0.0615 -0.2593 -0.1327
21447W        W38971  14.997  14.344  12.388  0.1326  0.2481  0.1113
21448W        W38972   5.181   4.835  14.599  0.1624  0.1614 -0.0267
21449W        W38973  14.461  11.821   3.031 -0.1313 -0.0018 -0.0049
21450W        W38974   2.242   9.224  13.032 -0.0093 -0.2038 -0.0469
21451W        W38975  16.588   1.696   0.525 -0.1374 -0.0661  0.0259
21452W        W38976   2.736  11.836   2.620  0.0449 -0.0937 -0.0837
21453W        W38977   2.342   9.543  14.283  0.2119  0.0571  0.0918
21454W        W38978   4.933   0.866   1.090 -0.1881  0.0018  0.1902
21455W        W38979   6.026   3.276  10.788  0.1600  0.0164 -0.0191
21456W        W38980   5.483   3.894   0.166  0.0414 -0.1173  0.3800
21457W        W38981  14.651   7.479  15.952  0.0112 -0.0231  0.1872
21458W        W38982   4.623   8.542   4.685  0.0590 -0.2520 -0.0223
21459W        W38983   6.553   8.055  14.201 -0.4167  0.1637  0.2233
21460W        W38984   0.358   8.902   0.189  0.0003 -0.0625 -0.2380
21461W        W38985  11.214  10.528  15.086 -0.2562  0.0934  0.1802
21462W        W38986  17.747   9.469  14.994  0.0229  0.1489 -0.0615
21463W        W38987   9.221   4.135   2.368 -0.1675  0.2170 -0.0734
21464W        W38988  13.502  10.674  13.286 -0.3168  0.0641 -0.2074
21465W        W38989  17.241   7.542  11.561  0.3094  0.1277  0.0205
21466W        W38990   7.694   3.170  12.727 -0.0927  0.0309  0.0045
21467W        W38991   7.859  18.138  15.237 -0.0247  0.0378 -0.1517
21468W        W38992  17.152  15.718  15.167  0.0721 -0.1450  0.0614
21469W        W38993  13.092   4.954   5.510  0.0951 -0.0227 -0.0119
21470W        W38994   2.358  15.628  12.508 -0.2040  0.1939  0.0108
21471W        W38995  13.990   6.768  15.124  0.2138  0.3651 -0.1875
21472W        W38996  14.477  17.714   0.702 -0.1384  0.1657 -0.0502
21473W        W38997   6.337  11.845  12.886  0.0720  0.1270  0.1381
21474W        W38998  12.330  12.164  12.524  0.0343 -0.0261  0.1638
21475W        W38999   5.836  12.541   0.334  0.1460 -0.1114  0.1078
21476W        W39000   8.987   6.575   3.350 -0.1399  0.1992  0.0899
21477W        W39001   5.222  17.125  14.220 -0.1998  0.1296 -0.0649
21478W        W39002  14.969  12.689   1.010  0.0180  0.0823  0.1099
21479W        W39003   9.427  14.492   1.132 -0.0686  0.1096  0.1372
21480W        W39004  10.321   8.518  11.063 -0.2716  0.0170 -0.2305
21481W        W39005  13.251   2.388   4.218  0.0189 -0.2363 -0.0845
21482W        W39006   3.166   2.657   1.760 -0.1060 -0.0348  0.1439
21483W        W39007  13.243   6.251   3.459 -0.0627  0.1213  0.0400
21484W        W39008   3.079   4.243   3.933  0.1479 -0.1048  0.1251
21485W        W39009  12.910  12.885  12.173  0.2319 -0.1307 -0.2260
21486W        W39010   2.173  15.689   2.249 -0.1184 -0.0163  0.0635
21487W        W39011  17.654   2.145   1.270 -0.1628 -0.0905 -0.1209
21488W        W39012   1.280   3.215  13.003  0.0779  0.0739  0.0735
21489W        W39013   3.359   4.356   0.876 -0.1345 -0.0912 -0.0457
21490W        W39014  10.096  17.744   4.317  0.0822 -0.0140  0.0537
21491W        W39015   4.926   0.996  13.555 -0.0705 -0.2560 -0.0246
21492W        W39016  17.400   1.635  10.996  0.0289  0.0324  0.2362
21493W        W39017   1.953   7.647  14.550  0.5670  0.1636 -0.1202
21494W        W39018  12.976   9.151  14.734 -0.0881  0.0071 -0.2704
21495W        W39019  11.733   3.508   3.233 -0.0659  0.2154  0.2152
21496W        W39020   9.099  11.195  15.036 -0.0699  0.1336  0.1323
21497W        W39021  17.935  11.542   1.684  0.4245 -0.0412 -0.0255
21498W        W39022   3.005   1.448  15.235  0.0820 -0.0481 -0.1977
21499W        W39023   7.856   4.562  12.473 -0.1791  0.0759 -0.1937
21500W        W39024  13.606  14.187  13.036 -0.0361  0.1083  0.0052
21501W        W39025  16.919   4.199   1.380 -0.0020 -0.0366  0.1329
21502W        W39026  15.386   8.792  11.959 -0.2015 -0.0468  0.1162
21503W        W39027  16.282  12.974   3.337 -0.1503 -0.0856 -0.0966
21504W        W39028   9.196   0.598   2.667 -0.1600  0.0723 -0.1481
21505W        W39029   4.387  14.777  12.985 -0.1165  0.1148  0.0184
21506W        W39030   7.974  12.453  15.699  0.3010 -0.3354  0.1707
21507W        W39031  14.853  14.110  11.922  0.0022 -0.0517  0.0782
21508W        W39032   9.062   2.140  11.337  0.1980 -0.0931  0.0757
21509W        W39033   0.198   5.530   0.854 -0.1809  0.2149 -0.2605
21510W        W39034   6.807   3.505   4.079  0.2007 -0.0379 -0.1598
21511W        W39035   6.861   5.225   0.742 -0.0936 -0.2739 -0.2485
21512W        W39036   5.984  15.661   0.309  0.1960  0.1602  0.1445
21513W        W39037  16.920  15.394   2.674 -0.2966 -0.1442  0.0468
21514W        W39038   8.001   8.152  15.871 -0.1725  0.0475  0.3701
21515W        W39039  16.071   2.344  11.490 -0.4843  0.1336 -0.0256
21516W        W39040  10.767   9.265  11.901  0.1816 -0.0882 -0.1828
21517W        W39041  15.938  13.080   1.068  0.2091  0.1429 -0.1985
21518W        W39042   9.309   4.914  11.755  0.0209 -0.0848  0.0863
21519W        W39043   9.595   0.244   3.973  0.3102 -0.0923 -0.0352
21520W        W39044  11.251   4.576  14.712 -0.2026 -0.1031  0.1355
21521W        W39045   6.078   7.999  15.439 -0.1013  0.2007 -0.1770
21522W        W39046  13.865   2.843  11.523 -0.0360 -0.2662  0.0516
21523W        W39047   0.520   5.169   3.585 -0.0364 -0.1257  0.0783
21524W        W39048   2.615   5.511  12.563 -0.2393  0.0074  0.2480
21525W        W39049  10.846   2.673   0.430  0.1063 -0.0241 -0.2397
21526W        W39050  15.947   8.776  13.522  0.1887  0.0181 -0.3373
21527W        W39051  12.819   0.246   4.173  0.1876  0.0703 -0.0319
21528W        W39052  10.549   4.921   4.276  0.1655  0.1409  0.2383
21529W        W39053  12.520  17.981   4.104 -0.1457  0.1441  0.2140
21530W        W39054  15.754   4.461   0.026  0.0948  0.0260 -0.0140
21531W        W39055   5.100  11.570   0.831 -0.0271  0.2194  0.1488
21532W        W39056  16.474  11.123   3.486 -0.2048  0.0667 -0.0699
21533W        W39057  16.083   6.315  14.751  0.1780  0.0562 -0.2550
21534W        W39058  16.267   5.285  15.651  0.0162 -0.0646  0.0953
21535W        W39059  11.483  16.426   1.454  0.2834  0.0429  0.0135
21536W        W39060   8.424  17.141   0.589  0.0040  0.0796  0.4126
21537W        W39061   7.633  15.723  15.676 -0.0125  0.0772  0.0171
21538W        W39062  11.989   0.101  14.866 -0.0532 -0.0416 -0.0966
21539W        W39063   9.558  12.186   0.746  0.1473  0.2156  0.3709
21540W        W39064  16.371  11.464  14.163 -0.1590  0.0627 -0.1949
21541W        W39065  15.749   2.041  14.904  0.0609  0.2231  0.1210
21542W        W39066   4.320  17.011   3.233  0.1181 -0.4251  0.0963
21543W        W39067   3.861   5.799  14.019  0.0212  0.2338 -0.1760
21544W        W39068  11.314  17.723  13.116  0.2415 -0.0811  0.2155
21545W        W39069   0.326   4.550  14.831 -0.1088  0.0934 -0.0378
21546W        W39070  15.280   5.187  13.889  0.3533 -0.0186  0.1066
21547W        W39071   1.217   2.425  15.402 -0.0775  0.1002 -0.1250
21548W        W39072  15.907  12.114   3.210 -0.0758  0.0663  0.0031
21549W        W39073  12.726  12.999  13.750 -0.0947 -0.1151  0.5319
21550W        W39074  10.764  10.338   0.529 -0.0698 -0.3047  0.0081
21551W        W39075  17.346   4.194   5.731 -0.2467  0.0105 -0.1342
21552W        W39076   5.238  10.486   0.945 -0.1121  0.0079  0.0971
21553W        W39077   2.418   0.748   0.124 -0.2582  0.3173  0.0353
21554W        W39078  16.229  14.186   3.432 -0.1449 -0.0034 -0.1338
21555W        W39079  12.484   1.565   2.755  0.1029 -0.0540 -0.0255
21556W        W39080   5.114  17.100   4.321 -0.0238  0.1398  0.2031
21557W        W39081   9.810  14.775   1.463 -0.1165  0.2015 -0.1505
21558W        W39082  17.683  16.668  12.389  0.0276 -0.1636  0.2549
21559W        W39083   4.613  14.096   0.995  0.0157  0.1168  0.2424
21560W        W39084   7.118   3.807   1.226 -0.2053 -0.1476 -0.1461
21561W        W39085   1.125  17.674   2.123 -0.0479  0.0995 -0.2200
21562W        W39086  15.089   1.791  15.281  0.2674 -0.3488 -0.0329
21563W        W39087   8.632  11.208   1.724 -0.0107 -0.1046 -0.2725
21564W        W39088   4.780   5.096  14.759  0.1209  0.1489  0.0995
21565W        W39089  12.955  11.076   3.021 -0.0221 -0.2533 -0.0797
21566W        W39090   9.213   6.735   3.930  0.0987  0.0776  0.0470
21567W        W39091  17.668   9.750   0.497 -0.2170  0.1584 -0.1470
21568W        W39092   9.298  10.648  13.427 -0.1882  0.1598  0.0075
21569W        W39093  10.268   1.853  11.921  0.1522  0.1592  0.2091
21570W        W39094  11.020  14.644   4.594 -0.2332  0.2648  0.0020
21571W        W39095  16.643   4.009   3.056  0.0699  0.0450 -0.2334
21572W        W39096  15.356  14.001   0.067  0.0815 -0.4169  0.0897
21573W        W39097  12.886  10.583  11.994 -0.1155 -0.1475 -0.0589
21574W        W39098   9.320   1.461   3.166  0.0373  0.0723 -0.3547
21575W        W39099  17.351   7.474   0.533  0.0492 -0.0564 -0.0219
21576W        W39100  15.037   3.681   4.502 -0.0691  0.0736  0.2447
21577W        W39101  11.646  15.159  12.976  0.0059  0.0368  0.0951
21578W        W39102  16.804  11.920   0.987 -0.0292 -0.0723 -0.1465
21579W        W39103  17.750   3.786   2.110 -0.2661  0.2351  0.0775
21580W        W39104   8.062   2.359  12.775  0.3057 -0.1364  0.1756
21581W        W39105   9.941   3.617  12.446  0.4413  0.1586 -0.0491
21582W        W39106   2.148   7.362  11.586 -0.0557  0.2543  0.0888
21583W        W39107   3.565   7.789  11.035 -0.0028 -0.0717 -0.0400
21584W        W39108  10.226  12.596  11.407  0.0537 -0.0065  0.2200
21585W        W39109  12.739   7.254   4.825 -0.0705 -0.0557 -0.0279
21586W        W39110   8.136   9.714  12.189  0.3012 -0.4031 -0.0994
21587W        W39111   8.461   0.738   0.518 -0.2996 -0.0645  0.1118
21588W        W39112   9.797  11.282   4.497 -0.2678  0.0608  0.3264
21589W        W39113  11.413   7.786   5.119 -0.0072 -0.1608 -0.3416
21590W        W39114  11.204   3.074  12.496  0.0698 -0.0340  0.0173
21591W        W39115   5.819  16.993  15.367 -0.0255 -0.0488 -0.0297
21592W        W39116   9.352   1.293  12.733 -0.4932 -0.0163 -0.1019
21593W        W39117  10.998  14.962  13.977  0.0265  0.0881 -0.0847
21594W        W39118   9.939   6.487   3.819  0.0625  0.0170  0.0656
21595W        W39119   0.074  17.517  11.446  0.0650 -0.2037 -0.2685
21596W        W39120  13.049  17.334  12.562 -0.1064 -0.1241 -0.2305
21597W        W39121  13.152   6.069   4.921  0.1981 -0.2079 -0.2596
21598W        W39122   7.568   7.690   3.121 -0.0096  0.0871  0.0752
21599W        W39123   5.159   7.716  15.909  0.2138  0.0274  0.0735
21600W        W39124   4.527   3.746  15.010 -0.2177  0.0173 -0.0352
21601W        W39125   4.275   4.383   1.313 -0.5570  0.3426  0.0920
21602W        W39126   1.395   0.597   0.558  0.0969  0.0210 -0.2109
21603W        W39127  12.871  16.417   0.611 -0.1167  0.1168 -0.0892
21604W        W39128   2.629  11.017   0.646 -0.2439  0.1846  0.1815
21605W        W39129   9.235   9.856  10.233  0.0662  0.3931 -0.0575
21606W        W39130  10.480   6.384  14.889 -0.0523 -0.1794  0.0571
21607W        W39131   6.745  16.168   0.539  0.3029  0.0068 -0.3928
21608W        W39132  15.941   8.862   5.670 -0.2219 -0.0364 -0.0391
21609W        W39133   3.221   0.479  13.646 -0.0014  0.1875 -0.1626
21610W        W39134  10.438  11.126  14.417 -0.2218 -0.0331 -0.2119
21611W        W39135  10.345  15.556  13.589 -0.0874  0.0720 -0.1092
21612W        W39136  15.282   3.056   3.240 -0.2967 -0.0066  0.1144
21613W        W39137   9.492   8.790   0.453  0.1480  0.1803  0.3422
21614W        W39138   3.406   8.957   3.159  0.1713 -0.1716  0.1498
21615W        W39139   2.842   5.927  14.246 -0.1158 -0.2850  0.0086
21616W        W39140  15.372  18.117   0.440  0.2350 -0.0637 -0.0154
21617W        W39141   6.795  17.364   1.076  0.0684 -0.2751 -0.0368
21618W        W39142   6.147   2.776  14.583 -0.0474  0.0372  0.1035
21619W        W39143  17.204  11.658  12.743  0.3932  0.1539  0.2431
21620W        W39144  10.450  10.221   4.284  0.0059  0.1716 -0.1678
21621W        W39145   6.095  14.081   4.206 -0.2216  0.1504  0.0153
21622W        W39146   2.897   1.005   2.184 -0.0813  0.0742  0.0928
21623W        W39147  17.389   5.001   2.696 -0.0376  0.3573  0.0358
21624W        W39148   2.381   3.343   1.665  0.1667  0.1888 -0.1917
21625W        W39149  14.306  13.288  12.741  0.3823 -0.0776  0.1353
21626W        W39150   1.261   9.856  12.070 -0.2314  0.3556 -0.1578
21627W        W39151  12.295   6.746   4.055  0.0260  0.0321 -0.0896
21628W        W39152   3.284  12.633   0.338  0.0134 -0.1870  0.2158
21629W        W39153  12.253   8.144   2.253  0.0123 -0.0062 -0.0638
21630W        W39154  17.296  14.918  12.529  0.2931  0.2917  0.1138
21631W        W39155  14.587   5.363  15.020  0.2334  0.1028  0.0767
21632W        W39156  12.889  16.027   1.490  0.1840  0.3068  0.3556
21633W        W39157   0.146   4.716  13.027  0.1875 -0.1574 -0.4114
21634W        W39158   3.378  15.882  15.727 -0.1720 -0.1448 -0.1209
21635W        W39159   4.738   9.849   0.537  0.0074 -0.1085 -0.0520
21636W        W39160  10.783   3.929  12.907  0.0553  0.0148 -0.0177
21637W        W39161  15.232   8.740   3.483  0.0187 -0.1429  0.0012
21638W        W39162  17.196  11.942   0.632 -0.2327 -0.1457  0.0189
21639W        W39163   4.706   4.462   4.484  0.0970  0.1477 -0.2639
21640W        W39164  17.836  13.216  11.948 -0.2160  0.0715  0.4135
21641W        W39165   5.600  13.760   3.617  0.0655 -0.0916 -0.0721
21642W        W39166  15.214   1.271  13.014 -0.2450 -0.1163 -0.0613
21643W        W39167  12.422  13.646  12.220 -0.1693  0.1447 -0.2951
21644W        W39168   0.918   2.169   3.421  0.1289  0.0169  0.2064
21645W        W39169   6.891   9.870  14.327 -0.0210 -0.0152  0.0729
21646W        W39170   7.724   1.699   2.384  0.0981  0.0665  0.1527
21647W        W39171   3.575  15.564  13.390 -0.3055  0.0042  0.1855
21648W        W39172  16.880   6.032  11.198 -0.1264 -0.1358 -0.1330
21649W        W39173   9.092   5.654   0.595  0.0342 -0.2009 -0.1643
21650W        W39174   2.389   6.514  13.401  0.2868 -0.1233  0.2243
21651W        W39175  17.741   7.497  12.371 -0.0015  0.2803 -0.0862
21652W        W39176   2.916   8.184   2.747  0.2891  0.3013  0.0677
21653W        W39177   4.959   9.382  12.020  0.1795  0.0190 -0.2482
21654W        W39178  15.521   8.404  12.261  0.0136  0.0098 -0.1632
21655W        W39179   6.585  16.969   0.193  0.1109 -0.0804 -0.0142
21656W        W39180   1.774   3.651   4.019  0.0716 -0.0156 -0.0335
21657W        W39181   9.910  13.378   3.418  0.2004 -0.1921  0.3695
21658W        W39182   6.355  10.183   2.803 -0.2313  0.0502  0.2286
21659W        W39183   1.878  16.087   2.168 -0.0041 -0.3609  0.0505
21660W        W39184   5.484  12.316  14.308  0.0654  0.2370  0.0298
21661W        W39185   8.958  16.187  10.856 -0.0860 -0.2048 -0.2646
21662W        W39186  13.958  15.913  13.571  0.0742  0.2072 -0.1487
21663W        W39187   9.345   8.422  14.037  0.1831  0.2946  0.0473
21664W        W39188   7.749   1.892  13.027 -0.0262  0.0117  0.0354
21665W        W39189  10.164   0.400  11.666 -0.0196  0.0276 -0.0754
21666W        W39190   7.672  13.350  14.973 -0.0805  0.3097 -0.0402
21667W        W39191  15.756   3.410  11.771 -0.1199 -0.1564  0.2172
21668W        W39192  14.577   1.090   3.175 -0.1006  0.2416  0.2811
21669W        W39193   9.843  15.520  15.505  0.1501 -0.2120  0.3115
21670W        W39194   8.068   0.701  11.654  0.0536  0.1350  0.3007
21671W        W39195  13.550  15.701   1.991 -0.0485  0.2083  0.1895
21672W        W39196   7.761   2.341  14.093  0.0086 -0.1985  0.1693
21673W        W39197   7.521   9.179  15.313 -0.0522  0.0663 -0.0070
21674W        W39198  12.653  13.532   4.286 -0.0934  0.0051  0.0640
21675W        W39199   0.248   4.299   4.628 -0.2409  0.1808 -0.2644
21676W        W39200   7.800  14.685  15.148 -0.2011  0.2350 -0.2439
21677W        W39201   4.950  12.253   0.314  0.0743  0.1861 -0.1105
21678W        W39202   2.126   9.731   3.775  0.3729  0.0254 -0.1613
21679W        W39203   1.249  10.984  15.288  0.0545 -0.0896  0.0385
21680W        W39204   7.465   2.940  14.018  0.0589 -0.3587  0.2963
21681W        W39205   6.767   1.425   0.298 -0.1128 -0.0657 -0.1266
21682W        W39206  11.869  15.817  14.298 -0.0825 -0.1684 -0.0906
21683W        W39207   2.657   0.190   1.146  0.1649  0.0298  0.2875
21684W        W39208  14.340   0.630   3.278  0.1767  0.0742  0.2625
21685W        W39209  17.067   5.966  13.862 -0.3273 -0.0667 -0.0837
21686W        W39210   9.116  13.567   4.063 -0.2671  0.1129  0.1083
21687W        W39211  15.738  11.948  11.537 -0.0460  0.1411  0.0114
21688W        W39212  11.665  10.687  14.641  0.0551 -0.4227  0.0110
21689W        W39213  13.328  16.202  11.409 -0.0800  0.2020  0.1115
21690W        W39214   4.696  11.830  11.380  0.1631 -0.0017 -0.0508
21691W        W39215  12.202  12.636  15.623 -0.0568  0.2755 -0.0666
21692W        W39216  17.308   8.234  14.575  0.1412 -0.1004  0.0932
21693W        W39217   9.342   3.815   1.062 -0.2190  0.2693  0.1245
21694W        W39218  16.063   4.796  14.829 -0.2385  0.0932 -0.2246
21695W        W39219  12.794  12.663   5.367  0.0230 -0.2602  0.1986
21696W        W39220  16.826   7.528   1.240 -0.0912  0.0282  0.1280
21697W        W39221   6.393  11.238   0.053 -0.2579  0.0018  0.1355
21698W        W39222   4.678   3.444  15.411 -0.1967 -0.0171 -0.0105
21699W        W39223   5.749  13.512  12.245  0.2715 -0.1035 -0.0081
21700W        W39224   2.010  11.417  14.950 -0.0094  0.1053  0.1647
21701W        W39225  10.588  17.793  11.991 -0.1745  0.2493 -0.1737
21702W        W39226   6.051  14.652   4.616 -0.2329  0.2813 -0.0016
21703W        W39227   3.171  14.649   0.511 -0.1806  0.0899 -0.1913
21704W        W39228   4.234  17.914  12.709 -0.1905  0.1459  0.1961
21705W        W39229  12.568   6.381   5.301  0.3923  0.0090 -0.1092
21706W        W39230   5.523   5.771  14.793 -0.0380 -0.0260 -0.0009
21707W        W39231  13.370   4.975  15.377 -0.1470 -0.0126  0.1643
21708W        W39232  13.589   0.059  13.408  0.0885  0.1315 -0.0664
21709W        W39233   6.341   4.247   4.083  0.1664 -0.1081 -0.1424
21710W        W39234  17.785   4.833  12.689 -0.1764  0.4636  0.0565
21711W        W39235  16.522  10.095  14.677 -0.0189 -0.2667  0.0270
21712W        W39236   7.208  16.475  15.893 -0.3825  0.0507 -0.1679
21713W        W39237   5.056   2.876   9.646  0.2790  0.2045  0.0987
21714W        W39238   9.228   0.814  15.221  0.1272 -0.0042  0.2032
21715W        W39239   6.493  14.550  11.556  0.0558 -0.1868 -0.1344
21716W        W39240   2.307  17.047   0.096  0.1044  0.0314 -0.0399
21717W        W39241  10.817  14.879   0.603  0.1243 -0.0622 -0.4159
21718W        W39242   0.628   4.608   4.831 -0.3568 -0.4063 -0.0199
21719W        W39243   0.787   7.327  15.201  0.0311  0.0478 -0.0124
21720W        W39244  13.638  15.916  11.119 -0.0635 -0.2280  0.0898
21721W        W39245   2.982   5.010   1.728  0.1774  0.1345 -0.0903
21722W        W39246   7.117   8.435   2.041  0.0042  0.0733  0.0514
21723W        W39247   2.454   6.675  13.879  0.0629 -0.0588 -0.2751
21724W        W39248   0.595   1.519  14.710  0.2357  0.1834  0.1411
21725W        W39249   2.118  16.536  13.770  0.4040 -0.1671  0.1481
21726W        W39250  10.654  10.136   3.190 -0.2724 -0.0906  0.1725
21727W        W39251   4.933   4.028  14.829 -0.0424  0.2889  0.1707
21728W        W39252  10.904   2.992   2.174  0.3132  0.0847 -0.0962
21729W        W39253  12.414  15.162  14.269 -0.0923  0.2360 -0.0800
21730W        W39254  16.358   4.671   3.540 -0.0650  0.0454 -0.1458
21731W        W39255   5.574  16.576   1.980 -0.0577  0.2523  0.2616
21732W        W39256   0.320   8.926  13.570  0.1287 -0.0611  0.0929
21733W        W39257  10.671   4.321  13.236  0.1936 -0.1397 -0.2058
21734W        W39258  14.926   1.894   0.106  0.3362 -0.0121  0.0124
21735W        W39259   9.632  16.883   0.298  0.2783  0.3581  0.3934
21736W        W39260  13.743   6.215   0.478 -0.2689  0.0218  0.2478
21737W        W39261   7.422   0.817  11.451  0.1116  0.3708 -0.3917
21738W        W39262   1.375   5.602   2.961  0.2859 -0.2283  0.1476
21739W        W39263  11.379  16.920  14.377  0.0043 -0.0185 -0.1949
21740W        W39264  10.720  16.469  12.129 -0.0837 -0.0841 -0.2186
21741W        W39265   0.732  17.332   1.236  0.1172 -0.4074  0.1558
21742W        W39266  14.037  16.480   1.330  0.1312 -0.0899 -0.1237
21743W        W39267   8.601  10.724  13.513  0.2337 -0.0193 -0.2458
21744W        W39268   5.071  11.025  12.555  0.0287 -0.0023 -0.1976
21745W        W39269   2.514   0.916   3.532 -0.0952  0.1450 -0.0118
21746W        W39270  11.159   6.268   2.724 -0.2433  0.0140 -0.2323
21747W        W39271  15.178  16.402   4.971  0.0883 -0.0595 -0.1288
21748W        W39272  13.561  17.102   1.727  0.0409  0.2627  0.1114
21749W        W39273  13.068   8.327   2.813  0.0831 -0.3083  0.0089
21750W        W39274   6.334   1.413   2.899  0.1070  0.2489 -0.1638
21751W        W39275  12.193   5.487  11.424 -0.3136 -0.0844 -0.2171
21752W        W39276  17.244  14.498   5.557  0.1091  0.4186 -0.0283
21753W        W39277   2.861  15.323   3.229  0.1020  0.0990 -0.1529
21754W        W39278   8.363   1.594  13.915 -0.0834  0.4476  0.2282
21755W        W39279   3.883   8.446  13.187  0.0408  0.0416 -0.2240
21756W        W39280  13.828   8.245   2.847  0.0362  0.1254 -0.3176
21757W        W39281   3.684   3.241   1.346 -0.0056  0.2087  0.0905
21758W        W39282  12.898   7.547  11.959 -0.3331 -0.1768  0.0154
21759W        W39283  15.621  14.459  13.931 -0.1597 -0.0903 -0.2881
21760W        W39284  15.878  13.861  10.207  0.1435 -0.1369  0.1581
21761W        W39285  15.781  16.558   5.144  0.2113 -0.2505  0.1922
21762W        W39286   8.740   8.962   4.182  0.1804 -0.1157 -0.1311
21763W        W39287  16.073  10.801  13.289 -0.0309 -0.0781  0.0523
21764W        W39288   2.816   2.026  12.292  0.1036 -0.1471  0.1029
21765W        W39289  10.265   0.693  12.624 -0.0320 -0.0153  0.1890
21766W        W39290   5.175   4.070  15.799  0.1807 -0.1013  0.2824
21767W        W39291  15.059   2.055   0.611 -0.2142  0.2445  0.0676
21768W        W39292   3.776   2.130  10.978 -0.0039  0.1019 -0.0408
21769W        W39293   4.588  11.837  13.320  0.1382 -0.1292 -0.1040
21770W        W39294  11.503  12.528  14.974  0.4607  0.2321  0.0805
21771W        W39295   3.989   4.904   2.148 -0.2594  0.0205  0.0431
21772W        W39296  17.344  11.284  12.335  0.0831  0.1171 -0.1694
21773W        W39297   3.278   6.098  12.013  0.0389  0.0913 -0.0010
21774W        W39298   8.259   8.748   4.146 -0.0804  0.2022 -0.1529
21775W        W39299   5.913   3.489   0.815  0.3390  0.3668  0.2019
21776W        W39300   9.325  15.117   1.829  0.4504 -0.1527 -0.3448
21777W        W39301  13.285   9.836  15.541 -0.3862 -0.1252 -0.2434
21778W        W39302   6.881   8.306  13.914 -0.2667 -0.2908  0.0266
21779W        W39303  16.061  13.136   1.619 -0.0596  0.0648  0.1960
21780W        W39304   7.696  12.561  14.467 -0.0051  0.0194  0.1506
21781W        W39305   7.915  16.269  15.398 -0.1907 -0.2867 -0.3909
21782W        W39306  17.187   6.628  14.735 -0.0548 -0.0678  0.0247
21783W        W39307  16.182  14.544   4.687 -0.1648  0.0806 -0.0562
21784W        W39308   9.151   3.587   4.850  0.2552  0.0036 -0.0148
21785W        W39309   2.324  11.913   3.824  0.2064 -0.0566  0.0896
21786W        W39310   9.597   8.938  13.488  0.2743 -0.3083  0.5926
21787W        W39311  13.786  16.135  10.074 -0.3046  0.1685  0.1163
21788W        W39312   4.873   5.191  12.944  0.3383 -0.0144 -0.1367
21789W        W39313   0.053   4.079  14.161 -0.0792  0.0656  0.0602
21790W        W39314  13.129  15.279  10.801  0.3372 -0.1723 -0.2070
21791W        W39315   1.686  14.965  16.038 -0.1930 -0.3546 -0.3613
21792W        W39316   3.510  11.752   0.566  0.0495 -0.2367 -0.3127
21793W        W39317  14.095   1.813  14.955  0.1366 -0.1614 -0.1225
21794W        W39318   2.806   4.098   0.557 -0.2082 -0.1920  0.0660
21795W        W39319  13.025   9.550  11.607  0.0517  0.3778 -0.1567
21796W        W39320  16.664  13.597  15.596 -0.3064 -0.3759 -0.0804
21797W        W39321   6.853   7.860   0.692 -0.1946 -0.0733  0.1996
21798W        W39322   4.277   5.551  14.081  0.2535 -0.0156  0.2346
21799W        W39323  15.187  15.773  16.028  0.0562 -0.1744  0.3021
21800W        W39324  14.439   2.840   1.846 -0.1403  0.1176 -0.1133
21801W        W39325   9.825   1.458  12.693  0.3928  0.2044 -0.2489
21802W        W39326   4.555  15.766  10.385 -0.1721 -0.2046 -0.0830
21803W        W39327   9.854   2.307   0.477 -0.0867  0.2515 -0.0671
21804W        W39328  15.810  11.655  12.353 -0.0031 -0.0469  0.0662
21805W        W39329  16.774  17.442  12.512 -0.2386  0.2544 -0.2857
21806W        W39330   7.165   7.466   1.923  0.1831  0.1388  0.1160
21807W        W39331  16.072   6.670   3.958  0.1072 -0.0821  0.1105
21808W        W39332  17.591  11.843   4.061  0.0239  0.1342  0.1866
21809W        W39333   3.825   6.379   0.412  0.0880  0.2042  0.0942
21810W        W39334   3.238  12.363  10.142  0.2048 -0.4291 -0.0650
21811W        W39335  15.616   8.699  15.907  0.2977 -0.0107 -0.0402
21812W        W39336  11.928  12.685  13.181  0.1738  0.0686  0.3544
21813W        W39337  10.324  10.280  15.032 -0.0676 -0.0909  0.2543
21814W        W39338   1.297   2.191   0.343  0.1157  0.2526  0.0943
21815W        W39339  13.082  17.761   0.296 -0.1441  0.1323 -0.0452
21816W        W39340   2.609  17.850  11.356 -0.2299 -0.2328 -0.0793
21817W        W39341   1.726  17.869   1.538 -0.0968  0.1721  0.1539
21818W        W39342  16.957   3.325  15.721  0.1626 -0.2009 -0.0366
21819W        W39343   0.291   4.414   4.016  0.2377  0.0647 -0.1939
21820W        W39344   5.134   6.657  15.874 -0.4008 -0.0160 -0.1301
21821W        W39345  12.069  11.956   0.072 -0.3155 -0.2817 -0.0962
21822W        W39346   9.695  15.895  12.613 -0.2996 -0.0956 -0.4137
21823W        W39347   8.424  16.370  14.661  0.2257 -0.2863 -0.1841
21824W        W39348   5.480   9.765   2.097 -0.0369  0.0231  0.4241
21825W        W39349  16.098   8.985   0.571  0.0923 -0.0009  0.0172
21826W        W39350   8.255   5.202  10.007 -0.2107 -0.3504  0.0585
21827W        W39351   8.442   0.923   1.457 -0.0119 -0.0375 -0.1031
21828W        W39352  14.595  11.642  11.894 -0.1200  0.0290  0.2558
21829W        W39353   8.214   0.893   0.109  0.1997 -0.0328 -0.0610
21830W        W39354   9.898   8.460   2.790 -0.0247 -0.0492 -0.0810
21831W        W39355   3.444   3.425  12.393  0.1335 -0.0790  0.0934
21832W        W39356   8.707  10.979  14.722 -0.0757 -0.2992  0.0385
21833W        W39357   5.567  10.808   4.028  0.0651  0.0863 -0.0668
21834W        W39358   8.610   0.012   2.186 -0.0101 -0.2485  0.0175
21835W        W39359   8.634  15.227  14.296  0.0321 -0.0347  0.3188
21836W        W39360   0.218  11.767   1.489 -0.0523  0.3043  0.2441
21837W        W39361   2.081  17.902   0.174  0.0656 -0.0157  0.1647
21838W        W39362   3.452   3.325   0.144  0.0012 -0.0882  0.0534
21839W        W39363  16.944   6.002  15.459 -0.1180 -0.2272 -0.2197
21840W        W39364  10.363  10.471  12.877  0.0332 -0.0727 -0.2114
21841W        W39365   7.364  13.681   0.934  0.3318 -0.0155  0.2237
21842W        W39366   5.237   6.828   2.806  0.3670 -0.0342  0.1069
21843W        W39367   1.578  18.085  15.170 -0.1727 -0.0196  0.0474
21844W        W39368  11.050  14.030  11.854 -0.0255  0.0635  0.2711
21845W        W39369  12.362   0.917  13.467  0.0398  0.0162  0.2701
21846W        W39370   2.752   9.124   4.244 -0.0778 -0.1661 -0.3050
21847W        W39371   8.101   8.643   2.278  0.1579  0.1812  0.1219
21848W        W39372   0.843  12.665   6.072 -0.0791 -0.1271 -0.0389
21849W        W39373   7.870   7.289   1.551  0.0387  0.2294 -0.2534
21850W        W39374   9.076  17.596   3.358  0.2679 -0.0172  0.4402
21851W        W39375   8.463   6.778   2.440  0.2304 -0.2236 -0.1035
21852W        W39376   9.727  11.293   3.644 -0.0388 -0.0237 -0.0259
21853W        W39377   2.021   4.225  12.992  0.0251 -0.0461  0.0608
21854W        W39378  16.990   1.195   3.580  0.0797  0.0601  0.0485
21855W        W39379  11.789   9.309   1.412 -0.1854  0.1538  0.2081
21856W        W39380   5.333  10.099   3.451  0.1040  0.1637 -0.2678
21857W        W39381  16.247  16.913   4.817  0.0761  0.3775  0.1090
21858W        W39382  15.274   1.051   3.846 -0.0931  0.0956  0.1762
21859W        W39383  15.242  14.815  13.988 -0.1084  0.0178 -0.2733
21860W        W39384  12.319   8.356   4.571 -0.3950 -0.0846 -0.2032
21861W        W39385   5.723   9.154  10.246 -0.0532  0.2503  0.0054
21862W        W39386   9.389  11.021   1.763 -0.2790 -0.2362 -0.1472
21863W        W39387  12.325  14.212   3.176  0.2036 -0.0237 -0.1890
21864W        W39388  14.208   7.019   0.816  0.3530 -0.0285 -0.0892
21865W        W39389   4.674  16.440   4.610  0.0523  0.0489  0.0700
21866W        W39390   9.250   1.062   2.898 -0.0215  0.1880  0.0026
21867W        W39391  16.374  15.635  13.635  0.0410  0.1466 -0.0590
21868W        W39392   4.707   9.067   0.652 -0.0924  0.0643  0.0990
21869W        W39393   3.636   2.053   3.787  0.0575  0.0105 -0.0587
21870W        W39394  11.395   9.644  10.496  0.0002  0.2384  0.1600
21871W        W39395   7.742   9.952  11.980 -0.0631  0.1914 -0.3752
21872W        W39396  14.532   1.276   1.904 -0.1743  0.0492  0.1497
21873W        W39397   7.615  15.057  11.367 -0.0365  0.0190 -0.0671
21874W        W39398  16.596   2.294   2.381  0.2672  0.1836 -0.0799
21875W        W39399  13.705   7.159  14.768 -0.0971  0.1789 -0.1020
21876W        W39400  16.265  12.841   4.827  0.3148 -0.0746  0.2237
21877W        W39401   5.920   0.937  11.016  0.1332 -0.1477  0.1514
21878W        W39402  15.412   3.486  11.058  0.0309 -0.1290 -0.1927
21879W        W39403  10.793  12.476   2.878  0.0049 -0.2351 -0.2050
21880W        W39404  11.875  14.547   4.264 -0.1058 -0.1364 -0.2956
21881W        W39405   1.085  11.973   1.040  0.1014  0.3956  0.2974
21882W        W39406  16.000   8.723  14.487 -0.0353 -0.2122 -0.0913
21883W        W39407  11.845  13.528   2.504 -0.1337 -0.1889 -0.1327
21884W        W39408  18.027  11.537  14.714 -0.0976  0.0248 -0.0257
21885W        W39409   4.849  13.627   0.977 -0.1663 -0.2504 -0.0609
21886W        W39410   9.509  11.121   4.089 -0.0487 -0.3548 -0.1195
21887W        W39411  15.692   0.566  11.731 -0.0794  0.1419 -0.0637
21888W        W39412   4.825   8.445  15.880 -0.0119 -0.2922 -0.1350
21889W        W39413   5.224   0.780   4.684 -0.0587  0.6589  0.1707
21890W        W39414  15.579   2.393   1.126 -0.0900 -0.0950 -0.2782
21891W        W39415  14.513  14.108  13.176 -0.0942 -0.1881  0.1346
21892W        W39416  15.623   9.403  12.742  0.2078  0.1391  0.1288
21893W        W39417   3.752   4.271  14.330 -0.0422 -0.0821 -0.1602
21894W        W39418  10.673   8.067   1.467 -0.0937  0.0631 -0.3137
21895W        W39419  16.227  18.076  15.666 -0.1733  0.3154 -0.0995
21896W        W39420   9.194  16.876  12.490  0.0539 -0.0513 -0.1291
21897W        W39421   3.670   0.385   1.853 -0.2598  0.0685 -0.0090
21898W        W39422   0.303   3.128  14.588 -0.0176  0.0174  0.0945
21899W        W39423  11.951   5.594   2.653 -0.3104  0.0578  0.1044
21900W        W39424   2.660  11.428   2.959  0.0575 -0.0724 -0.1367
21901W        W39425   6.824  14.731  11.243  0.0092 -0.1545 -0.2952
21902W        W39426  13.502  15.636   3.031  0.1369  0.0442  0.2307
21903W        W39427   8.857  17.542  14.305  0.1498 -0.0027  0.1624
21904W        W39428   1.259   4.718   0.093 -0.0846  0.2479 -0.0115
21905W        W39429   5.030  10.909  11.279  0.3439  0.1705 -0.0060
21906W        W39430   2.127  12.189   2.609 -0.1211  0.0074  0.2186
21907W        W39431  10.240  11.502   4.478  0.0930  0.0917  0.0162
21908W        W39432   1.303  14.468  12.232  0.2875 -0.0373 -0.2547
21909W        W39433  10.367  12.817   0.397  0.0895 -0.1194 -0.0511
21910W        W39434  16.716  11.448   1.156 -0.2792  0.2874 -0.2099
21911W        W39435  13.296  17.546  14.094  0.3708 -0.3275 -0.0808
21912W        W39436   0.578   0.616   4.638 -0.0957  0.1499 -0.0285
21913W        W39437  12.601  17.956  11.812  0.1866 -0.0829  0.0100
21914W        W39438  17.542  14.674   1.133 -0.1333 -0.2133 -0.2550
21915W        W39439  13.800  15.553  12.750 -0.0868  0.0140  0.0907
21916W        W39440  13.889  12.167  13.771  0.3177  0.0821 -0.0671
21917W        W39441  15.035   8.254   2.480 -0.0638 -0.0327 -0.2375
21918W        W39442   9.821   8.360   4.378 -0.2265  0.0264  0.1395
21919W        W39443  14.931  13.316  14.014  0.1702 -0.2616 -0.5003
21920W        W39444  18.037   9.778   9.986  0.0812 -0.2717 -0.1447
21921W        W39445  11.528   7.931   5.600  0.0434 -0.0116 -0.0109
21922W        W39446   8.963   7.752   1.507 -0.0321  0.1059  0.1748
21923W        W39447   9.344   7.690   4.399 -0.1809 -0.0296  0.1696
21924W        W39448  10.942   5.734  11.985 -0.1145  0.3810  0.2791
21925W        W39449  15.529   4.935  11.433  0.1392  0.0019  0.2780
21926W        W39450   1.487  16.052  13.184 -0.3506 -0.2195 -0.1866
21927W        W39451   8.851   7.100   3.206  0.1153  0.1844 -0.0502
21928W        W39452   8.834  11.714  10.907 -0.2755 -0.0293  0.0188
21929W        W39453   7.345  12.235  11.419 -0.0963 -0.2461 -0.2285
21930W        W39454   8.370   0.090   4.969 -0.0518  0.0549 -0.0928
21931W        W39455  16.333   6.818  11.969 -0.2616 -0.1154 -0.1161
21932W        W39456   1.702   8.445  14.199 -0.2535 -0.1701  0.1275
21933W        W39457   9.625   6.530   2.071 -0.0800  0.3208  0.1014
21934W        W39458  14.235   7.771  16.046 -0.2493 -0.2756  0.0570
21935W        W39459   9.792   2.415  11.635  0.0308 -0.2236 -0.1763
21936W        W39460  15.370  17.520   0.740  0.0430  0.1320  0.2412
21937W        W39461  10.651  17.370  13.752  0.2159  0.0262 -0.0481
21938W        W39462   7.437   0.304  15.258 -0.1085 -0.1350 -0.0670
21939W        W39463  14.024   9.526   0.568 -0.1283  0.0603 -0.0484
21940W        W39464  16.478  12.668  13.267 -0.1433  0.0878  0.1414
21941W        W39465  13.293   5.620  13.368 -0.1979 -0.3035  0.3907
21942W        W39466   1.875   7.746  15.907  0.0614 -0.2103  0.0746
21943W        W39467   8.943   7.959   3.098 -0.0747  0.0913 -0.0126
21944W        W39468  11.328   9.731  13.645  0.2705 -0.2008 -0.4344
21945W        W39469   9.659  14.664  12.619 -0.0501 -0.1178 -0.0637
21946W        W39470   5.942  16.544  15.663 -0.0278  0.1376 -0.0392
21947W        W39471   4.389  12.939  12.123 -0.1997  0.1257 -0.0786
21948W        W39472  14.205  10.625  15.108 -0.6686  0.0560 -0.0350
21949W        W39473   7.382   3.096   3.610 -0.3258 -0.0749  0.0222
21950W        W39474   9.413   8.388   2.970 -0.0993  0.3871  0.1699
21951W        W39475   6.219  10.196  15.198  0.0274  0.0852  0.1540
21952W        W39476  10.375   2.974   4.972 -0.0439 -0.0209  0.0118
21953W        W39477   6.882  12.321   1.675 -0.2367  0.0906 -0.1131
21954W        W39478   1.314   6.449   1.234 -0.2363 -0.1506 -0.2103
21955W        W39479   4.106   9.479  15.892  0.1516  0.2693 -0.0633
21956W        W39480  15.688  11.298   2.666  0.0552  0.0754  0.0325
21957W        W39481  14.627  10.157  14.000  0.1021  0.2150 -0.0784
21958W        W39482  10.188   5.339   1.356  0.0002  0.1500 -0.3707
21959W        W39483   1.934   5.381   4.117  0.1431  0.1130 -0.0091
21960W        W39484   0.862  11.459  14.110 -0.0124 -0.1300 -0.0865
21961W        W39485   4.474   5.082  11.897 -0.1791 -0.0330  0.0430
21962W        W39486   4.937  12.188  12.144  0.2076 -0.0759  0.0447
21963W        W39487  15.444   6.330  15.755 -0.2308  0.1062  0.1647
21964W        W39488  15.324  12.705  12.757 -0.1429  0.0886  0.0270
21965W        W39489   4.489   0.872   4.809 -0.0761  0.0042 -0.3075
21966W        W39490  10.642  15.669  15.308  0.0250  0.0707  0.2049
21967W        W39491   6.514   9.833  13.533 -0.1622  0.1128 -0.0483
21968W        W39492  16.072  17.717   3.691 -0.0347 -0.2943 -0.0220
21969W        W39493  10.980  17.087  12.003 -0.0545 -0.1518 -0.1854
21970W        W39494   4.958   8.301  15.016  0.0165 -0.1462 -0.1606
21971W        W39495  16.273   5.827  13.479 -0.2589 -0.2838 -0.0051
21972W        W39496  14.110   6.570   3.577  0.1987  0.0144 -0.3618
21973W        W39497   9.324   4.929  12.277 -0.1636  0.1307 -0.1714
21974W        W39498   8.099  16.121   3.944  0.2865 -0.0374  0.2128
21975W        W39499   1.499   0.614  11.464  0.0066 -0.2060  0.1961
21976W        W39500  13.816  12.959   0.971  0.0644  0.0831 -0.0026
21977W        W39501  17.172  13.351  13.154  0.1082  0.1337 -0.0249
21978W        W39502  17.941  17.633  14.708  0.4461 -0.0062  0.0375
21979W        W39503   9.058  13.046  14.590  0.0522 -0.0389  0.2387
21980W        W39504   4.334   4.103   2.690  0.0024  0.1987 -0.1425
21981W        W39505  15.756   6.990   3.714 -0.0150 -0.3803 -0.1040
21982W        W39506   8.579   5.378  12.029 -0.0210 -0.1207  0.2205
21983W        W39507   8.029  14.328  15.448  0.1145 -0.0641 -0.1857
21984W        W39508   1.963   6.693  14.984 -0.1904  0.0480  0.1325
21985W        W39509   7.683  12.351  11.744 -0.0919 -0.0595 -0.3752
21986W        W39510  12.144   5.041   1.559 -0.0199  0.2949 -0.3054
21987W        W39511   6.258   6.964  13.393 -0.1156  0.0909  0.2710
21988W        W39512   7.970  10.720   1.920 -0.0835 -0.0803 -0.2381
21989W        W39513  14.548   6.201   0.725  0.1781  0.4854 -0.0124
21990W        W39514   5.761  12.984  13.780 -0.1390 -0.0486  0.2247
21991W        W39515   6.572   9.625   0.577  0.0528 -0.0536 -0.2250
21992W        W39516   9.943   8.743  12.211  0.1668  0.2120  0.2003
21993W        W39517  16.846  10.828   3.690 -0.0258 -0.0496  0.0134
21994W        W39518  14.527   5.069  11.694 -0.0964 -0.0189 -0.1217
21995W        W39519   7.857   5.479   2.267 -0.1226  0.0004 -0.2216
21996W        W39520  17.728  16.325   1.308  0.0296  0.1009 -0.1313
21997W        W39521   7.619   5.944  14.131 -0.1130 -0.0971  0.0918
21998W        W39522   9.520  16.965   1.658  0.0008  0.1052 -0.2094
21999W        W39523   9.523   4.267   1.399  0.1835 -0.4032  0.2706
22000W        W39524  17.817  10.790   4.601 -0.0736 -0.1149 -0.4229
22001W        W39525   4.441  17.249  14.825  0.2772 -0.1187  0.0000
22002W        W39526  15.863  15.532   1.732 -0.2014 -0.1767 -0.0169
22003W        W39527   3.071   2.224   3.629  0.1285  0.2065  0.1802
22004W        W39528  12.126   0.703   0.101  0.0555  0.1852  0.0460
22005W        W39529   0.573   2.441   3.726 -0.1476  0.2292  0.1577
22006W        W39530   9.957   5.660   2.268  0.2275  0.2840 -0.0765
22007W        W39531   5.309   2.771  15.341  0.0130  0.1321  0.4225
22008W        W39532   6.305   7.606   3.722 -0.3221  0.1481  0.2310
22009W        W39533  13.698   1.778  13.770  0.3666  0.1156  0.0906
22010W        W39534   1.164  10.735  12.103 -0.3683 -0.2748  0.3749
22011W        W39535  14.233  17.364  11.753  0.0178 -0.0806 -0.0786
22012W        W39536  13.348  12.073  12.876  0.0332 -0.2439 -0.2180
22013W        W39537   3.546  14.670   3.549 -0.2459  0.0343  0.2365
22014W        W39538  13.319   0.811  11.589 -0.0376 -0.1243  0.0250
22015W        W39539  16.035  16.191  14.803 -0.0447 -0.1635 -0.0263
22016W        W39540  10.653  11.048  12.412  0.0858 -0.0135  0.1658
22017W        W39541   6.153  13.743   4.668  0.0890  0.1919  0.3503
22018W        W39542  15.503  12.615   0.518 -0.5060 -0.3408 -0.1024
22019W        W39543  16.731  16.530  14.635 -0.1839 -0.0903 -0.0565
22020W        W39544   1.488  10.859  11.598  0.0034 -0.1263 -0.5561
22021W        W39545  11.381   4.102  11.635 -0.3105 -0.0024 -0.0961
22022W        W39546   3.295   9.126  15.932  0.0237  0.1093  0.0678
22023W        W39547  12.319   4.768  12.304  0.0409 -0.2525 -0.0994
22024W        W39548   3.285   5.419   0.447 -0.0742  0.0676 -0.0472
22025W        W39549   6.643   2.402   4.184 -0.2733 -0.2246 -0.1491
22026W        W39550  16.983   3.127  15.266  0.0748  0.2412  0.3117
22027W        W39551   7.814  15.924  11.675 -0.2608  0.0770  0.0141
22028W        W39552  11.346  12.880   0.943 -0.0230 -0.0251  0.0639
22029W        W39553  15.168  11.067  12.374 -0.0788  0.0772 -0.0011
22030W        W39554   8.738   9.531  13.589  0.0926  0.1521 -0.1682
22031W        W39555   4.040   9.063  11.625  0.2430  0.2370 -0.2624
22032W        W39556  12.029   0.712   3.912  0.0165  0.2119 -0.0582
22033W        W39557   9.862   4.285  13.914  0.2151 -0.0451  0.1604
22034W        W39558   2.618   3.331  13.057 -0.2362  0.0544 -0.1352
22035W        W39559   9.048  12.796   4.567  0.2211  0.1069  0.1793
22036W        W39560   1.201  11.142   1.835 -0.0978  0.0017 -0.1250
22037W        W39561   1.428   6.977   4.844  0.0782  0.1143 -0.1498
22038W        W39562   8.436  11.795   2.106  0.1024  0.1169  0.0004
22039W        W39563   3.005  13.883  12.990  0.1617  0.0033 -0.0120
22040W        W39564   9.318  14.423  15.485 -0.2327 -0.0340  0.1407
22041W        W39565  15.676  10.421   4.288 -0.2164  0.2311  0.2254
22042W        W39566  17.130   1.004   2.570 -0.0197 -0.1696 -0.0338
22043W        W39567  16.521  16.684   0.555 -0.2415  0.0876 -0.2229
22044W        W39568   0.656  16.263  12.477  0.0928 -0.1428  0.2613
22045W        W39569  12.498   5.415   4.070 -0.1500 -0.0549  0.0693
22046W        W39570  16.997   7.403  12.834  0.1332  0.2625  0.2725
22047W        W39571  14.003   9.333  15.646  0.0994 -0.0575  0.1708
22048W        W39572   9.338  13.537  15.836 -0.2644 -0.2458 -0.0110
22049W        W39573  17.775   7.362  14.325 -0.0558 -0.1186 -0.0682
22050W        W39574   2.819  11.998  14.880 -0.1565  0.2641 -0.0297
22051W        W39575  13.751   7.223   2.524  0.2474  0.5080  0.0484
22052W        W39576   3.211  12.005   0.289 -0.1042  0.0426 -0.0291
22053W        W39577  11.588  16.924   1.826 -0.0682 -0.3095 -0.0664
22054W        W39578  16.075  16.089  11.254  0.1564  0.0533  0.0250
22055W        W39579   5.006   4.552  12.742 -0.0973 -0.1274 -0.1362
22056W        W39580  14.483   6.775   0.398 -0.0057 -0.2367 -0.1639
22057W        W39581   3.263  11.452  12.352  0.2022 -0.1312 -0.1703
22058W        W39582  17.813  12.000  14.445  0.1358 -0.1623  0.0910
22059W        W39583  10.736  11.566   3.924 -0.5160  0.0615 -0.2468
22060W        W39584   9.233  13.254   4.513 -0.0535  0.3980 -0.2629
22061W        W39585  16.872   4.633  14.496  0.0034 -0.0820 -0.0409
22062W        W39586  16.468   4.892  11.636 -0.1882  0.4498  0.1193
22063W        W39587  17.817   3.291   1.950 -0.0420  0.2064  0.0227
22064W        W39588  10.871   3.180   1.629  0.1630 -0.1302  0.0714
22065W        W39589  17.749   0.967  12.728  0.2008 -0.0093  0.0801
22066W        W39590   8.174   2.282  12.297  0.0865  0.1480  0.1552
22067W        W39591   0.963  13.031   5.236  0.4540 -0.0282  0.0862
22068W        W39592  14.595  10.804  14.819  0.1767  0.1486 -0.0254
22069W        W39593   8.999   4.003  14.738  0.3478 -0.0301  0.0567
22070W        W39594   4.772  13.768   5.223 -0.0268  0.2534 -0.1562
22071W        W39595  17.682   8.378   5.652  0.1332 -0.0196 -0.1250
22072W        W39596  17.950   7.861  16.011 -0.0805  0.0181 -0.1499
22073W        W39597   7.679  10.600   0.743 -0.0474  0.0422 -0.1977
22074W        W39598   4.534  18.120   3.241 -0.1062  0.1115  0.2989
22075W        W39599  10.149  11.971   3.984 -0.2482 -0.1651  0.2413
22076W        W39600   1.967   0.124  12.006  0.0314  0.1401  0.2042
22077W        W39601   3.950   3.334   3.970  0.0945  0.3546  0.3701
22078W        W39602   0.366  12.057   2.007 -0.1304 -0.0735  0.0129
22079W        W39603   0.906   7.055   1.964 -0.2923  0.2624 -0.0082
22080W        W39604  13.166   2.944   2.543  0.0959 -0.0380  0.0410
22081W        W39605   4.871  12.665   2.521  0.0540  0.0843  0.2709
22082W        W39606   5.660   7.872   1.631 -0.0792 -0.1854  0.0088
22083W        W39607   6.452  11.170  15.023  0.2931  0.0813  0.2003
22084W        W39608  15.477   3.987  12.914 -0.0256 -0.4329 -0.0657
22085W        W39609   6.475   6.550   3.825  0.0099  0.1355  0.0793
22086W        W39610  14.762  13.587   1.282  0.1612 -0.3158 -0.0597
22087W        W39611   1.780   9.314   4.637 -0.2033 -0.1112  0.1859
22088W        W39612   8.874  12.514  12.217  0.0294  0.0008  0.0681
22089W        W39613   1.772  13.201  11.870  0.1406  0.0592  0.3711
22090W        W39614   2.106  12.510   4.488  0.2091  0.2494 -0.4988
22091W        W39615  16.043  11.486  11.910  0.1407 -0.0915  0.0892
22092W        W39616  10.627   6.394  14.406  0.0191 -0.1162 -0.2414
22093W        W39617  17.527  11.721  11.482  0.2370 -0.6282  0.0042
22094W        W39618  16.826  16.030  11.498 -0.3618  0.0756  0.0086
22095W        W39619  16.394   4.897   4.093 -0.1434  0.0133 -0.2258
22096W        W39620   4.848  15.064   0.439 -0.0421 -0.4408 -0.1530
22097W        W39621   5.128   9.667  13.512  0.0252 -0.0125  0.2219
22098W        W39622  16.964   3.282   3.389  0.1343 -0.2670  0.1588
22099W        W39623   1.320  12.087   2.248  0.0820  0.0926 -0.0399
22100W        W39624   5.559   2.007   3.271 -0.0959  0.1619  0.4148
22101W        W39625  16.026   0.796  13.554  0.2309 -0.0953 -0.1908
22102W        W39626   0.804  14.142   2.156  0.1019 -0.0934  0.0594
22103W        W39627  14.111   5.597   2.881 -0.5218 -0.0526  0.1106
22104W        W39628  14.494   5.031  10.405  0.1082 -0.3242 -0.2173
22105W        W39629   0.229  16.493   0.707  0.1494 -0.1521 -0.0836
22106W        W39630   5.299   5.942  10.399 -0.1075 -0.2895  0.2457
22107W        W39631  11.926   3.621  12.732  0.1362 -0.0615  0.0418
22108W        W39632   6.584   2.473  14.627 -0.1540  0.0384  0.2145
22109W        W39633  14.311  11.126   0.972  0.2421  0.0197 -0.0677
22110W        W39634   7.449  10.972   0.271  0.0435  0.1177 -0.1137
22111W        W39635   6.243  16.310  15.985 -0.0088  0.2040  0.0716
22112W        W39636  11.543   9.736  12.867  0.1889 -0.2001 -0.2239
22113W        W39637  17.297  14.415  11.772 -0.3955 -0.2218  0.0374
22114W        W39638   1.951   8.109   1.573 -0.0183  0.1194 -0.1286
22115W        W39639  11.482   4.113  13.920 -0.0108 -0.2428  0.0118
22116W        W39640   1.114  15.102  16.058  0.0809 -0.1978  0.1356
22117W        W39641   1.392   5.204  11.189  0.1937  0.2327 -0.0059
22118W        W39642  15.760  14.942  13.112 -0.0775 -0.0686  0.0146
22119W        W39643   0.731  12.297  11.558  0.1150  0.3627  0.0165
22120W        W39644  17.280   1.951  14.080  0.0931  0.0943  0.3010
22121W        W39645   3.889  12.080  14.596  0.3090 -0.2373  0.2113
22122W        W39646   1.493  17.565   1.107  0.3781  0.0499  0.0102
22123W        W39647   3.989  12.957  14.874 -0.0386  0.0009 -0.1997
22124W        W39648  11.889   4.147  14.905 -0.2123 -0.0684 -0.1869
22125W        W39649  14.679   4.114   0.638  0.1064 -0.0405  0.3363
22126W        W39650  11.919   9.879   1.382 -0.0349 -0.0636  0.2064
22127W        W39651  17.863  10.142   2.293 -0.2033 -0.0788 -0.2404
22128W        W39652  15.994  10.539   2.325 -0.1642 -0.4148 -0.0348
22129W        W39653   2.104   3.187   4.477  0.1359 -0.0279  0.3338
22130W        W39654  11.676   9.885  11.880  0.1151 -0.0921  0.1384
22131W        W39655   8.056   2.791   4.039  0.2650 -0.0809 -0.4091
22132W        W39656   4.298  13.094   3.702 -0.4312  0.1563  0.2882
22133W        W39657  16.010   4.937   3.307 -0.0618  0.0849  0.0925
22134W        W39658   9.084  16.694  15.638  0.0562 -0.3387  0.2678
22135W        W39659   6.463   7.134  14.367 -0.0397  0.4059 -0.0727
22136W        W39660   7.592   6.298   2.614  0.0333  0.1233  0.1234
22137W        W39661   0.778  16.678  15.740 -0.0106  0.0694  0.2692
22138W        W39662  15.488  14.817   1.133  0.1761  0.0589  0.2711
22139W        W39663   1.121   7.059  11.257  0.0341 -0.1204 -0.0150
22140W        W39664   8.534   4.645  13.381  0.1949  0.3135 -0.2473
22141W        W39665   4.759   6.744   0.723  0.1521 -0.0549  0.1850
22142W        W39666  13.329   2.234  12.750  0.0624  0.3022 -0.1517
22143W        W39667  14.492   1.778   1.746  0.1568  0.1335 -0.0473
22144W        W39668  14.305   4.665  13.406  0.2188 -0.0591 -0.0918
22145W        W39669   4.325   4.759  11.370 -0.3129  0.1720 -0.1214
22146W        W39670   1.058   1.267   1.303  0.1532  0.1340 -0.0618
22147W        W39671   7.112   7.317  12.994 -0.0799 -0.2913 -0.3421
22148W        W39672   5.174  13.724   4.894 -0.0070  0.0870 -0.2078
22149W        W39673  12.538   0.624  15.941  0.3083  0.0569  0.1238
22150W        W39674   5.978  10.296   0.054  0.1775 -0.2100 -0.1120
22151W        W39675   6.132   5.325  13.222 -0.0156  0.1028  0.4118
22152W        W39676   7.333  14.413  11.951 -0.1036  0.3544 -0.1482
22153W        W39677  13.807  13.812  14.380 -0.2400 -0.0313 -0.0084
22154W        W39678   7.446  10.241   5.721 -0.1833 -0.1022  0.0316
22155W        W39679   0.146   6.813   1.860  0.0590 -0.1222  0.0400
22156W        W39680  16.192  15.525   0.127 -0.0257  0.0170 -0.0322
22157W        W39681   8.449  14.175   2.863  0.3948 -0.4491 -0.0035
22158W        W39682  12.605  15.381  16.028 -0.2507  0.1003 -0.1569
22159W        W39683   3.399   6.297   2.204 -0.2221 -0.0719  0.1456
22160W        W39684  11.323   7.520   0.233 -0.2544  0.0988  0.2358
22161W        W39685  15.292  13.958  12.015 -0.0960 -0.0402 -0.2640
22162W        W39686  14.434   5.074   1.658  0.0603 -0.0085 -0.2416
22163W        W39687   7.687   1.543   0.525 -0.4594  0.0114 -0.0555
22164W        W39688  13.313  11.964  12.356  0.0353  0.0815  0.1555
22165W        W39689  17.372  10.065   2.546  0.0420 -0.2193  0.1637
22166W        W39690  14.794   4.077  14.075  0.2193 -0.1269  0.0515
22167W        W39691   2.614  17.445   2.428  0.1392 -0.0068 -0.1103
22168W        W39692   0.251   8.712   3.991  0.0392 -0.2496  0.0815
22169W        W39693  13.024   2.085  13.158  0.1273  0.1035  0.0235
22170W        W39694   3.861  17.908  13.008 -0.0173  0.0615 -0.2647
22171W        W39695   3.330  11.010   0.078  0.2326 -0.0201  0.4197
22172W        W39696  12.139  15.434   3.339 -0.0278 -0.0205  0.0256
22173W        W39697   2.668   2.094   0.633  0.0313 -0.2366 -0.2316
22174W        W39698   4.226  10.206   0.169 -0.0575  0.0136  0.0824
22175W        W39699   9.338  11.921   0.377  0.1868 -0.0455  0.4047
22176W        W39700   0.369  12.408   3.905 -0.1514  0.2016 -0.2547
22177W        W39701   1.263  15.345   0.415  0.2608 -0.2704 -0.3507
22178W        W39702  17.153   5.796  15.844  0.4362 -0.0208 -0.1296
22179W        W39703   2.050  10.776   6.535  0.1155 -0.0513  0.2837
22180W        W39704   9.766   6.869  14.725  0.1271  0.0322 -0.4965
22181W        W39705  13.357  11.650   1.699  0.1813 -0.1006  0.1708
22182W        W39706   8.458   5.157  15.094 -0.1705  0.2547  0.1034
22183W        W39707   0.750   5.644  15.834 -0.0112  0.1535  0.0985
22184W        W39708   9.757   2.135   4.082 -0.2479  0.4273  0.3190
22185W        W39709  17.574  17.122   2.450 -0.0053  0.1182  0.2084
22186W        W39710   4.811   6.392  15.186  0.0155  0.4835 -0.3397
22187W        W39711  12.078  11.726   2.056  0.1484  0.0077 -0.3821
22188W        W39712   4.421   3.172  13.157  0.0332 -0.1933  0.2601
22189W        W39713  10.846  14.003   1.365  0.2548 -0.1159 -0.1836
22190W        W39714  13.356   1.111   0.164 -0.0685  0.1510  0.0166
22191W        W39715   0.839   2.770  15.282  0.0982  0.0583 -0.1987
22192W        W39716  15.719   2.839  13.164  0.0108 -0.1637  0.1939
22193W        W39717   3.402  13.395   3.925 -0.1075  0.4340  0.2787
22194W        W39718  10.710  15.306  11.300 -0.0401 -0.1606 -0.1126
22195W        W39719   8.636   3.497  10.905  0.0106 -0.1826 -0.1507
22196W        W39720  17.518   7.578  15.846  0.0529  0.2330 -0.3465
22197W        W39721   3.741  10.186   0.550  0.0328 -0.0187  0.3729
22198W        W39722   5.386   4.732  14.123 -0.0802  0.2544  0.0887
22199W        W39723  17.609   7.487  14.850  0.0372 -0.2162  0.1732
22200W        W39724   2.312  10.272   3.983  0.2224  0.2162  0.2779
22201W        W39725   9.428  12.081  14.953  0.2009  0.2801  0.0028
22202W        W39726  16.016   3.155   3.894  0.2276 -0.2152  0.1503
22203W        W39727  14.053   7.213  15.858 -0.2352 -0.0871  0.2751
22204W        W39728   9.526   6.374   1.612 -0.0525  0.2331  0.0174
22205W        W39729   4.960  15.592   1.808  0.1618  0.2089 -0.1172
22206W        W39730   8.574  11.248  13.335  0.1154 -0.0457 -0.0599
22207W        W39731   9.110  17.409   1.710 -0.0782 -0.0953 -0.2105
22208W        W39732   8.158   6.546   3.955 -0.0423 -0.0676  0.1373
22209W        W39733  14.359   5.588  11.205  0.0569  0.0383  0.1938
22210W        W39734   0.242  16.011  10.751  0.0581  0.3406  0.0145
22211W        W39735   3.916   5.768   1.803  0.1071  0.1450 -0.4108
22212W        W39736   7.793  11.754  15.077  0.2255 -0.2796 -0.1819
22213W        W39737   3.398   1.611   3.795 -0.0208 -0.1041  0.1656
22214W        W39738   6.868  16.934   3.734  0.0899 -0.0717  0.0125
22215W        W39739   7.780   2.094  15.710  0.1181  0.0882  0.1868
22216W        W39740  16.506   5.178   1.654 -0.0933 -0.3085  0.2050
22217W        W39741   9.654   4.537   3.862 -0.0814 -0.2254 -0.0597
22218W        W39742   8.587  16.183  12.610 -0.1250  0.1226  0.1046
22219W        W39743   8.800   1.630  14.198  0.1637  0.1694 -0.0024
22220W        W39744  16.122  14.353  15.645 -0.0695 -0.3716 -0.2686
22221W        W39745   0.382   1.494   4.658 -0.1808 -0.2627  0.1147
22222W        W39746   7.569   4.119   1.432 -0.0284 -0.2160  0.2949
22223W        W39747   6.240   7.500   4.677  0.0180  0.0575  0.2563
22224W        W39748   5.538  11.485   1.692  0.1692 -0.0069  0.1157
22225W        W39749   8.174   3.810  12.415 -0.1456 -0.2122  0.0434
22226W        W39750   1.190   8.967  14.726  0.0157 -0.1621 -0.2054
22227W        W39751   6.348   7.209   3.296  0.1396  0.1311  0.1601
22228W        W39752   4.719  11.633   4.563  0.3689  0.1376  0.1201
22229W        W39753   5.119   2.184  13.850  0.0965 -0.3115  0.0949
22230W        W39754   2.611  10.158   0.805  0.1034  0.3255  0.3099
22231W        W39755   6.192  16.110   0.379 -0.0187 -0.5940  0.3595
22232W        W39756  11.426  13.393   1.019  0.4932  0.2214  0.1949
22233W        W39757  16.493  14.324   3.870  0.2053  0.1208  0.1773
22234W        W39758   3.573  14.169  13.739  0.3461 -0.4655 -0.1951
22235W        W39759   7.934   7.213   2.742 -0.1901 -0.0783  0.1033
22236W        W39760   2.128   4.208  11.378 -0.0952  0.0997  0.1862
22237W        W39761   6.462  12.739  13.389 -0.1594 -0.0118 -0.1032
22238W        W39762   7.567   4.540  13.964 -0.0707 -0.0339 -0.1658
22239W        W39763   1.054  14.696   4.245 -0.2036  0.1116  0.3862
22240W        W39764   4.913   7.578   3.643  0.1172  0.1743 -0.0610
22241W        W39765  13.638   3.400  12.180 -0.1121 -0.0132 -0.0444
22242W        W39766  16.572  10.320  12.713 -0.0577  0.0828  0.0287
22243W        W39767   4.518  11.997   4.837  0.2323  0.0012  0.4077
22244W        W39768   8.060   3.609  14.998  0.3043 -0.0397 -0.1388
22245W        W39769  13.677  17.472  11.763 -0.1339 -0.0762 -0.0127
22246W        W39770   3.597   4.520   2.829  0.2081  0.0814  0.2612
22247W        W39771   8.166  10.734  13.816 -0.1197  0.2469 -0.2813
22248W        W39772   1.348  11.137   1.326 -0.2628 -0.0629  0.0429
22249W        W39773   8.654  10.332   3.957 -0.0560  0.2202  0.0514
22250W        W39774   5.919  11.259   4.869 -0.0841 -0.3510  0.0542
22251W        W39775  12.246  17.184  11.506  0.2474 -0.4120  0.1884
22252W        W39776  17.795  17.347  13.731 -0.1662  0.2121  0.0188
22253W        W39777   6.241   6.881   4.179 -0.0272  0.1185 -0.1149
22254W        W39778   9.956   5.797  15.955  0.1430 -0.2241  0.0170
22255W        W39779  12.269  12.292   1.281 -0.0187 -0.3012  0.1875
22256W        W39780   6.107   9.346   3.141 -0.1372 -0.1393  0.2471
22257W        W39781   6.071   7.933  14.364 -0.0803 -0.0903 -0.1392
22258W        W39782   6.721   2.881   1.688 -0.0496 -0.0450 -0.2710
22259W        W39783   6.491   0.164   3.451 -0.0597  0.2151 -0.0936
22260W        W39784  11.746   5.490  13.813 -0.2934 -0.0891 -0.2510
22261W        W39785  15.051   4.967  14.346  0.0035  0.0991 -0.1377
22262W        W39786   0.035   7.708   0.425 -0.1026  0.1273  0.1826
22263W        W39787   6.545   5.506   0.389  0.0777 -0.3742  0.2306
22264W        W39788  15.121  11.274  13.694 -0.3345  0.1162  0.4148
22265W        W39789  10.440   9.047  15.882  0.0644  0.2183  0.1601
22266W        W39790   6.232  12.451   0.106  0.1524  0.0025 -0.0006
22267W        W39791  17.042   8.155  12.702  0.0970  0.1354 -0.2671
22268W        W39792   0.105  10.728  13.146  0.2983 -0.0079  0.1932
22269W        W39793   9.976   6.465  12.385  0.1216 -0.2102 -0.0297
22270W        W39794   6.451  13.208  13.605  0.1212 -0.0111  0.0991
22271W        W39795   2.688  14.249   3.691 -0.2047  0.1868  0.1584
22272W        W39796  12.210   3.809   1.053 -0.0627  0.1710  0.0078
22273W        W39797   4.707  11.822   1.145 -0.0975 -0.0446  0.2359
22274W        W39798  14.844  10.198   3.824  0.0544  0.0820 -0.2294
22275W        W39799   4.098  13.616   2.581  0.3829  0.3189  0.0220
22276W        W39800   5.123  12.252   1.671 -0.2892  0.0594  0.1242
22277W        W39801   6.925  15.314   2.590  0.2213  0.0740 -0.1822
22278W        W39802   4.294   6.045  14.098 -0.3412  0.1147 -0.0668
22279W        W39803  16.185   3.654  11.614 -0.0499 -0.0941 -0.0429
22280W        W39804   4.320   2.927  14.626  0.2166 -0.0050  0.1736
22281W        W39805  13.933   4.462   1.072  0.0529 -0.1834 -0.1362
22282W        W39806  14.235   3.817  11.885  0.4125 -0.0139 -0.1076
22283W        W39807  16.370  12.978   2.063  0.2555 -0.0307  0.0202
22284W        W39808   3.847  13.835  13.504  0.0783 -0.1748 -0.1119
22285W        W39809   5.823   3.911  12.516 -0.0687  0.1028 -0.0052
22286W        W39810   7.082   3.129  12.383  0.0892  0.3554  0.0841
22287W        W39811  12.353  12.753  12.316  0.3747 -0.0138  0.1168
22288W        W39812  14.252   5.045  11.171 -0.1212  0.2785  0.2140
22289W        W39813  10.291   0.018  12.085  0.3219  0.3005 -0.0636
22290W        W39814   2.427   7.683  11.889  0.1797  0.1963  0.0821
22291W        W39815  14.970  17.855   0.648 -0.0726  0.2333 -0.1733
22292W        W39816   6.879  13.163  11.336  0.2281  0.1221 -0.2031
22293W        W39817   5.784   3.788   3.240 -0.0699 -0.1471  0.0058
22294W        W39818  12.950   0.496  14.546 -0.0107 -0.2456 -0.0209
22295W        W39819  14.449   0.752  12.381  0.1631  0.0818  0.3230
22296W        W39820  14.639   6.709  10.876  0.0047 -0.0676  0.0917
22297W        W39821   5.673  16.316  14.755 -0.2624  0.0548 -0.0853
22298W        W39822  15.978  12.584  13.023  0.2041 -0.1003 -0.1423
22299W        W39823  11.853   1.793  13.776  0.0446  0.3130  0.5314
22300W        W39824  12.757   0.537   1.750  0.0997  0.1974  0.1223
22301W        W39825   8.285  13.495   5.288 -0.0977 -0.1514 -0.0759
22302W        W39826  15.175   8.106  12.570  0.2392 -0.2208  0.1563
22303W        W39827  17.651  15.988  15.999  0.0384  0.0689 -0.0014
22304W        W39828  13.970   4.393  13.641  0.2642  0.1148  0.1309
22305W        W39829  14.333  12.162  13.605  0.0170  0.1212 -0.4000
22306W        W39830   7.829  11.900  12.038  0.1776  0.1553  0.0167
22307W        W39831   2.510  17.447   0.979 -0.0714  0.0202 -0.1563
22308W        W39832  14.810   8.214   2.010  0.1232 -0.1640  0.0967
22309W        W39833   7.078   2.155   3.394  0.1375  0.0773 -0.1709
22310W        W39834   5.078  12.240  14.574  0.2972  0.1133  0.1354
22311W        W39835  13.577  16.142  12.159 -0.0829 -0.0508 -0.1359
22312W        W39836   4.959  14.061  10.727  0.0309 -0.1938  0.2925
22313W        W39837  14.611  11.867   4.280  0.0936  0.1894  0.1695
22314W        W39838   7.417  17.306  14.881 -0.0778  0.1949 -0.0859
22315W        W39839   5.867   9.280  13.694 -0.1926 -0.1412  0.2632
22316W        W39840  11.636  10.024   3.477  0.1194 -0.2752  0.4793
22317W        W39841  17.165   6.914  10.326  0.5099  0.4013  0.2817
22318W        W39842  15.210  14.281   2.643 -0.0708  0.2222  0.1145
22319W        W39843   4.698  17.880  12.776 -0.0369 -0.1501 -0.0798
22320W        W39844  14.753  10.338   2.308 -0.0389 -0.2344  0.1279
22321W        W39845   4.038   8.525   0.475 -0.0701 -0.2873 -0.4549
22322W        W39846   9.568   0.461  15.951  0.2731  0.1849  0.0353
22323W        W39847  11.729   7.383  10.650 -0.1039 -0.2490 -0.2767
22324W        W39848   5.480   0.175   3.968  0.1301  0.1960  0.1137
22325W        W39849  11.610  11.716  14.347 -0.2953  0.2007  0.0619
22326W        W39850  15.544   8.608   1.150  0.2285  0.0397 -0.0145
22327W        W39851  13.868   9.760  12.946  0.0663  0.1705  0.2037
22328W        W39852   5.726   3.346  14.213  0.1893 -0.0086  0.1471
22329W        W39853  11.867  13.490  15.323  0.0438 -0.0021  0.0469
22330W        W39854  12.962   9.032   0.599  0.0760 -0.1363 -0.0715
22331W        W39855   8.019  16.461  11.891  0.0026  0.0325  0.2904
22332W        W39856   8.593  15.806   3.308  0.1091  0.1209 -0.0353
22333W        W39857   3.040  10.386  13.088  0.1897  0.0741  0.0498
22334W        W39858   1.794   9.722   2.328  0.1492 -0.3410 -0.1061
22335W        W39859  15.267   7.998   0.224 -0.0007 -0.2155 -0.3010
22336W        W39860  16.613   7.265   3.171 -0.2535 -0.2578 -0.0645
22337W        W39861   7.112  14.816   2.569  0.0651  0.0336 -0.0647
22338W        W39862   6.312   3.805  13.564 -0.1091 -0.2382  0.0845
22339W        W39863   2.278  12.210  11.451  0.2104 -0.0218  0.1226
22340W        W39864   4.423   5.840   1.775 -0.1351  0.2520 -0.0328
22341W        W39865   8.931   3.716  11.913 -0.1509  0.1781  0.1386
22342W        W39866  12.142   9.362  12.480  0.3436 -0.1408  0.0534
22343W        W39867   4.260   6.135   0.940 -0.4085  0.1568 -0.0816
22344W        W39868   3.200   4.938  14.956 -0.3002  0.1098 -0.2176
22345W        W39869   9.390   6.446   2.508  0.3229 -0.0411  0.1636
22346W        W39870  16.784  13.465   0.949  0.2903  0.0733 -0.1644
22347W        W39871  16.563  11.210   0.732 -0.0810 -0.2128 -0.2755
22348W        W39872   8.954  13.693  13.953 -0.0488 -0.1900 -0.0059
22349W        W39873   0.348   3.354   5.052  0.2040 -0.2808 -0.0440
22350W        W39874  15.588   6.541   3.908  0.0146  0.0482  0.0663
22351W        W39875   9.607   4.695   1.144  0.0344 -0.0084 -0.0191
22352W        W39876   9.163  12.258  11.919  0.0314 -0.2236 -0.0120
22353W        W39877   8.094   2.356   1.054 -0.0810 -0.1471  0.3906
22354W        W39878  13.721  11.395  11.729 -0.2273 -0.2600 -0.2714
22355W        W39879   7.829   8.833   4.546  0.3138  0.1674  0.0571
22356W        W39880   4.967   3.371   5.192 -0.0305 -0.1748 -0.0711
22357W        W39881   3.394   4.188  12.945 -0.0375 -0.1355  0.0539
22358W        W39882   0.426  13.430   0.098 -0.1455 -0.3693  0.1461
22359W        W39883   4.408  10.533   3.342  0.0147 -0.1023 -0.1278
22360W        W39884   6.019  15.738   2.744  0.4098  0.0389  0.1851
22361W        W39885   4.687   2.897   1.268 -0.0859  0.0442 -0.3109
22362W        W39886  10.044  14.462   1.148 -0.1129  0.2549  0.2874
22363W        W39887   3.133   1.234   1.796 -0.0134  0.0837 -0.1149
22364W        W39888   0.324  10.631  14.139 -0.1233 -0.1772  0.2679
22365W        W39889  11.490   3.090  12.022 -0.1416 -0.1566  0.1712
22366W        W39890  12.908   9.075   4.427  0.2002 -0.1403  0.0572
22367W        W39891   4.458   5.515  12.136  0.0039 -0.2762  0.0715
22368W        W39892  16.759  14.832  13.203 -0.2776  0.2888 -0.3504
22369W        W39893  11.591  17.585   5.211 -0.2579  0.0589 -0.2583
22370W        W39894   6.294   9.048   4.416 -0.0027 -0.0541 -0.2189
22371W        W39895   4.660  14.824  11.598 -0.1134  0.0345  0.1163
22372W        W39896   8.086   2.756  10.974  0.1436  0.0633  0.0359
22373W        W39897   1.822  12.594   0.306 -0.2117  0.1131  0.1199
22374W        W39898   1.972   2.188   1.216  0.1478 -0.1301  0.3544
22375W        W39899  11.265  14.467  11.973  0.3234  0.0880  0.0338
22376W        W39900  11.574   7.847   0.551 -0.1686  0.4132  0.1392
22377W        W39901  17.095  12.883   1.577 -0.1211  0.1395 -0.1797
22378W        W39902   9.605  17.742  11.462  0.0112  0.0598 -0.0220
22379W        W39903   7.099  11.120  12.162  0.0810 -0.3188  0.1139
22380W        W39904   8.007  16.168   4.462 -0.2552  0.2455  0.1158
22381W        W39905   8.730  14.440  13.494 -0.1362 -0.2366  0.1620
22382W        W39906   7.344  10.823  11.739 -0.1334  0.0880  0.1348
22383W        W39907   1.952   3.641   1.042  0.0336 -0.0039  0.0283
22384W        W39908   1.885   8.947  15.667 -0.2357 -0.0171  0.1391
22385W        W39909  11.891  15.131  15.443 -0.0038 -0.0203  0.2627
22386W        W39910   4.328  13.360  14.463  0.2620  0.2143 -0.2776
22387W        W39911  18.095   4.111   1.370 -0.1982 -0.2493  0.1262
22388W        W39912  11.207   5.338   0.673  0.0726  0.0787  0.2980
22389W        W39913  13.487   2.702   1.691  0.0224  0.0169 -0.2993
22390W        W39914  10.435  12.285   2.261 -0.3617 -0.1130  0.0689
22391W        W39915  13.304  17.295   4.156  0.1905  0.0195 -0.0864
22392W        W39916  11.868   6.716  11.429  0.0990  0.2887 -0.0052
22393W        W39917  18.010  17.597   0.172  0.4398  0.1001  0.1906
22394W        W39918   3.100   2.077   1.929  0.1667  0.2357 -0.0803
22395W        W39919   3.386   3.469  14.277  0.0425 -0.2972  0.4036
22396W        W39920   1.432  16.933   3.927  0.2080 -0.0121 -0.0979
22397W        W39921   0.651   4.241   0.584 -0.2903  0.2986  0.1034
22398W        W39922  11.324  12.301   2.284  0.0736 -0.0944  0.1664
22399W        W39923   0.019   0.679   3.264 -0.1961 -0.1850  0.1501
22400W        W39924  14.777  10.602  16.035 -0.0565  0.1210  0.1190
22401W        W39925   4.660   7.978  12.950  0.0014 -0.0961  0.1952
22402W        W39926   9.344  10.880  15.313  0.0326 -0.2406  0.0126
22403W        W39927   3.766   1.986   4.802  0.3243  0.0362 -0.5773
22404W        W39928   7.185   4.455   1.104 -0.4580 -0.0081  0.0718
22405W        W39929   3.397   8.571  14.592  0.0138  0.2628 -0.0412
22406W        W39930  12.285   7.772   4.361  0.0167 -0.0582 -0.0381
22407W        W39931   4.291  14.691  15.837 -0.1573  0.3007  0.1700
22408W        W39932  14.823   9.381  12.884 -0.1717  0.0010 -0.0893
22409W        W39933  16.860  13.192   4.151  0.1173  0.0011  0.0020
22410W        W39934   5.375  14.592   3.278  0.1861  0.0852  0.2431
22411W        W39935   3.906  11.775   1.867  0.1408 -0.1639 -0.0726
22412W        W39936  11.331  12.259  11.826  0.3059 -0.0241 -0.0742
22413W        W39937  16.670   5.685   1.980  0.2465 -0.0659  0.2056
22414W        W39938  10.633  11.119   3.575  0.2310  0.0298  0.2345
22415W        W39939   6.276  15.409  12.558 -0.0670 -0.1179 -0.0008
22416W        W39940  17.506  17.807  14.422 -0.0665  0.0840 -0.0281
22417W        W39941  14.870   8.555  11.793  0.0809  0.2447 -0.1821
22418W        W39942  15.017  10.127   1.340  0.2825 -0.1275  0.2395
22419W        W39943  13.250   5.148  13.149  0.1067  0.1167 -0.0434
22420W        W39944  12.030  17.733   4.069 -0.1558  0.0600 -0.0780
22421W        W39945  18.001  12.864   2.150 -0.0765 -0.0486 -0.0822
22422W        W39946  16.205   4.532   4.915  0.0098 -0.2884  0.0274
22423W        W39947   7.018  17.739   2.816  0.3064 -0.1221  0.0616
22424W        W39948   3.880   6.534   4.457  0.0349 -0.2143 -0.0581
22425W        W39949   9.243  15.777   1.180  0.2361 -0.0443 -0.0830
22426W        W39950  15.661  11.201   4.291  0.0500 -0.2488 -0.2849
22427W        W39951   9.864  12.330  15.140 -0.1105 -0.0185  0.0729
22428W        W39952   6.267   5.184  10.922 -0.0410  0.0566 -0.2091
22429W        W39953   2.337   6.338   0.457 -0.0739 -0.0522  0.1265
22430W        W39954   4.846  17.079   3.007 -0.1647  0.1581  0.1475
22431W        W39955   9.498  16.515   3.886  0.0043  0.3963 -0.2579
22432W        W39956  11.993   9.669   4.301  0.2864  0.0668 -0.0042
22433W        W39957  15.063  16.428  14.763  0.0814 -0.1905  0.2403
22434W        W39958   2.519   9.288  13.814 -0.1711 -0.0698 -0.0567
22435W        W39959  16.751  13.819  14.292  0.3898 -0.0510  0.0881
22436W        W39960   7.040   1.166   3.546 -0.2644 -0.0811 -0.1691
22437W        W39961   7.946   1.538  11.309 -0.2086 -0.3427 -0.1152
22438W        W39962  17.910   0.498  12.154 -0.0588 -0.1542  0.0428
22439W        W39963   6.325   3.108  13.748  0.0413  0.0857  0.0460
22440W        W39964   6.767  11.775   4.479  0.0601 -0.1276  0.2032
22441W        W39965   7.353  12.818   0.096 -0.1980  0.0665 -0.0942
22442W        W39966   3.055   0.267  10.974  0.0439  0.2716 -0.0979
22443W        W39967  14.267   1.900  11.936  0.1906  0.1036  0.1684
22444W        W39968  14.925  14.933  13.194  0.0543 -0.1221 -0.1044
22445W        W39969  10.494  14.638   0.937  0.2298 -0.1347  0.0825
22446W        W39970   9.115   8.210  15.288  0.1610 -0.3495 -0.1034
22447W        W39971  10.564   7.436   4.242  0.2655  0.0546 -0.1011
22448W        W39972  12.989  15.591   4.239 -0.0581 -0.3519  0.1971
22449W        W39973  10.867   9.706  13.462 -0.2477  0.1507  0.1609
22450W        W39974   3.718  14.090  12.853 -0.2638  0.0463  0.0829
22451W        W39975   6.288   0.447  12.401 -0.0200 -0.0346  0.0250
22452W        W39976  13.691  12.936   3.531 -0.1264 -0.3566 -0.1493
22453W        W39977   0.803  12.635  13.396 -0.2813  0.0192 -0.0134
22454W        W39978  12.929  13.661   5.720 -0.0965  0.0626  0.1633
22455W        W39979   1.195   9.244  13.869  0.1936  0.0725  0.1633
22456W        W39980  15.502  13.646   2.511  0.2681 -0.2125  0.1473
22457W        W39981  14.023   6.539   4.640  0.2693 -0.5314 -0.3731
22458W        W39982   6.791   7.281  10.796 -0.0445  0.1773 -0.2779
22459W        W39983   0.704   0.899  12.523 -0.3009  0.1097 -0.0526
22460W        W39984  17.781  11.283   4.737  0.1236 -0.0114  0.0093
22461W        W39985   3.001   8.928  14.518 -0.3678 -0.0376  0.1978
22462W        W39986  10.794   2.554   4.779  0.2027  0.2608 -0.0291
22463W        W39987  11.097  11.425  12.312 -0.1383  0.1281  0.1889
22464W        W39988  10.428  12.235  15.882  0.1292  0.3000  0.0253
22465W        W39989  10.403   9.545  15.723 -0.2177  0.0464  0.2320
22466W        W39990   3.841  12.345   2.968  0.1055 -0.1338 -0.0120
22467W        W39991  15.645  11.482  15.935 -0.2115 -0.1636 -0.0920
22468W        W39992   5.852   2.824  12.927  0.0593  0.1707  0.1539
22469W        W39993   7.647  16.138   3.191 -0.1604 -0.1934 -0.2104
22470W        W39994   5.030  17.530  12.781 -0.1254 -0.0524  0.0362
22471W        W39995   8.869   3.517  14.514 -0.0961 -0.0029 -0.1316
22472W        W39996  17.360   4.662   4.013 -0.0187  0.0762  0.2589
22473W        W39997  12.510   5.965  14.652  0.3631  0.2428 -0.1064
22474W        W39998   6.694   5.987   0.391 -0.0488  0.0604 -0.3807
22475W        W39999  12.251  11.840   0.512  0.0091 -0.0604  0.1678
22476W        W40000   0.115   6.489  12.023 -0.1011 -0.1121  0.1487
22477W        W40001   6.556   3.562   3.653 -0.1324  0.0608  0.2413
22478W        W40002  14.495  17.527  12.581  0.2280 -0.0344 -0.3075
22479W        W40003   1.030  13.477   1.651 -0.1824  0.2802 -0.2391
22480W        W40004   0.796  16.865   0.710 -0.1586 -0.3035 -0.0131
22481W        W40005  15.372   8.714   3.945 -0.0501  0.1547  0.0555
22482W        W40006   7.430  16.445  11.025 -0.3566  0.3337 -0.0831
22483W        W40007  13.150  17.960  11.613  0.0417  0.0347 -0.3011
22484W        W40008   5.753   0.002   0.453  0.0372  0.3909 -0.1385
22485W        W40009   7.450   1.926   4.505 -0.4500  0.2702 -0.2438
22486W        W40010   6.913   7.306  13.660  0.0292  0.0373 -0.0611
22487W        W40011   6.383   4.644   0.972 -0.1352  0.1323  0.2445
22488W        W40012  17.070  13.814   1.692  0.0785 -0.0839 -0.3057
22489W        W40013  10.150   8.981   3.512 -0.0681 -0.2329 -0.0432
22490W        W40014  15.021  16.831  15.116 -0.1623 -0.1219 -0.1901
22491W        W40015   7.747  16.760  14.071 -0.0192 -0.3130 -0.0339
22492W        W40016  15.484   7.928  13.496  0.1812  0.0035 -0.0499
22493W        W40017   9.056  16.858  11.440  0.1757 -0.1102 -0.2202
22494W        W40018   2.802  12.831   0.454 -0.1329  0.0649 -0.4251
22495W        W40019  11.575   1.842   0.787 -0.0320 -0.1846 -0.1007
22496W        W40020   8.073  14.935   2.309  0.1085  0.0662 -0.1958
22497W        W40021  16.115  17.887   1.503  0.2116 -0.2436 -0.1574
22498W        W40022   9.628   3.750  11.689 -0.2535  0.2389  0.2262
22499W        W40023  13.209  14.031   1.144 -0.2472 -0.4059 -0.2378
22500W        W40024  10.800  16.099  12.847 -0.2244  0.2014 -0.2314
22501W        W40025   6.791   8.216  11.912  0.0584 -0.0979  0.0250
22502W        W40026   5.604  12.514   1.882 -0.0821  0.0991  0.1360
22503W        W40027  13.354   9.311   4.583 -0.2539 -0.2098 -0.0330
22504W        W40028  12.164   7.038  13.505  0.0061 -0.2973 -0.4374
22505W        W40029   7.448   6.868  14.861 -0.2554  0.1005 -0.1574
22506W        W40030  17.831  11.899   5.042 -0.2152  0.1437  0.1356
22507W        W40031   3.353   7.733   2.065  0.0152  0.0279 -0.0565
22508W        W40032   2.000   8.019  11.575  0.1463  0.2368 -0.1063
22509W        W40033  13.883   8.385  14.283 -0.0874  0.2112 -0.1782
22510W        W40034   6.591   4.756  12.657 -0.1765 -0.2497  0.1173
22511W        W40035  16.812   7.263  13.272  0.1508  0.0929  0.1413
22512W        W40036   3.972   8.099   4.512  0.0649 -0.0742  0.0460
22513W        W40037  16.386   3.381   0.382 -0.1067 -0.1501 -0.0065
22514W        W40038  14.502   9.190  10.962  0.0112 -0.0240  0.1153
22515W        W40039  13.635   3.048  13.393 -0.2982 -0.0232  0.0642
22516W        W40040  13.913   3.376  14.675  0.0349 -0.0596  0.0981
22517W        W40041  10.017  16.052  13.792  0.0120 -0.0652  0.0654
22518W        W40042   5.308   6.417  10.189 -0.2592 -0.2270  0.2741
22519W        W40043   0.637   5.355   0.312  0.0734 -0.0849 -0.1669
22520W        W40044  14.383  15.696  13.291 -0.1860  0.1663 -0.3203
22521W        W40045  17.754  17.675   4.418  0.0012 -0.3632 -0.0489
22522W        W40046   6.038   4.162  14.147  0.0813 -0.0669  0.0790
22523W        W40047   8.559   7.474   3.042 -0.0311 -0.0461 -0.1339
22524W        W40048  17.092  15.461   5.179 -0.2696 -0.1649  0.1221
22525W        W40049  10.573   1.246   4.455  0.0065 -0.0349 -0.0119
22526W        W40050   9.628   7.502   3.936 -0.0203 -0.2156 -0.1082
22527W        W40051   9.023  10.180  12.691  0.0841 -0.1148 -0.0510
22528W        W40052   7.639  18.066  12.912 -0.0495  0.3409 -0.0830
22529W        W40053   2.606  12.176   5.800 -0.0511 -0.1800  0.0633
22530W        W40054  16.667  15.624  11.292 -0.1061 -0.2093 -0.2618
22531W        W40055   4.680   4.603   3.761  0.1476 -0.0178  0.3479
22532W        W40056  15.529  15.650  14.050  0.0237 -0.0758  0.1180
22533W        W40057  14.632  10.241  10.846 -0.2885  0.3054  0.0232
22534W        W40058  14.861   9.356   3.459  0.2030 -0.2444  0.1036
22535W        W40059   5.481   0.802   1.282 -0.1267  0.0737  0.0549
22536W        W40060  13.180  12.965   3.467 -0.1430 -0.0511  0.0913
22537W        W40061  17.068  16.270   3.037 -0.0253  0.1845 -0.0356
22538W        W40062   9.026   1.857   2.272 -0.0624  0.0344 -0.2654
22539W        W40063   9.441   2.451   4.395  0.0170 -0.2843 -0.1078
22540W        W40064   7.674  11.016   2.153  0.0847  0.1211 -0.0199
22541W        W40065   8.520   8.162   4.206 -0.0162  0.0372  0.1398
22542W        W40066   2.087   2.747   0.556 -0.1751  0.2836  0.2580
22543W        W40067  13.772  14.889  15.754  0.1013 -0.2202  0.2708
22544W        W40068  13.856   4.262  11.170 -0.1019  0.3274 -0.1475
22545W        W40069  16.235  11.131  13.734  0.3775  0.0505  0.1099
22546W        W40070  12.876   4.786  12.543  0.1949  0.3424  0.0992
22547W        W40071  12.831   3.089  12.432 -0.1535 -0.0299 -0.1611
22548W        W40072   3.675   5.776  15.932 -0.1073  0.0093 -0.4017
22549W        W40073   6.683  16.156  14.734 -0.0238  0.1901 -0.4035
22550W        W40074   8.916   6.245  15.889  0.0044  0.1010  0.1102
22551W        W40075   4.388  17.531  12.407 -0.1603 -0.1213 -0.0926
22552W        W40076   3.833   9.868  12.345 -0.1395 -0.3458  0.3888
22553W        W40077   8.068   4.234   3.646 -0.2389 -0.0195  0.0064
22554W        W40078   8.708  13.060   1.037 -0.1300  0.1584  0.2052
22555W        W40079  13.583  12.890   2.694  0.0341 -0.1491  0.1422
22556W        W40080   3.821  12.754   4.627  0.1582 -0.1424  0.0458
22557W        W40081  13.321   0.525  13.281 -0.0957 -0.1294 -0.0283
22558W        W40082   7.569   1.384  12.196 -0.0925  0.0866 -0.1324
22559W        W40083   9.957  16.752  15.500  0.1313 -0.4027 -0.1254
22560W        W40084   3.773   5.524   4.237 -0.1290 -0.1005  0.1471
22561W        W40085  12.473   9.554  14.505 -0.3393  0.0986 -0.1289
22562W        W40086   0.686  14.899   1.080  0.1078 -0.1634 -0.2608
22563W        W40087   6.537  13.481  12.703  0.3797  0.2139  0.0659
22564W        W40088  16.288   6.580  15.256  0.0390 -0.1132  0.0560
22565W        W40089  13.620   8.313   2.153 -0.0314 -0.3809 -0.0874
22566W        W40090   5.149  16.859   1.760 -0.0051  0.0786 -0.0649
22567W        W40091  11.716   9.584  13.299 -0.1099 -0.2288 -0.4272
22568W        W40092  12.637   5.250  13.849 -0.1557  0.0353  0.1763
22569W        W40093  12.855   4.493   0.994  0.2418  0.0722 -0.0398
22570W        W40094   7.913   7.496  13.289 -0.1068  0.0146 -0.0095
22571W        W40095  17.694   0.513   4.186 -0.0352  0.1328 -0.1760
22572W        W40096   6.906   5.225   3.293  0.3120 -0.0145  0.3319
22573W        W40097   5.296  15.567  14.812  0.3148  0.2041  0.0158
22574W        W40098  17.913   7.593   4.757 -0.1338 -0.2200  0.1642
22575W        W40099   4.392  17.048   2.719 -0.0448 -0.1459  0.1048
22576W        W40100   8.863   3.292   0.333 -0.0178 -0.1181  0.1618
22577W        W40101  16.903   2.036   0.218 -0.3517 -0.1015  0.2108
22578W        W40102   6.490  13.671   1.049 -0.1525 -0.0527  0.0350
22579W        W40103   6.108  17.249  13.300  0.1297 -0.0272  0.3715
22580W        W40104  15.748  13.379  13.372  0.0180  0.0585  0.1436
22581W        W40105  10.804  12.749   3.390 -0.0788 -0.1607  0.0949
22582W        W40106  12.504   4.150   0.657 -0.3132 -0.2534  0.0020
22583W        W40107   5.095  17.368   1.822 -0.2663 -0.1519 -0.1461
22584W        W40108   0.382  17.822   6.380 -0.1814  0.1279 -0.0499
22585W        W40109  11.376  10.885   4.935  0.0378  0.1577 -0.0843
22586W        W40110  17.361  15.481  11.986 -0.2655 -0.0554 -0.4141
22587W        W40111   3.499  17.634  13.872 -0.1765  0.1497  0.0812
22588W        W40112   3.215  14.862   5.325 -0.0236 -0.0864 -0.1935
22589W        W40113   6.179   8.022  13.787 -0.1525  0.2700  0.5005
22590W        W40114   6.025  16.877  10.253 -0.0597  0.0060  0.1944
22591W        W40115   0.554   4.863   3.178 -0.2016 -0.0886  0.0895
22592W        W40116   7.977   3.088  14.789 -0.1296 -0.2302 -0.3145
22593W        W40117   0.484  15.565  15.110 -0.1197  0.1276 -0.0025
22594W        W40118   6.385  17.926  15.880 -0.0829 -0.4013 -0.1258
22595W        W40119   9.734   2.849  11.432  0.0950  0.0860 -0.0571
22596W        W40120   7.545   3.757  11.544  0.0289 -0.3792 -0.0263
22597W        W40121   3.240   7.654  13.212 -0.1677  0.0606  0.3317
22598W        W40122   7.325  10.148  15.539 -0.0674  0.2487 -0.0578
22599W        W40123   9.302   2.835   3.852  0.1915  0.0618 -0.2690
22600W        W40124  17.292  17.642   2.750 -0.1517 -0.1675 -0.3702
22601W        W40125  13.942   2.832  10.268  0.3014 -0.0770 -0.0098
22602W        W40126   7.659   9.547   2.399  0.1154 -0.0133  0.0788
22603W        W40127  15.520  10.244  12.980 -0.1892  0.3685  0.0612
22604W        W40128  15.847   2.131  14.441  0.1644  0.0918 -0.0447
22605W        W40129   5.738   1.718  12.352 -0.2921 -0.5249  0.3319
22606W        W40130  10.055   2.129  14.821 -0.0942  0.1643  0.0173
22607W        W40131  15.461  16.268   2.223  0.1634  0.2938  0.1626
22608W        W40132  11.138  15.782   1.351 -0.1395  0.0189 -0.1311
22609W        W40133  12.885   2.630   2.307  0.3675  0.2439  0.0958
22610W        W40134   3.417   0.614  10.992  0.0917  0.2480  0.2770
22611W        W40135   7.695  14.081   1.056  0.1733 -0.0882 -0.1135
22612W        W40136   1.885  15.147   2.575  0.1836  0.1204  0.5593
22613W        W40137  16.390   7.447   0.770  0.0240  0.0117  0.1915
22614W        W40138  14.937   3.266   0.031  0.2347 -0.1713  0.1866
22615W        W40139   3.946   5.400   0.201 -0.0242  0.0437 -0.0651
22616W        W40140   6.925   6.387   4.309 -0.1110  0.1937  0.0083
22617W        W40141   6.066   5.275   1.418 -0.3883  0.0525  0.3634
22618W        W40142  14.907   3.785   2.126 -0.1063  0.1214  0.0059
22619W        W40143  17.699   9.675  11.838  0.0788  0.0146 -0.0009
22620W        W40144  10.712  12.413   0.188 -0.0532  0.5804 -0.0053
22621W        W40145   2.714   5.422  13.431  0.1993  0.1674  0.0561
22622W        W40146   0.294  12.509  12.188  0.1242 -0.1722  0.0707
22623W        W40147   7.885  10.598   2.396 -0.0396 -0.2585  0.1648
22624W        W40148   8.603   9.723  11.452 -0.0344  0.0712  0.1784
22625W        W40149   2.469   0.766   4.971  0.1834 -0.4141 -0.1919
22626W        W40150   4.646   1.622   1.184 -0.3733 -0.3369 -0.0399
22627W        W40151   7.580   3.234  15.192 -0.0975  0.0603 -0.2789
22628W        W40152   8.226   5.987  14.727 -0.1352 -0.0301  0.0409
22629W        W40153  11.626   4.492   1.943  0.1622 -0.2837 -0.0029
22630W        W40154  14.211  14.339   3.814  0.0514  0.2092 -0.0934
22631W        W40155   2.615  11.462  11.627 -0.1282  0.0660  0.3474
22632W        W40156   4.910   9.786  15.094 -0.4865  0.3424 -0.1586
22633W        W40157   3.532   5.438   4.817 -0.2200 -0.2752  0.0103
22634W        W40158   9.570  16.366   3.172  0.0103 -0.2866  0.0041
22635W        W40159   9.769   0.530   1.198 -0.1346 -0.2413  0.1341
22636W        W40160   2.398   6.927  11.701  0.1757 -0.0689  0.0384
22637W        W40161  10.309   0.574   1.687  0.2005  0.1211  0.0359
22638W        W40162  14.995  10.759  15.599  0.1467 -0.1808 -0.2911
22639W        W40163   3.005   5.988   4.196 -0.0835 -0.1892  0.3499
22640W        W40164  16.604  13.259   5.411 -0.0310 -0.2426 -0.1573
22641W        W40165   9.979   1.988  10.896 -0.2131 -0.1326  0.1462
22642W        W40166   1.596   7.309  12.251 -0.1335  0.0147 -0.1099
22643W        W40167   2.983   1.272   5.712 -0.0741 -0.2885  0.1052
22644W        W40168  15.213  18.089  12.426 -0.1220  0.0008 -0.0077
22645W        W40169   0.361  14.280   0.608  0.0994  0.1110  0.2805
22646W        W40170  16.694  15.823   2.819 -0.0747  0.2447  0.1141
22647W        W40171  12.196   6.829  15.068 -0.1067  0.1081  0.0271
22648W        W40172  18.035   7.800   0.882 -0.1204  0.0015 -0.0167
22649W        W40173   8.169   1.350   1.445 -0.1076  0.1556 -0.2011
22650W        W40174   9.299   0.697  14.746 -0.1683 -0.0199  0.3996
22651W        W40175  13.651  11.419  14.070  0.0752  0.0060  0.0279
22652W        W40176  14.796   6.019  13.167 -0.1189  0.3171 -0.1411
22653W        W40177  10.217   1.436  13.153  0.0160 -0.0648  0.1796
22654W        W40178   1.885  17.036   2.148 -0.1361  0.1284 -0.0905
22655W        W40179   8.047  11.239   4.998  0.1174  0.1392  0.1366
22656W        W40180   2.873   6.317  11.714 -0.2506  0.1676  0.1459
22657W        W40181   0.526   3.577  14.547  0.0736  0.2160 -0.1017
22658W        W40182   2.130  14.426  12.533 -0.0539 -0.0092  0.5728
22659W        W40183   8.004  17.215  11.314 -0.2906  0.2425 -0.4332
22660W        W40184  10.867   0.530  15.682 -0.0708  0.1925  0.0703
22661W        W40185  11.882  13.830   3.246 -0.1673 -0.0611  0.0768
22662W        W40186   4.434  15.704  11.409  0.1905 -0.0402  0.1865
22663W        W40187   8.777   9.768   0.017 -0.2444  0.0946 -0.0165
22664W        W40188  16.561  10.944   4.088  0.4407  0.0990 -0.2374
22665W        W40189   6.267  11.121   5.198 -0.0477 -0.0676  0.0657
22666W        W40190  17.286   3.707   3.690 -0.0430  0.0413 -0.0117
22667W        W40191   2.969   2.872  13.671 -0.0963 -0.2780 -0.0266
22668W        W40192  14.631   6.864  11.387  0.0504  0.2865 -0.1511
22669W        W40193  10.039  16.096  10.922  0.1650 -0.1438  0.0957
22670W        W40194   5.260  14.267  15.128  0.1002  0.2442  0.0641
22671W        W40195   7.665  16.139  12.590 -0.2120  0.0733  0.1298
22672W        W40196  10.695   6.830  14.792 -0.0144  0.2788  0.1486
22673W        W40197  10.786  16.280   2.796  0.2247 -0.3765 -0.1608
22674W        W40198  15.980   7.808  14.957 -0.0043  0.0253 -0.1728
22675W        W40199   5.170   5.393   1.351  0.0682  0.0375  0.0512
22676W        W40200   0.851   6.743  10.845 -0.0834  0.0839 -0.0930
22677W        W40201   6.476  11.671  15.519 -0.0679  0.2237  0.3398
22678W        W40202  14.188  11.160   2.521  0.0262  0.0435 -0.0992
22679W        W40203   8.899   5.439   1.263  0.1824 -0.1329  0.3427
22680W        W40204   7.881   9.016  14.099  0.1007  0.1510  0.0408
22681W        W40205   6.719   8.123   2.391 -0.2441 -0.1694  0.3295
22682W        W40206   4.155  11.380   1.688 -0.0492 -0.1084 -0.2923
22683W        W40207   3.302  10.913   1.612 -0.1229 -0.0046  0.1619
22684W        W40208   0.951  12.947  13.795 -0.1811 -0.2209 -0.0643
22685W        W40209   6.563  14.341   4.204  0.1837 -0.2063 -0.0809
22686W        W40210  16.733   1.923   3.525  0.0255 -0.0183 -0.1027
22687W        W40211   6.321   5.810   2.609  0.3376  0.4388  0.2423
22688W        W40212  15.346   6.853  13.082 -0.2242 -0.1932 -0.1090
22689W        W40213   1.670  15.641   2.142 -0.1237 -0.0742  0.2468
22690W        W40214  13.293  11.054   0.199  0.0877 -0.0077  0.0483
22691W        W40215  11.922   6.544   2.962 -0.0139  0.3048  0.0081
22692W        W40216  12.537   7.706   0.357 -0.0318 -0.1065  0.3496
22693W        W40217   9.814  10.047  11.909 -0.1983 -0.2817 -0.1200
22694W        W40218  16.268  13.803   4.143 -0.0101 -0.1449  0.0819
22695W        W40219  10.772   9.875   1.788 -0.0690 -0.1779  0.2485
22696W        W40220   4.583   4.664   3.203 -0.1895  0.0161 -0.2107
22697W        W40221  15.912  14.695   0.600 -0.2041  0.0057  0.0895
22698W        W40222   1.855  10.411  14.218  0.3590 -0.1962  0.0730
22699W        W40223  14.969   7.920   1.573  0.0313 -0.0619  0.1610
22700W        W40224   4.123   1.619  12.601  0.1673  0.1480  0.0884
22701W        W40225   7.641  10.753  14.311 -0.1239 -0.3987  0.0962
22702W        W40226   0.331  13.832   5.294 -0.2349 -0.0403  0.2285
22703W        W40227  12.663   4.162  13.607 -0.1060  0.1216 -0.3244
22704W        W40228   3.066   4.360  14.944  0.2676  0.3093  0.0722
22705W        W40229  18.066   3.365   3.061 -0.1343 -0.1345  0.2830
22706W        W40230  11.533   8.701  13.076 -0.1574 -0.4108 -0.0094
22707W        W40231   6.621  16.252   4.196 -0.4408  0.1671 -0.3364
22708W        W40232  16.064   9.967  14.552 -0.0275  0.2996 -0.0407
22709W        W40233  17.924   9.412   1.601 -0.1916 -0.0892  0.1251
22710W        W40234   2.469  12.788   3.155 -0.2228 -0.1299 -0.3348
22711W        W40235   8.024  15.590   4.098 -0.1809 -0.3147  0.0268
22712W        W40236   3.961   2.168   4.397 -0.3612  0.1175  0.1493
22713W        W40237  11.796   2.024   2.060 -0.0858 -0.1717  0.0762
22714W        W40238   3.335   6.758  15.339  0.1583 -0.1041  0.2823
22715W        W40239   4.520  13.171   1.873  0.4117 -0.1684  0.0460
22716W        W40240  17.905  17.643   1.705 -0.1337 -0.2035 -0.0568
22717W        W40241   3.717  11.496  11.698 -0.1022  0.2111 -0.0127
22718W        W40242  17.348  12.185  11.828 -0.2087  0.0978 -0.1347
22719W        W40243  14.922  15.441  15.113 -0.2613  0.3142  0.1513
22720W        W40244  11.401  11.322  15.732  0.0720 -0.0941 -0.1165
22721W        W40245  15.901   0.954  13.060 -0.1819  0.0128  0.0464
22722W        W40246  16.910  11.323   1.864 -0.3614 -0.0216 -0.0182
22723W        W40247   3.950   7.052   4.493  0.1391  0.0100 -0.1320
22724W        W40248   4.198   6.393  13.235  0.2014  0.0753  0.2008
22725W        W40249   0.850  10.219  14.821 -0.0375  0.2687  0.1858
22726W        W40250   5.893   3.057   4.427  0.0220  0.1023 -0.0468
22727W        W40251  13.958   1.306  12.802 -0.0207 -0.0397 -0.0720
22728W        W40252  12.260   1.574  13.497  0.1056 -0.1352 -0.2181
22729W        W40253  17.892  16.723   3.818 -0.2720 -0.2275  0.0662
22730W        W40254  10.232  13.363   2.502 -0.0892  0.0235 -0.2338
22731W        W40255  11.500  16.601  13.339  0.1622  0.0914 -0.2224
22732W        W40256   3.344  13.584  11.752 -0.0712  0.2672 -0.1192
22733W        W40257   9.457   1.121  12.291  0.3077 -0.0584 -0.0219
22734W        W40258  12.888   2.099  12.600  0.0735 -0.0994  0.1892
22735W        W40259  14.569   4.351  13.077  0.3078  0.0529 -0.1938
22736W        W40260   3.386   3.676   2.534 -0.2850  0.2175 -0.0067
22737W        W40261  17.623   8.773  11.546 -0.2685 -0.0315  0.0616
22738W        W40262   8.229  16.264  13.031  0.0169 -0.1435  0.0425
22739W        W40263   0.151   8.142  14.051 -0.4704 -0.0315  0.0672
22740W        W40264   8.408   7.898   3.297 -0.2566 -0.2071  0.0931
22741W        W40265   1.098  17.648  10.710 -0.0331  0.0067 -0.0717
22742W        W40266   7.825  17.693   2.764 -0.2671 -0.0499 -0.0850
22743W        W40267  12.000   4.274   3.688 -0.3414 -0.1042  0.1929
22744W        W40268   5.232  15.062  12.825 -0.0899  0.0998  0.0900
22745W        W40269   5.662   4.667   0.604 -0.3455 -0.2310 -0.0536
22746W        W40270  15.475  13.408   4.470  0.0147  0.1002  0.0399
22747W        W40271   3.518  12.443  14.666  0.3921 -0.3158  0.0318
22748W        W40272   5.432   2.237  13.407  0.0097 -0.1780  0.0167
22749W        W40273   9.043   7.823  16.026  0.3276  0.0446 -0.0338
22750W        W40274   8.141  10.073   0.765  0.5385  0.0047  0.0614
22751W        W40275  12.066   2.572  13.657 -0.0621 -0.0253  0.1215
22752W        W40276   0.025   9.704  14.770 -0.0324 -0.2165  0.0155
22753W        W40277   8.705   4.867   5.539 -0.0917  0.0731  0.1353
22754W        W40278   7.305   2.741   4.484  0.0847 -0.1142 -0.1812
22755W        W40279  13.451   2.322  12.177  0.2209  0.0981 -0.0552
22756W        W40280   8.796  11.198   4.534 -0.0934 -0.0684  0.1364
22757W        W40281   7.769   3.966  14.752 -0.1100  0.1982 -0.3302
22758W        W40282  13.696  15.424  13.387 -0.0350  0.1489 -0.0319
22759W        W40283  16.257   9.146   4.140  0.1428 -0.0281  0.1674
22760W        W40284   8.411   1.172  11.584 -0.2467 -0.2055 -0.1346
22761W        W40285   1.978  14.903   5.132  0.0633  0.0859  0.1741
22762W        W40286   1.372  14.844  13.982 -0.3313 -0.1089 -0.3521
22763W        W40287   2.967  14.533  11.566  0.1059  0.1649 -0.0968
22764W        W40288  15.493   6.701  11.741  0.1052  0.0379  0.1094
22765W        W40289  12.334  17.499  11.862  0.0140  0.0900  0.1750
22766W        W40290   4.320   0.973   3.400 -0.2578  0.1403 -0.0929
22767W        W40291   8.015  12.701   3.995  0.1389  0.2075 -0.0499
22768W        W40292  14.658   6.035  14.752  0.0929  0.2263  0.2472
22769W        W40293  17.952   6.228   4.963  0.3364 -0.2250 -0.3276
22770W        W40294   5.361   1.631  14.681 -0.0392 -0.0591  0.2410
22771W        W40295   1.854   2.340  10.661  0.2350  0.0855  0.3017
22772W        W40296  10.114  11.677   2.792 -0.3517  0.0613 -0.3219
22773W        W40297   7.650   0.412  11.429 -0.0694 -0.1092  0.0787
22774W        W40298  15.033   3.964  12.618 -0.1578  0.1890  0.1309
22775W        W40299  10.022  17.578  11.250  0.1290  0.1553 -0.1044
22776W        W40300  10.536  14.155  13.708 -0.4418  0.1353 -0.0746
22777W        W40301   2.618   4.669   1.326  0.1353  0.0327  0.3066
22778W        W40302   1.942  10.290  11.175 -0.1938 -0.3036  0.1344
22779W        W40303  14.158  13.163   3.266  0.0668 -0.1888 -0.2574
22780W        W40304   5.805   7.821   3.544  0.3196  0.3631 -0.0396
22781W        W40305  15.105   0.275  15.542 -0.1870  0.0650 -0.2093
22782W        W40306  13.558  11.782   3.443  0.2349 -0.0121 -0.0187
22783W        W40307  12.164  12.501   0.841  0.0234 -0.2440 -0.2217
22784W        W40308  12.566  16.529  12.493  0.0268 -0.0639  0.1353
22785W        W40309   4.076   2.749  11.497 -0.0819  0.1364 -0.0791
22786W        W40310  10.876   5.809   4.480 -0.1047 -0.0626  0.0313
22787W        W40311   1.122   4.500   4.515  0.0146  0.3600  0.0263
22788W        W40312   4.656   6.845  12.027 -0.1751 -0.0387 -0.2721
22789W        W40313   1.765  17.839  11.379  0.0337  0.0854 -0.1571
22790W        W40314  12.822   8.426   0.879 -0.0323 -0.0319  0.3507
22791W        W40315   3.867   6.096   2.254  0.0702 -0.1198  0.1898
22792W        W40316   0.082  13.488  12.166 -0.1287 -0.1789  0.1526
22793W        W40317  14.652   0.748   3.673  0.2704  0.1462 -0.3263
22794W        W40318  17.242  12.134  13.637  0.0386 -0.2426 -0.0807
22795W        W40319   4.721   8.114   0.633 -0.2019  0.3101 -0.0177
22796W        W40320   4.176  17.086  11.065  0.0741 -0.2522  0.1192
22797W        W40321   4.792  16.895  11.715  0.2487  0.0555  0.0363
22798W        W40322   9.135  16.895   4.091 -0.0523 -0.2634  0.3763
22799W        W40323  11.636  11.964   1.951  0.2786  0.1812  0.1093
22800W        W40324   9.937   5.502   3.870 -0.1404 -0.0586 -0.0667
22801W        W40325   0.295   4.558  10.655  0.0242  0.1654  0.0651
22802W        W40326   4.977  14.806   5.691  0.1013  0.3196 -0.2440
22803W        W40327  15.270   0.762   4.246 -0.2625  0.3138  0.2034
22804W        W40328   3.702   3.029  11.606 -0.1994 -0.2350  0.0522
22805W        W40329   4.735   1.555  10.915  0.1675 -0.0137 -0.1129
22806W        W40330   2.753   0.938  14.364  0.0626  0.2807  0.0504
22807W        W40331   5.246   7.202   4.997  0.2117 -0.1252  0.1493
22808W        W40332   3.419  16.673   3.664  0.2309 -0.1660 -0.0087
22809W        W40333  11.029   8.224   4.135 -0.5643 -0.0570  0.0215
22810W        W40334   9.362  15.122   2.856 -0.0940 -0.0120 -0.2891
22811W        W40335  17.105  12.594  11.863  0.1043  0.1820 -0.1024
22812W        W40336   9.832   8.215  14.656  0.1874  0.1303  0.0191
22813W        W40337   3.580  18.135   3.113  0.0992  0.0405  0.0821
22814W        W40338  12.751  11.330   4.494  0.1045  0.0930  0.0145
22815W        W40339   6.675   3.717  11.121  0.1165  0.0606 -0.0675
22816W        W40340   0.079  11.519  10.944  0.1226 -0.0822  0.1907
22817W        W40341   4.236  15.377   2.628 -0.2570  0.0767  0.0447
22818W        W40342  16.805   9.393   4.902  0.1469 -0.2064  0.2007
22819W        W40343   2.959  15.772   1.119 -0.1446  0.1070  0.0507
22820W        W40344  13.171   7.239   0.780 -0.3250  0.0270 -0.2376
22821W        W40345   0.694  16.064  12.976 -0.3177  0.7380 -0.0545
22822W        W40346  15.979   7.099   4.754 -0.0122 -0.2264 -0.1292
22823W        W40347  15.006  10.908  15.113  0.0235  0.1719 -0.3074
22824W        W40348   4.756   3.519  14.495  0.1712  0.0951 -0.1516
22825W        W40349   2.138   9.325   4.989  0.1998  0.0382 -0.0981
22826W        W40350  11.209  15.665  14.839 -0.3372 -0.1529 -0.1397
22827W        W40351   8.450   8.869  13.055  0.1440  0.3205  0.1390
22828W        W40352   4.787  13.669  13.173 -0.2393  0.2968 -0.1391
22829W        W40353  13.390   6.117   2.083  0.2283 -0.0277  0.0943
22830W        W40354   3.960  18.106  11.538 -0.1130 -0.0162  0.0266
22831W        W40355   8.634  17.282   1.337 -0.0979 -0.4426  0.0977
22832W        W40356  11.602   2.746  11.620  0.1896  0.2363 -0.2133
22833W        W40357  11.731   9.277   4.674 -0.3602  0.0913 -0.1197
22834W        W40358  16.572   5.398  12.299  0.0530 -0.1412 -0.1191
22835W        W40359  11.084   8.727   4.451 -0.0561  0.1719  0.3300
22836W        W40360   3.707  12.535  13.927  0.1593  0.1527 -0.0498
22837W        W40361  17.251  17.023   5.568 -0.1623 -0.0370  0.3571
22838W        W40362   3.210  12.288  15.112 -0.3693 -0.0587  0.0545
22839W        W40363  17.183   3.004  11.659  0.0993 -0.0348  0.0258
22840W        W40364   6.881  18.106   1.185  0.0705  0.0777  0.1863
22841W        W40365  18.070   2.572   0.089 -0.1307 -0.1856  0.1163
22842W        W40366  10.579   3.184   3.282 -0.0394 -0.1291 -0.0292
22843W        W40367   9.790  15.680  10.634 -0.1969 -0.1669 -0.1253
22844W        W40368   6.869   0.265  14.594 -0.0744  0.2051  0.0090
22845W        W40369  15.464  17.653   2.110 -0.1217 -0.0335 -0.0442
22846W        W40370   1.667  15.205   3.066  0.1447  0.0077 -0.3473
22847W        W40371  11.678  16.257  12.279 -0.2507  0.1523 -0.2408
22848W        W40372   0.365   2.916   3.003 -0.1591 -0.1602  0.0687
22849W        W40373   2.037  11.417   2.198 -0.3355  0.2280  0.0325
22850W        W40374  11.241   6.846  10.273  0.0246 -0.1599 -0.0765
22851W        W40375   5.795   2.395  14.995 -0.2758  0.3022  0.3805
22852W        W40376   4.907   6.196  13.935  0.0277  0.0699 -0.1262
22853W        W40377  16.902   7.990  14.425 -0.0884  0.0583  0.3458
22854W        W40378   5.078  11.006   3.905 -0.0942 -0.4876 -0.0699
22855W        W40379   7.227   1.807   2.524  0.0339  0.0439 -0.0280
22856W        W40380   1.760  14.593  14.209 -0.2315 -0.3206  0.0679
22857W        W40381   4.168  16.859  15.613  0.0356 -0.1249  0.0399
22858W        W40382   6.962   7.395  11.969 -0.1817  0.0542 -0.0890
22859W        W40383  14.178   4.993  15.940 -0.1835  0.1166 -0.1292
22860W        W40384   9.220  16.112   3.905  0.0601 -0.0067  0.1464
22861W        W40385  10.200   8.365  11.960 -0.4864 -0.1487  0.1733
22862W        W40386   6.042   8.721  11.082  0.1145 -0.3802 -0.0046
22863W        W40387   5.688   3.531   1.350  0.2932 -0.0430 -0.1343
22864W        W40388  11.462  10.456  15.650  0.3093  0.2713 -0.2537
22865W        W40389   7.072   2.269   1.262 -0.0923 -0.0384 -0.1802
22866W        W40390   9.839   4.594   5.591  0.1350  0.5634  0.0102
22867W        W40391  10.319   4.124  14.612 -0.0218 -0.0422  0.1039
22868W        W40392   8.764  10.082   1.782 -0.1772 -0.0652 -0.0361
22869W        W40393   7.631   2.770  14.450 -0.0098  0.3724  0.0422
22870W        W40394  15.370  12.131   3.225 -0.2499  0.3101  0.1876
22871W        W40395   3.654  14.926   4.046 -0.0535 -0.0725  0.1363
22872W        W40396  12.182   8.833   1.824  0.1009 -0.1890 -0.2806
22873W        W40397  17.376  15.196   2.816  0.2029  0.1231  0.1298
22874W        W40398   3.411  13.311  14.228 -0.0216  0.0974 -0.0220
22875W        W40399  17.602   0.526  14.724 -0.1570 -0.0516 -0.0304
22876W        W40400   0.857  16.802   2.900  0.1759  0.0446 -0.2600
22877W        W40401   3.933   8.850  13.535 -0.1010 -0.2875 -0.1704
22878W        W40402   0.280  12.849  13.574  0.1000 -0.1402  0.0145
22879W        W40403   7.914   1.901   0.777 -0.0829  0.2269 -0.1906
22880W        W40404  13.915  12.399  14.720 -0.0847  0.0080 -0.0695
22881W        W40405   3.853   2.498  12.449 -0.1156 -0.2577 -0.1649
22882W        W40406   2.036   1.041  15.984  0.1807 -0.0667 -0.0187
22883W        W40407  14.856   2.921   0.949  0.0799  0.0964 -0.1997
22884W        W40408  11.432   1.595  15.681  0.2121 -0.1489  0.0442
22885W        W40409  10.073   1.208   3.953  0.4260 -0.2247 -0.2358
22886W        W40410  13.412   7.601  11.402 -0.2238  0.3606  0.1464
22887W        W40411  15.290   1.529  11.716 -0.0705  0.1001 -0.1513
22888W        W40412  10.682   4.684  11.274  0.0245 -0.0819 -0.2446
22889W        W40413  13.921  12.329  11.604  0.1908  0.3000  0.0361
22890W        W40414   4.163   7.346   0.565  0.2382 -0.0668  0.0273
22891W        W40415   0.361   4.518   5.660 -0.2698 -0.0342 -0.0956
22892W        W40416   6.278   5.602  11.933  0.1106  0.1313 -0.2420
22893W        W40417  12.215  16.944  15.752  0.0580  0.0204  0.1297
22894W        W40418   8.061  10.684   3.376  0.2161 -0.0963 -0.0268
22895W        W40419   0.913   4.226  15.412  0.1044  0.0799 -0.2009
22896W        W40420  11.580  10.497   2.167  0.0969 -0.1915  0.0399
22897W        W40421   3.730   8.578   3.112 -0.3002  0.2709 -0.1464
22898W        W40422   1.371   4.081   4.366 -0.2078 -0.2417 -0.0059
22899W        W40423  15.684   8.393  13.672 -0.0344  0.0031  0.1047
22900W        W40424   3.056   5.469  14.278  0.0072 -0.0199 -0.0930
22901W        W40425   2.790  15.000  11.490 -0.3959  0.0213  0.0475
22902W        W40426  10.843   3.715   5.187  0.1055  0.2684 -0.2177
22903W        W40427  14.307   4.631   1.940  0.0122 -0.1659 -0.1176
22904W        W40428   3.704  10.336  10.932 -0.1675  0.3254  0.0307
22905W        W40429   7.373   9.014   3.780 -0.3446 -0.0394 -0.1393
22906W        W40430   8.422   0.922   3.026 -0.2305 -0.1688 -0.2311
22907W        W40431   7.164   6.649   1.919 -0.1133  0.2713  0.0847
22908W        W40432  15.671   6.049  14.865  0.3585  0.0664 -0.0446
22909W        W40433  11.933  10.744  14.158  0.0712 -0.2686  0.1935
22910W        W40434  11.757  17.168   1.378 -0.5317  0.1292  0.0760
22911W        W40435   4.761  12.700  13.854 -0.0847 -0.1303 -0.2610
22912W        W40436   6.419  14.903  15.751  0.3212  0.0166  0.2242
22913W        W40437  12.217   3.079   3.713 -0.0803  0.1959 -0.1339
22914W        W40438  14.132   6.504   0.558 -0.1679  0.0431 -0.1071
22915W        W40439  17.894   4.857  11.593 -0.2286  0.2156 -0.0848
22916W        W40440   9.073   3.833   0.504 -0.2652  0.0415  0.1181
22917W        W40441  16.467  11.985   0.115 -0.2428 -0.1821 -0.1519
22918W        W40442  14.117   9.693  11.719  0.0542 -0.0394 -0.0053
22919W        W40443   0.379   0.146   6.087  0.4440 -0.3267 -0.1958
22920W        W40444  14.221   6.538  14.115  0.2233 -0.2095  0.0933
22921W        W40445   5.568  11.757  13.653  0.0228 -0.0778  0.0321
22922W        W40446  12.393   7.733   1.994  0.0927  0.2707 -0.3325
22923W        W40447  15.782   9.848   1.448 -0.3589 -0.1535 -0.4126
22924W        W40448   8.906  10.909  12.187  0.0088  0.2751  0.2676
22925W        W40449  14.100  10.150  12.271 -0.0041  0.2460 -0.3174
22926W        W40450  12.772   1.363   3.588  0.2132 -0.3415 -0.2074
22927W        W40451  16.877  14.685   4.184  0.0455  0.1382  0.2223
22928W        W40452  15.837  14.573   1.446 -0.2573 -0.0039  0.0345
22929W        W40453   8.707   2.626   0.440 -0.0538 -0.0585 -0.1728
22930W        W40454   1.382  11.938  15.200  0.0032 -0.0620  0.0476
22931W        W40455  10.481  17.749  12.521  0.1069  0.1157 -0.2941
22932W        W40456   3.790   1.952  12.599 -0.2043 -0.0845  0.0644
22933W        W40457   4.840   2.372   3.848 -0.1697 -0.3332  0.4502
22934W        W40458   4.604  16.352  15.147 -0.0314  0.1978  0.0961
22935W        W40459   8.629  11.614   0.225  0.0751 -0.0287 -0.3555
22936W        W40460   1.543  12.493   3.681  0.1174 -0.1318  0.0465
22937W        W40461   5.592  17.601   1.676 -0.2296 -0.1641 -0.0938
22938W        W40462  12.296   3.010  13.828  0.3480  0.4496  0.2239
22939W        W40463  14.076   9.375   1.142 -0.1584 -0.1022 -0.1682
22940W        W40464   3.788   9.607  10.152 -0.2705  0.0136 -0.0523
22941W        W40465   0.174  12.105  11.825 -0.1812  0.2837 -0.1351
22942W        W40466   9.350   7.850   2.711  0.2436  0.0512 -0.4953
22943W        W40467   5.562  15.400   1.339  0.0920 -0.0852  0.0630
22944W        W40468   3.765  13.575  13.054 -0.3917  0.0404 -0.0394
22945W        W40469   9.748   0.944  12.727 -0.0596 -0.1060  0.2320
22946W        W40470   9.788   5.138   1.019 -0.0245  0.2126 -0.0926
22947W        W40471   1.456  11.011  10.365  0.2784  0.1779  0.2017
22948W        W40472   4.955  11.572   3.226  0.1372 -0.2790 -0.3052
22949W        W40473  12.556   7.338   4.364 -0.3180  0.0732  0.0336
22950W        W40474  14.960   6.342   4.487 -0.0241 -0.0534 -0.3025
22951W        W40475  13.245   1.826   4.562 -0.2828 -0.0881  0.1774
22952W        W40476  10.314  14.359   3.980  0.0462 -0.0669 -0.1085
22953W        W40477  16.453   3.493   3.921 -0.1442  0.0494  0.0963
22954W        W40478  11.365   2.029  15.945  0.1247 -0.0518  0.3581
22955W        W40479  17.238   7.361   5.056 -0.2652 -0.0667 -0.4944
22956W        W40480   1.302   7.526  13.724 -0.3949  0.0044  0.2415
22957W        W40481  16.290  11.943   5.038 -0.0880 -0.1806  0.0445
22958W        W40482  11.004   6.825  14.410  0.2624 -0.0350 -0.0230
22959W        W40483  16.694  11.506   3.107 -0.2330  0.2050  0.0288
22960W        W40484   4.516   3.591   4.093  0.1540 -0.0394 -0.3177
22961W        W40485  11.700   6.903  15.205  0.0635 -0.3510  0.4279
22962W        W40486   0.632  15.144  14.109  0.0597  0.1810  0.0199
22963W        W40487  15.295   5.367   4.540 -0.1839 -0.2649  0.3058
22964W        W40488  11.348  13.940  15.270 -0.0493 -0.0153  0.2562
22965W        W40489  17.562   3.569  11.050 -0.0233  0.0798  0.0231
22966W        W40490   7.432   0.423   3.467  0.0917 -0.0556  0.2569
22967W        W40491  16.991  13.135  15.495 -0.2264  0.3396 -0.0808
22968W        W40492  17.381   6.509  12.791  0.1502 -0.1855  0.0386
22969W        W40493   9.717   7.218  11.529 -0.2562  0.0557 -0.3594
22970W        W40494   6.436  17.439  15.012  0.0593 -0.0659  0.2113
22971W        W40495   0.124   0.778  11.005 -0.0263 -0.1959 -0.0327
22972W        W40496   0.432   8.905  14.295  0.3363 -0.1014  0.1334
22973W        W40497  16.201   1.784  13.208  0.1704  0.0379 -0.4262
22974W        W40498   7.994   3.290   1.508 -0.3901  0.2897 -0.1183
22975W        W40499  11.978  14.536  14.797  0.4423 -0.2848  0.2108
22976W        W40500   5.987  11.867  13.310 -0.0657 -0.1107  0.0477
22977W        W40501  13.792  17.548  14.741  0.2103  0.0567 -0.0684
22978W        W40502   5.716   1.515   3.453 -0.1940 -0.0166  0.1212
22979W        W40503  14.977   5.219  12.832 -0.1814 -0.1968 -0.1592
22980W        W40504   9.548  15.564   2.647  0.0263  0.0563  0.0153
22981W        W40505   7.365   5.225   2.437 -0.0601 -0.0170  0.1377
22982W        W40506   7.648   0.002   3.610 -0.2206 -0.0534  0.1720
22983W        W40507   8.329   6.908   2.925  0.3574 -0.1346  0.2789
22984W        W40508   8.009   9.623   4.977 -0.1766  0.0460  0.1872
22985W        W40509   7.473   4.251   1.885  0.3361 -0.0609  0.0511
22986W        W40510  17.492   4.511  15.752  0.0939 -0.0202 -0.1725
22987W        W40511  11.405   2.571  12.593 -0.1400  0.0288  0.2345
22988W        W40512   6.213   2.607   2.333 -0.1916  0.0901  0.2030
22989W        W40513  10.071  17.698  14.327  0.1615 -0.3110 -0.0391
22990W        W40514   3.393   1.791  12.882  0.0096  0.1656 -0.2695
22991W        W40515  13.088  16.659  15.909  0.1031 -0.1951 -0.1843
22992W        W40516   6.235  17.580   0.178 -0.1979 -0.0013  0.0625
22993W        W40517  16.282  13.403  11.957  0.3540  0.0311 -0.1988
22994W        W40518  12.730   4.348   2.713  0.0224 -0.1133  0.0560
22995W        W40519  16.539   5.711   3.764  0.1463  0.1684 -0.0529
22996W        W40520  15.430  11.655  12.869 -0.1460  0.0115  0.0248
22997W        W40521  11.957   2.818   1.096  0.2946  0.0518 -0.0707
22998W        W40522   4.015   0.699  12.109  0.0149 -0.0509 -0.0173
22999W        W40523   2.562   2.587  14.098 -0.1390 -0.2903 -0.0946
23000W        W40524   5.300   2.888  12.628  0.3462 -0.1752  0.2283
23001W        W40525  10.009   7.903   0.820  0.1135  0.1573  0.0212
23002W        W40526   9.830   3.483  13.320 -0.0791 -0.0984  0.4046
23003W        W40527  14.918   0.715  14.638  0.3553  0.0912 -0.0545
23004W        W40528   5.132  12.326  13.948 -0.3031  0.0113 -0.1861
23005W        W40529   6.188   8.476  15.213 -0.1843  0.1151  0.1261
23006W        W40530  12.199  13.239   2.236 -0.0831 -0.4042  0.1181
23007W        W40531  16.192   7.327  12.139 -0.1560 -0.0309 -0.3592
23008W        W40532  14.477  16.018  13.750  0.3543 -0.0086 -0.0558
23009W        W40533   8.774  12.472  15.736 -0.2182 -0.1313  0.1702
23010W        W40534   2.735   7.146   2.053 -0.0427  0.0084  0.0897
23011W        W40535  13.533  11.784  15.178  0.1755 -0.2395 -0.3677
23012W        W40536  18.057   1.640  13.387 -0.3674  0.0624  0.1233
23013W        W40537  10.183  10.461  14.566 -0.1183  0.4136  0.1627
23014W        W40538   0.052   8.435  13.633 -0.0944  0.1424 -0.2443
23015W        W40539   1.400   3.945   3.005 -0.0013  0.0643 -0.3964
23016W        W40540   4.314  13.748  14.137 -0.1356  0.1186 -0.0434
23017W        W40541   3.010   6.996  12.372  0.1269 -0.1410 -0.3151
23018W        W40542  16.088  10.003  11.994  0.0664  0.2070  0.0136
23019W        W40543   5.415  16.200  15.813 -0.0883 -0.2070  0.2471
23020W        W40544  15.142  10.292   2.587  0.2033  0.0005 -0.2152
23021W        W40545   9.740  16.212  12.169 -0.0307  0.2386  0.0574
23022W        W40546  10.047  14.613   0.138 -0.0929 -0.0100  0.3772
23023W        W40547  14.177   7.409   3.624 -0.1142 -0.1642  0.1451
23024W        W40548   4.378  11.518  12.334 -0.2545 -0.1312  0.1971
23025W        W40549  15.881  16.539   6.071 -0.1119 -0.1407 -0.0612
23026W        W40550   7.472  10.431   2.654 -0.2906 -0.3371  0.2021
23027W        W40551   4.530   4.174  14.599 -0.1580  0.0571  0.2302
23028W        W40552  12.164   4.891   4.477 -0.2148  0.0151 -0.1908
23029W        W40553  18.002   8.921  14.474 -0.2074  0.0376 -0.0669
23030W        W40554   8.488  17.352  16.016  0.1618  0.0640  0.0223
23031W        W40555  11.511   7.728   1.212  0.2070 -0.2604 -0.0234
23032W        W40556  15.596   9.808  14.391 -0.2667 -0.1958 -0.1033
23033W        W40557   6.180   3.693   1.300  0.1092  0.0094  0.1534
23034W        W40558   9.067   6.435   0.262  0.0918  0.1045  0.1642
23035W        W40559  11.580   8.216  11.847  0.1877 -0.1791 -0.2684
23036W        W40560   1.985  15.383  12.855 -0.0404 -0.2475  0.2065
23037W        W40561   3.540  12.632  13.045  0.4779  0.2104 -0.0860
23038W        W40562   9.667   3.012  13.427  0.0412 -0.0473 -0.1507
23039W        W40563   5.885  17.228   0.139  0.1122 -0.1269 -0.0521
23040W        W40564   1.673  17.423   3.835 -0.3575  0.2220 -0.0967
23041W        W40565  10.655   2.715   1.423 -0.0552  0.0239  0.0584
23042W        W40566   9.116   6.687  15.907 -0.0058 -0.0085  0.0794
23043W        W40567   9.203   3.627  14.948  0.0484  0.0522 -0.1729
23044W        W40568   2.514   1.137  11.938  0.2210 -0.0235  0.2210
23045W        W40569  15.632  13.321  12.039  0.1766 -0.1724  0.1421
23046W        W40570  16.496  16.356  15.042  0.1665  0.0423 -0.2285
23047W        W40571  12.042   5.809  13.398  0.0269 -0.0219 -0.0729
23048W        W40572   0.333   6.151   4.974 -0.0511  0.1219  0.1391
23049W        W40573  14.410  11.108   5.378  0.3987 -0.2468 -0.1034
23050W        W40574  11.629   3.372   4.831 -0.1722 -0.0493 -0.0338
23051W        W40575   1.848  16.404  13.051 -0.3652 -0.2709 -0.2002
23052W        W40576  16.177  11.342   2.537 -0.2397 -0.4692  0.3710
23053W        W40577   1.070  15.733   1.419  0.0065 -0.0944 -0.0499
23054W        W40578  15.943   4.249  12.842 -0.1889  0.0613 -0.2883
23055W        W40579   0.328  16.546  10.609  0.1124  0.1213 -0.1131
23056W        W40580   8.857  16.904  12.956 -0.1891  0.0220 -0.0574
23057W        W40581   1.412   5.305   3.365  0.1255  0.0593  0.1413
23058W        W40582   5.461   6.366  11.795  0.1430 -0.0117 -0.0075
23059W        W40583  10.067   6.379   1.767  0.0920 -0.2930  0.0732
23060W        W40584   2.369  14.478  10.322  0.0459  0.1595  0.0006
23061W        W40585   9.744  10.822  11.656  0.3198  0.1985  0.1933
23062W        W40586  17.484   0.892  11.404  0.1723  0.0123  0.0880
23063W        W40587   8.052   7.518  12.294 -0.0816  0.2156 -0.1903
23064W        W40588   9.812   7.981   1.535  0.1558 -0.0835 -0.1318
23065W        W40589   5.647   6.516  13.171 -0.0549 -0.1340 -0.2762
23066W        W40590   5.926   1.288  11.454 -0.1000  0.3244  0.1314
23067W        W40591  11.681  11.121   4.568 -0.1834  0.3431 -0.4601
23068W        W40592   7.842  13.491   1.678 -0.2238 -0.0825  0.0864
23069W        W40593   0.013   0.401   2.144 -0.1834 -0.2663  0.0496
23070W        W40594   1.626   5.439  15.491  0.2395 -0.1195 -0.0128
23071W        W40595  16.664   8.687   4.055 -0.4245 -0.0423 -0.0334
23072W        W40596  16.562  11.693   3.500  0.0595  0.1243  0.0074
23073W        W40597  15.536   6.696   1.931 -0.0171  0.1824  0.0600
23074W        W40598   3.553   6.662   2.496 -0.0851 -0.0065  0.1418
23075W        W40599   9.323  10.311  10.543  0.1036  0.0040  0.3499
23076W        W40600  14.925   6.598   2.595  0.0892  0.0654  0.0179
23077W        W40601  14.175  15.843   4.558 -0.1933 -0.0001  0.0342
23078W        W40602  11.415  14.486  14.815 -0.1771  0.0797 -0.0096
23079W        W40603  17.155  11.395   2.700 -0.1352  0.0749 -0.1084
23080W        W40604   2.127  11.402  15.638  0.3432  0.2361 -0.2628
23081W        W40605   0.466  16.830   5.249  0.0917 -0.1483  0.2067
23082W        W40606   6.126  15.684  15.329 -0.0604 -0.1303 -0.2240
23083W        W40607   7.399  14.972   5.129  0.0049 -0.1126 -0.0577
23084W        W40608  12.991  18.015  12.135 -0.0027  0.0819 -0.1782
23085W        W40609  14.695   4.081   2.955 -0.1241 -0.3174 -0.0375
23086W        W40610   1.201   1.215  13.371 -0.1834  0.1331 -0.0511
23087W        W40611  12.384  11.370   4.133 -0.0703 -0.1158 -0.2857
23088W        W40612  17.228  16.942  13.972 -0.0097  0.0579 -0.3293
23089W        W40613   7.881   6.608   0.728  0.3062 -0.0332 -0.2261
23090W        W40614   7.399  10.649  13.073 -0.1653 -0.0983  0.0488
23091W        W40615   0.137  12.110   3.502 -0.1730 -0.2426 -0.3134
23092W        W40616  11.390   8.974  11.489  0.1646 -0.0958  0.0301
23093W        W40617   8.994   2.732  12.115  0.3157 -0.1801  0.0438
23094W        W40618   7.308  14.665  14.659 -0.0819 -0.0444  0.2165
23095W        W40619   1.787   2.347  12.109 -0.1521 -0.2899 -0.1938
23096W        W40620  16.355   8.314   4.161  0.0648 -0.0686 -0.1930
23097W        W40621   6.740   4.520   1.400 -0.4444  0.2871  0.1020
23098W        W40622  13.587  12.311  15.175  0.0300  0.0703 -0.0333
23099W        W40623  17.792   1.745  11.749 -0.0366  0.0196  0.3421
23100W        W40624   6.178   3.256  14.351  0.3426  0.1517  0.1812
23101W        W40625  11.758   2.217   2.833 -0.0375 -0.2136 -0.4548
23102W        W40626  11.304   3.433   1.822 -0.1853  0.0347 -0.0123
23103W        W40627  10.556   0.973  15.586 -0.0964  0.3338 -0.1882
23104W        W40628  10.774  10.276  12.009 -0.0350 -0.0018  0.0482
23105W        W40629  12.057   6.497   4.395  0.0094  0.1763  0.1061
23106W        W40630  13.539   1.463   4.409  0.2125  0.0708 -0.1108
23107W        W40631   5.535   8.493  14.137  0.0686  0.1231 -0.0391
23108W        W40632  10.285   3.793   1.881  0.1348 -0.0708 -0.3893
23109W        W40633  10.086   5.295   4.887  0.4425 -0.1913  0.0503
23110W        W40634   8.705   4.074   2.179  0.2116  0.0076  0.1407
23111W        W40635   1.737  13.629  15.614  0.0733  0.0768 -0.3653
23112W        W40636  17.002  16.566  15.814  0.1623 -0.1554 -0.0933
23113W        W40637   5.638   6.732  11.425  0.2611  0.0874 -0.1516
23114W        W40638   5.330  18.031  15.307 -0.0275 -0.1813  0.1827
23115W        W40639   8.992  12.283   4.405  0.2765 -0.0876 -0.1972
23116W        W40640   8.292  12.054   5.648 -0.1173 -0.1255 -0.2201
23117W        W40641   3.425  16.039   2.282 -0.1918  0.1415  0.0885
23118W        W40642   1.848   4.883  12.635  0.0786 -0.1372 -0.0816
23119W        W40643  15.615  15.292   4.251 -0.1018 -0.1230 -0.1562
23120W        W40644  10.293   2.044   0.455 -0.4169 -0.1208  0.1328
23121W        W40645  16.744   5.154   1.177  0.2417  0.0531  0.0169
23122W        W40646  16.627   9.237  14.019  0.2160  0.0927  0.0924
23123W        W40647  16.789  16.854  15.058 -0.1298 -0.0389  0.0405
23124W        W40648   1.711   1.384  14.172 -0.1780  0.1083  0.0418
23125W        W40649   3.542  13.241   4.754  0.2181 -0.3302  0.2228
23126W        W40650   0.518  11.053   4.465  0.3844  0.0401 -0.0100
23127W        W40651   6.627  16.989  14.815  0.1449  0.0852  0.0109
23128W        W40652   5.717   5.679  15.623  0.1094 -0.1394 -0.0390
23129W        W40653  12.485  10.470   0.012  0.1276 -0.0790 -0.2120
23130W        W40654  10.969  16.192  16.043 -0.1650 -0.1358 -0.0525
23131W        W40655   7.674  13.264   0.784  0.1604 -0.0424 -0.1507
23132W        W40656  16.554   5.208  13.723  0.0047  0.0681  0.1802
23133W        W40657  17.363   6.487  13.946  0.0707  0.0328  0.2369
23134W        W40658   4.179   0.673   4.395 -0.1983  0.0907  0.0318
23135W        W40659   8.520   9.947   3.551 -0.0730  0.2328 -0.1082
23136W        W40660   1.485   4.489   2.282  0.1315  0.0309 -0.0990
23137W        W40661   4.832  10.356  13.413 -0.2293  0.0449 -0.1514
23138W        W40662   0.264   0.732  13.865  0.0603  0.0181  0.0533
23139W        W40663  12.715  11.145  14.356  0.1042  0.1715 -0.0116
23140W        W40664  13.334   1.839   0.939  0.3318 -0.2687  0.0955
23141W        W40665  10.574   9.707  15.035 -0.0828  0.1597 -0.2765
23142W        W40666  10.619   0.482  11.458  0.0454  0.0624  0.3200
23143W        W40667   6.993  17.485   3.753 -0.0181  0.0610 -0.2429
23144W        W40668  10.659   0.499   1.363 -0.0982  0.0279 -0.1272
23145W        W40669   2.555  14.116  11.511 -0.1594 -0.1915 -0.1437
23146W        W40670  13.954   2.405   1.874 -0.2744  0.0789 -0.2995
23147W        W40671   7.095  13.146  14.210 -0.1888 -0.1689  0.0387
23148W        W40672   5.003   1.849  11.757  0.1026  0.3164  0.1383
23149W        W40673   4.317  15.627  14.696  0.1043  0.3492 -0.1620
23150W        W40674   5.775   8.072  11.930  0.4515 -0.1356 -0.0378
23151W        W40675  14.698  15.564  13.814  0.1489 -0.0382 -0.1980
23152W        W40676   0.427  13.119  14.409  0.0201 -0.1837  0.4912
23153W        W40677  12.931  10.256  14.286  0.1541 -0.2303 -0.1848
23154W        W40678  11.479  17.591   0.781  0.5145  0.0981  0.3169
23155W        W40679  12.770   4.838   4.621 -0.2846 -0.1306  0.1119
23156W        W40680  10.731   6.797   3.693  0.0948  0.1546  0.0449
23157W        W40681   1.361  14.902  11.803 -0.1285  0.1880  0.1872
23158W        W40682  16.342   0.101  11.142  0.1832 -0.1807 -0.0121
23159W        W40683  10.276   3.893  13.186  0.0696  0.2306  0.0893
23160W        W40684   6.603   6.748   2.252  0.2673 -0.0163  0.2368
23161W        W40685   8.646   1.186   4.243  0.1837  0.0695  0.0417
23162W        W40686  11.871   1.269   0.224 -0.2092  0.3142 -0.0469
23163W        W40687   0.926   4.149  13.955  0.0828 -0.2024 -0.1431
23164W        W40688   3.283  16.678   4.561  0.2359 -0.1340  0.0750
23165W        W40689   3.020  13.956   4.970 -0.1425 -0.1702 -0.2929
23166W        W40690   2.363   1.744  11.662 -0.0063 -0.1464 -0.0702
23167W        W40691  12.977   1.179   2.438  0.3180 -0.0631  0.1050
23168W        W40692   7.938   0.346   4.466  0.0431  0.0070 -0.0545
23169W        W40693  16.625   4.425   3.985  0.1124  0.2561  0.0109
23170W        W40694   4.805   7.292  15.178  0.0954  0.1053  0.0681
23171W        W40695   8.177  17.004  15.749 -0.1941  0.0270  0.2056
23172W        W40696  17.456  14.468  15.040  0.1766 -0.2346 -0.2022
23173W        W40697   3.470   4.098  11.337 -0.0053  0.1960  0.1743
23174W        W40698   6.656  16.758  15.830  0.2726 -0.0597  0.1065
23175W        W40699   8.949   3.930  13.029  0.0503 -0.1284  0.2217
23176W        W40700  13.685  16.312  13.354  0.0563  0.1450 -0.2527
23177W        W40701   6.073   1.802   2.537 -0.0263 -0.2958 -0.1358
23178W        W40702   0.522   2.441   4.724  0.0862 -0.1925 -0.1414
23179W        W40703   5.846  15.944  14.092 -0.2793 -0.1606 -0.1895
23180W        W40704   2.323   4.254   1.059 -0.1337 -0.0400 -0.1487
23181W        W40705   1.077  11.371   2.529 -0.1895 -0.1285  0.3377
23182W        W40706  12.762   8.106  15.489  0.0339  0.0535 -0.1090
23183W        W40707   9.705   9.204  12.180  0.0724  0.0394  0.0520
23184W        W40708  12.833   2.201   2.551  0.1069 -0.0743 -0.0931
23185W        W40709   9.348   1.026   2.384 -0.0446 -0.0551  0.1228
23186W        W40710  14.556  13.481   0.029 -0.2259  0.0925  0.1935
23187W        W40711   7.821  10.585   4.339 -0.2625 -0.3471  0.0768
23188W        W40712  10.787   5.653   3.873 -0.4046  0.3999  0.0841
23189W        W40713   0.339   3.372   1.640  0.4828  0.0008 -0.1600
23190W        W40714  15.344   7.620  13.854  0.0624 -0.1403 -0.1653
23191W        W40715   8.312   9.979   1.667  0.1761 -0.1076  0.1858
23192W        W40716   8.916   8.791  12.271 -0.0906  0.0435  0.0147
23193W        W40717  15.599   1.679   4.219  0.1717  0.0230 -0.3319
23194W        W40718  13.439  11.610  14.597  0.0148 -0.1615 -0.3350
23195W        W40719  14.927  15.073  11.747 -0.2589  0.1683  0.2073
23196W        W40720   0.589  12.661   3.493  0.0362  0.0416 -0.1434
23197W        W40721   8.051  16.774   3.985  0.3409  0.2325 -0.2583
23198W        W40722   4.092   4.440  13.396  0.0791 -0.2337 -0.3636
23199W        W40723   4.896   9.321   1.588  0.1246 -0.1020 -0.0616
23200W        W40724  15.714   3.331  12.899  0.1099 -0.1214 -0.2475
23201W        W40725   6.865  17.527  10.574 -0.0876  0.1921 -0.1203
23202W        W40726   8.568   3.104  12.680  0.2629 -0.3495 -0.1421
23203W        W40727   1.079   4.715   1.096  0.0335 -0.0817  0.1829
23204W        W40728   7.573   9.613  12.272 -0.1053  0.1281  0.3129
23205W        W40729  12.004  11.702  12.699  0.0404  0.3931  0.0958
23206W        W40730   3.109  14.026  11.786  0.0923  0.0684 -0.0801
23207W        W40731   3.910  11.591  12.633 -0.0827 -0.2426  0.1486
23208W        W40732   9.309   8.738  13.009  0.0320 -0.2676  0.0722
23209W        W40733  11.682  14.199  12.078 -0.0502 -0.0053  0.1222
23210W        W40734   0.756   4.720  12.220  0.0720  0.3081 -0.1269
23211W        W40735  18.006  15.471  12.282  0.0245 -0.1153  0.1010
23212W        W40736   8.411  15.233  12.010 -0.2116  0.2997 -0.2099
23213W        W40737  17.835   8.950  10.585  0.1829  0.0012  0.0455
23214W        W40738   4.910  10.860   2.038 -0.2872 -0.1671 -0.2749
23215W        W40739   4.427  17.791  14.626 -0.2763  0.3374 -0.2303
23216W        W40740   9.945   2.834   0.648 -0.2314  0.0240  0.0272
23217W        W40741  17.471  15.431  10.854  0.0019  0.0027 -0.2607
23218W        W40742   3.368  16.973   5.692 -0.3421 -0.4742 -0.2704
23219W        W40743  14.328   5.783   0.022 -0.0261 -0.1265  0.1378
23220W        W40744   7.139  15.290   0.263 -0.2035 -0.1727  0.0700
23221W        W40745  11.048   2.042  13.058 -0.1450 -0.0573 -0.4669
23222W        W40746  11.161  12.938   3.064  0.0045 -0.0139 -0.0919
23223W        W40747  11.796  16.495  14.204  0.0400 -0.0686 -0.0837
23224W        W40748   2.665  17.564  14.515 -0.0421  0.0468 -0.0114
23225W        W40749  13.749  14.819  15.247  0.0510 -0.1945 -0.0162
23226W        W40750   4.511   3.881  12.373 -0.0730  0.0245  0.2005
23227W        W40751   7.950   4.921   4.363  0.0568  0.0175 -0.1610
23228W        W40752  15.173   9.808  12.923  0.0464 -0.0345  0.0096
23229W        W40753  17.430  13.033  11.716 -0.1994  0.1571 -0.0058
23230W        W40754   2.033   7.851   3.126 -0.1380  0.0570  0.0677
23231W        W40755  13.058   4.708  13.329 -0.2999  0.3803  0.3895
23232W        W40756   4.944   3.227   0.962  0.0061  0.1049 -0.1361
23233W        W40757   5.398  10.258   0.011 -0.3149 -0.0912  0.0721
23234W        W40758   6.767   2.952   1.176 -0.0379  0.0751  0.1762
23235W        W40759   4.970  12.736  12.093 -0.0983  0.0142 -0.3014
23236W        W40760   8.231   1.235  13.566 -0.1320 -0.2342  0.4114
23237W        W40761  11.280  12.635   3.592  0.0333  0.0035  0.0460
23238W        W40762   8.155   0.137   3.571 -0.1589  0.0415 -0.2153
23239W        W40763  15.463  16.207  12.656 -0.3085 -0.1484 -0.0844
23240W        W40764  11.275   3.729   4.160  0.0679 -0.0941 -0.2186
23241W        W40765   8.153   2.488  13.748 -0.0821 -0.0601  0.2515
23242W        W40766  17.022  15.491  11.637  0.0799 -0.4391  0.1227
23243W        W40767   0.956   6.059   4.401  0.0378  0.0265  0.0637
23244W        W40768   8.614   7.781   0.413 -0.0780  0.0051 -0.0075
23245W        W40769  10.200   0.023  15.561 -0.0161  0.1998 -0.1233
23246W        W40770   4.172  17.019  13.746  0.0331 -0.0963 -0.0330
23247W        W40771  16.526  17.251  11.000 -0.2195 -0.5151  0.0377
23248W        W40772   2.055  18.137  11.060  0.1710 -0.1039  0.0711
23249W        W40773  13.055   7.548  13.337 -0.1557 -0.4219  0.2017
23250W        W40774   2.522   6.374  14.254 -0.0694  0.2299  0.1248
23251W        W40775   1.506  15.913  12.710  0.0449 -0.1496 -0.0915
23252W        W40776   0.757  17.320   0.695  0.0798 -0.0001  0.1411
23253W        W40777  12.595  17.782   2.247  0.2989 -0.0722  0.2197
23254W        W40778   4.115   8.423   5.238 -0.1709 -0.0166 -0.1085
23255W        W40779  12.455  16.497   2.957  0.4127  0.2442 -0.2768
23256W        W40780  14.115   0.471   2.889 -0.0392  0.1143  0.0833
23257W        W40781  14.619   7.124   1.231 -0.0562 -0.3202  0.2776
23258W        W40782  11.868   3.854  11.739  0.0230 -0.3059 -0.0190
23259W        W40783  12.776   8.161  14.620 -0.2236  0.1582  0.0417
23260W        W40784  17.200   8.787   0.684 -0.0830  0.1239  0.0575
23261W        W40785   9.036   9.809   3.926 -0.0855 -0.0923  0.4916
23262W        W40786   2.819   0.011  15.811  0.0286 -0.1037  0.2112
23263W        W40787   7.806   2.086   1.467  0.1472  0.2511  0.0968
23264W        W40788   3.708  10.177   2.802 -0.1668  0.1823 -0.0267
23265W        W40789   0.495  10.136   5.185 -0.0510 -0.0212 -0.1551
23266W        W40790   0.791   9.356   5.022 -0.3401 -0.0292  0.3455
23267W        W40791   8.103   5.739   3.955 -0.0095 -0.1035  0.0581
23268W        W40792   0.557   2.585  12.234  0.2180 -0.1035  0.0484
23269W        W40793   4.823   8.638   2.262 -0.1987 -0.0803  0.2220
23270W        W40794  10.223   4.931   1.698 -0.1523 -0.0994 -0.1504
23271W        W40795  17.993   1.363   3.885  0.1995  0.0232  0.2806
23272W        W40796   5.137  12.451  13.475 -0.0902 -0.2848  0.2018
23273W        W40797  15.611   5.083  14.929 -0.2124 -0.1710  0.1712
23274W        W40798   6.613  10.429  15.516  0.3057 -0.0334  0.1977
23275W        W40799  18.125   5.071  14.071 -0.1140  0.2520 -0.1453
23276W        W40800  17.718   6.637  11.880  0.0522 -0.2933  0.0411
23277W        W40801   0.097   9.752   4.036 -0.1533  0.2007  0.0204
23278W        W40802   7.524  17.902  13.375 -0.0578 -0.1080 -0.2299
23279W        W40803   2.429   8.111  14.510  0.2603 -0.2271 -0.3259
23280W        W40804  17.951  14.959   5.347  0.0106  0.2605  0.0968
23281W        W40805   8.895   5.164  10.729 -0.1101 -0.0444  0.1030
23282W        W40806   7.814  18.103  13.732 -0.0226  0.0078  0.0920
23283W        W40807   0.931   4.173   4.846  0.1689 -0.1459  0.0423
23284W        W40808   6.651   8.546  15.040  0.1700  0.1115 -0.4050
23285W        W40809   4.911   9.688  11.063  0.0925  0.1655 -0.1994
23286W        W40810   2.865   3.282   1.860  0.0315  0.0237  0.0412
23287W        W40811   7.706   8.771   1.798 -0.1069  0.0277  0.2624
23288W        W40812  17.736   4.265  14.160  0.0865  0.2311 -0.3321
23289W        W40813   3.363   3.072   3.091  0.1063  0.1445  0.0245
23290W        W40814   6.213   8.158   3.589 -0.2090 -0.0768  0.0235
23291W        W40815   4.978   6.082  15.524 -0.0982 -0.1474  0.0203
23292W        W40816   0.643  11.863   1.244 -0.2225  0.0921 -0.1473
23293W        W40817   2.970   4.426   2.558 -0.2058 -0.1083  0.1719
23294W        W40818   5.762   0.802  15.778 -0.4740  0.0749 -0.1211
23295W        W40819   0.895  14.215  15.954  0.2171  0.0428  0.3325
23296W        W40820   6.375   5.616   1.632  0.2369 -0.0613 -0.0733
23297W        W40821   2.044   9.144  14.096 -0.1442 -0.0809  0.2644
23298W        W40822  12.078   5.164  12.455  0.2987  0.1254 -0.1117
23299W        W40823   7.267   1.843  11.611  0.0880  0.0501 -0.1376
23300W        W40824   9.478  12.701   2.253  0.4467 -0.2686  0.2525
23301W        W40825   9.712  16.827   4.283 -0.2497  0.0276  0.1163
23302W        W40826   4.848   5.849   2.520  0.1044 -0.1306 -0.0190
23303W        W40827   3.703   9.124   0.735  0.0556 -0.0652  0.0251
23304W        W40828   7.989  13.908   4.107  0.0020  0.0926 -0.0661
23305W        W40829  13.630  13.292  12.751 -0.2016  0.1097  0.1193
23306W        W40830  13.310  15.559  13.018 -0.1544  0.1264 -0.2427
23307W        W40831   5.944  15.416   9.955 -0.0640 -0.1178 -0.4400
23308W        W40832   5.320   4.028  13.514  0.2261 -0.2745 -0.3016
23309W        W40833   7.078   9.739   3.574  0.0760 -0.0290 -0.1453
23310W        W40834   4.642   1.098   3.765 -0.0212 -0.1421 -0.4717
23311W        W40835  11.977   7.251   4.242 -0.2098  0.3261  0.0118
23312W        W40836  11.937   8.971  13.259  0.0479 -0.0053  0.0904
23313W        W40837   2.658   3.605   3.534  0.0306 -0.0579 -0.1192
23314W        W40838  11.436  11.769  15.483 -0.2074 -0.2721 -0.4842
23315W        W40839   9.892  18.028   1.129  0.2158  0.2630 -0.0258
23316W        W40840  15.531  12.538   3.618 -0.0718  0.2323  0.1362
23317W        W40841   8.492  12.161   0.384 -0.2477  0.0304  0.4870
23318W        W40842  12.437   7.210   1.939 -0.0806 -0.2169  0.0764
23319W        W40843  15.853   0.734  14.479 -0.0036  0.1475  0.0157
23320W        W40844  13.171  13.111   2.946 -0.2182  0.1250  0.1815
23321W        W40845   6.274   2.118   4.558 -0.0870  0.4255 -0.1058
23322W        W40846  13.483  16.702   2.776 -0.1017 -0.1225  0.2190
23323W        W40847  17.644  11.851  13.547  0.3206 -0.0755 -0.2170
23324W        W40848  10.082   9.659   4.834  0.3938  0.0748  0.2362
23325W        W40849   2.536   7.915   4.449  0.2486  0.1073 -0.0407
23326W        W40850  15.810  11.916   1.648 -0.0025  0.1045  0.2722
23327W        W40851  17.369   0.173   1.550 -0.0706  0.5303  0.2312
23328W        W40852   2.566  13.059  13.187 -0.0884  0.0074 -0.1479
23329W        W40853   5.820  16.102   2.986  0.0798 -0.3666 -0.2477
23330W        W40854  11.902  16.329  15.069 -0.2866 -0.2959  0.0703
23331W        W40855  13.215   1.605  13.903  0.1041  0.0607 -0.2113
23332W        W40856  12.233   4.885  15.536  0.0463  0.0642 -0.0031
23333W        W40857   8.540   8.889  15.671  0.3991 -0.1508  0.0366
23334W        W40858   2.967   7.768  14.713 -0.0003  0.2311  0.1164
23335W        W40859  16.439   4.762  13.087  0.0569 -0.3306  0.1520
23336W        W40860   2.066  13.433   3.488  0.0288  0.1760  0.3381
23337W        W40861   4.793   0.594  11.217 -0.2142 -0.1044 -0.1527
23338W        W40862   7.197  15.901  14.753 -0.0908 -0.2535 -0.0698
23339W        W40863   3.329  14.616   1.864  0.0549 -0.0544  0.1158
23340W        W40864  17.673   5.746   1.474  0.2488 -0.0316 -0.1522
23341W        W40865  16.158   6.412   0.758 -0.0645 -0.1605 -0.0345
23342W        W40866  16.262  16.618   5.246  0.1152 -0.0752 -0.2350
23343W        W40867   5.023  13.586  11.635 -0.1260 -0.2662 -0.2512
23344W        W40868  13.811   4.078   3.221  0.3038  0.1578  0.3084
23345W        W40869  14.562   8.757   4.557  0.0874  0.2080  0.1153
23346W        W40870   2.139   2.445  13.923  0.0742 -0.0844  0.3826
23347W        W40871  11.598  14.650  13.987  0.1513 -0.3933 -0.1019
23348W        W40872  10.015  14.556  13.339  0.1583  0.4262 -0.1018
23349W        W40873   4.324   8.016   3.667  0.0153 -0.0586  0.1822
23350W        W40874  17.358  14.338   0.850 -0.0583  0.2623  0.1351
23351W        W40875  12.438  16.753   3.498  0.0434 -0.2077  0.2188
23352W        W40876  14.574   1.987   3.063  0.0341 -0.3380 -0.0168
23353W        W40877   0.244   3.708   0.553 -0.0088 -0.0865 -0.0456
23354W        W40878   2.333  15.345   3.184 -0.0023 -0.1920  0.0429
23355W        W40879   0.346   7.540  12.970  0.0768  0.0902  0.1836
23356W        W40880   7.043  11.855  11.034  0.0194 -0.0372 -0.1649
23357W        W40881   3.760   1.726  14.987 -0.0476  0.3203 -0.0324
23358W        W40882   1.223   7.810  15.782  0.1573 -0.0205  0.0413
23359W        W40883   9.810  15.240   4.281  0.2396  0.0297  0.0188
23360W        W40884   9.847   3.466  14.253 -0.1457  0.1795 -0.1754
23361W        W40885  15.572   9.724   1.930 -0.2263  0.1405 -0.2311
23362W        W40886   2.113  14.837   4.130  0.2082 -0.3195 -0.0879
23363W        W40887   9.842   1.096  14.001 -0.1564  0.3399 -0.2551
23364W        W40888   1.457   0.451  15.549  0.5351  0.1154  0.0029
23365W        W40889  15.680  15.295   3.496 -0.0513  0.0799 -0.0387
23366W        W40890   4.859  13.423   1.670 -0.0285  0.0715 -0.0150
23367W        W40891   5.671  16.135  11.088 -0.1491 -0.0868  0.1107
23368W        W40892  12.970   7.040   1.838 -0.2202  0.1060 -0.0332
23369W        W40893   3.986   7.690   3.188  0.0422  0.0292  0.1027
23370W        W40894  16.080   3.492   3.520  0.1808  0.1060  0.1607
23371W        W40895  14.670  16.779  12.394 -0.2096  0.0678  0.2433
23372W        W40896  12.752  11.029  12.006  0.0836  0.3486  0.1144
23373W        W40897  11.094   2.768  15.374 -0.1564 -0.1025  0.2048
23374W        W40898   2.496  11.424  14.824 -0.0390  0.1017 -0.0214
23375W        W40899   8.359   1.682  11.678 -0.0560 -0.0167 -0.0629
23376W        W40900  11.882   1.311   1.118  0.0508 -0.0591  0.0405
23377W        W40901  13.062   6.422   0.142 -0.1920  0.5008  0.1102
23378W        W40902   8.266   2.188  15.694 -0.1494  0.0282  0.0786
23379W        W40903  16.968  14.725  12.037 -0.0670 -0.0987  0.3515
23380W        W40904   8.613  17.494  15.521  0.1705  0.1071 -0.3877
23381W        W40905  16.167   6.687  12.949  0.0479  0.0476 -0.4938
23382W        W40906  13.742  13.437   2.364  0.2648 -0.0920 -0.0896
23383W        W40907  12.403   5.331   1.247  0.0279  0.2041  0.1060
23384W        W40908  11.416  12.848  13.382  0.0266  0.0851  0.0075
23385W        W40909  10.117   0.754   5.694  0.1467  0.0296 -0.0273
23386W        W40910   2.914  13.056   2.854 -0.1407 -0.0395  0.3293
23387W        W40911   5.266  10.457   5.300 -0.2085  0.0970  0.1074
23388W        W40912   8.199   8.155  11.724 -0.1464  0.1428 -0.1891
23389W        W40913  16.327  16.925   1.416 -0.2373 -0.0405  0.2317
23390W        W40914  15.861  12.486   0.886  0.5812 -0.3265  0.3121
23391W        W40915   1.822  13.491   2.650  0.0970 -0.0911 -0.1643
23392W        W40916   1.890   0.331  15.350  0.2374  0.0844  0.0551
23393W        W40917   9.901   9.973   0.747  0.0503  0.4810 -0.1748
23394W        W40918   1.173  15.352  11.852  0.0844 -0.1456  0.1627
23395W        W40919   3.258   0.648   4.292 -0.0074 -0.0022 -0.1104
23396W        W40920   5.233  12.839   3.311  0.0322  0.1759  0.4231
23397W        W40921  15.149   7.275  14.712  0.0258  0.0965 -0.0342
23398W        W40922   5.762   8.032  12.656  0.0981  0.1346  0.0464
23399W        W40923  10.717   6.246   2.951 -0.1532  0.3594 -0.0299
23400W        W40924   9.650   2.123  15.080  0.1308 -0.2693 -0.0801
23401W        W40925   8.473  12.979   3.845 -0.0168 -0.2358  0.0352
23402W        W40926   1.161  16.210   6.377  0.1083 -0.1801 -0.0007
23403W        W40927  11.707  15.726   4.773 -0.0621 -0.2020 -0.0472
23404W        W40928   3.005   8.135   4.196 -0.0784  0.2777 -0.1085
23405W        W40929  18.005  11.485  13.042  0.0286  0.3804 -0.1017
23406W        W40930  10.917  10.255  12.961  0.0993  0.0852 -0.2765
23407W        W40931   4.184   2.749   1.327  0.1568 -0.0038  0.4776
23408W        W40932   4.792  12.321   1.145  0.0887  0.0715  0.1493
23409W        W40933   1.180   9.966   2.983  0.0360 -0.1053 -0.2067
23410W        W40934  16.370   3.812  15.252  0.0561 -0.0209  0.0249
23411W        W40935   0.596   4.170  10.564 -0.0745  0.0727  0.2115
23412W        W40936  15.386  15.040   5.612 -0.0998  0.1301 -0.0612
23413W        W40937  11.104   2.402   1.258 -0.1346  0.0239 -0.1285
23414W        W40938   9.618   7.879  13.313 -0.2204 -0.4199  0.1071
23415W        W40939  13.933  13.256   0.277 -0.0350 -0.1337 -0.1519
23416W        W40940   2.910  10.688  15.278  0.1481 -0.1854  0.1575
23417W        W40941   1.655  17.312  14.781  0.0490 -0.0157 -0.1158
23418W        W40942  17.249   0.277  13.068 -0.0311  0.0951 -0.0375
23419W        W40943  11.830   7.161   3.735  0.2778 -0.1985  0.0147
23420W        W40944  11.927   8.006  12.666  0.1271  0.2054 -0.2114
23421W        W40945   2.116   1.230  15.096 -0.2485  0.0832 -0.2435
23422W        W40946   0.170   9.351   4.360 -0.1171 -0.3099 -0.0680
23423W        W40947  10.703  14.741   2.461 -0.3663  0.0276 -0.2413
23424W        W40948   5.492   3.606  13.424  0.0259  0.1564 -0.0996
23425W        W40949   5.475   6.033  13.953  0.0662 -0.2107 -0.0476
23426W        W40950  14.376   0.530  14.428 -0.0330  0.0420 -0.0175
23427W        W40951   0.285   9.531  15.596 -0.1262 -0.1210  0.2224
23428W        W40952  12.437  11.741  11.033  0.0719 -0.1183 -0.1410
23429W        W40953  13.164  16.404  14.114  0.4234 -0.0642  0.1754
23430W        W40954  11.236   2.027  15.451  0.4241  0.1663 -0.0743
23431W        W40955   0.643   8.299  11.965  0.1734 -0.1905  0.1806
23432W        W40956  18.110   9.691  13.821 -0.1106  0.2254 -0.0671
23433W        W40957   4.996  16.632   4.108 -0.0625 -0.0957  0.2548
23434W        W40958  17.465  10.827  12.584 -0.1096 -0.0110 -0.2118
23435W        W40959   8.074  12.691   2.290 -0.0474 -0.2076  0.3270
23436W        W40960   1.796  10.490   2.500 -0.1386  0.2136  0.1023
23437W        W40961   6.565   9.040   0.407 -0.0976  0.2842  0.1760
23438W        W40962   6.017  13.040  13.361  0.0664  0.1351  0.2692
23439W        W40963   2.271   3.864  14.993  0.0254  0.0151 -0.1714
23440W        W40964  15.071  13.132   2.031  0.0714 -0.1649  0.1072
23441W        W40965  15.212   3.326  15.281  0.2206  0.1114 -0.2018
23442W        W40966  17.840   5.178  13.698 -0.0117  0.1018  0.1098
23443W        W40967  15.881   9.373  11.416  0.0627  0.0399  0.1302
23444W        W40968  10.807   9.718   2.708 -0.0724 -0.1954 -0.1750
23445W        W40969  16.523  16.572  13.933 -0.1167  0.0746 -0.2758
23446W        W40970   8.139  13.640   4.829  0.0434  0.0249 -0.0351
23447W        W40971   1.060   4.057  13.359  0.0165 -0.0258 -0.0218
23448W        W40972  11.617   1.729  14.629  0.1206 -0.1289 -0.0724
23449W        W40973   4.232   9.039   0.596  0.0755 -0.2659 -0.0745
23450W        W40974   6.473   6.064  12.603 -0.2022 -0.1276 -0.2059
23451W        W40975  11.348  12.769   5.213 -0.0835  0.1804  0.3712
23452W        W40976   2.305   9.795  11.499 -0.1296  0.1452  0.0381
23453W        W40977  17.439   0.634   3.747 -0.1459 -0.2489 -0.0964
23454W        W40978   7.283   0.862  15.131  0.1207 -0.1322 -0.1798
23455W        W40979   7.408  12.667   5.571 -0.2948 -0.0986 -0.2263
23456W        W40980   1.769  16.353  11.466  0.2220 -0.0904  0.3064
23457W        W40981  10.908  13.332  11.271 -0.3388 -0.0899  0.1636
23458W        W40982   4.075  12.374   0.429 -0.2568  0.3639  0.4239
23459W        W40983   2.461  16.652   4.048  0.1524  0.4078  0.2352
23460W        W40984  17.218   4.959  14.898 -0.0596  0.0055  0.2652
23461W        W40985  13.846  12.588   1.307  0.0869 -0.0624 -0.0763
23462W        W40986   9.346   7.522  13.000  0.1817  0.2475 -0.1168
23463W        W40987  14.674  12.902  14.234 -0.1594  0.1276 -0.2432
23464W        W40988  14.777   5.690  14.385 -0.1213  0.1531  0.4036
23465W        W40989  13.899  12.440  12.994 -0.1010 -0.0171 -0.2621
23466W        W40990   0.635   1.554   1.412 -0.0603  0.2401  0.0131
23467W        W40991  16.725   7.234  15.982 -0.1785 -0.0957 -0.4035
23468W        W40992   3.648  10.660  14.880 -0.0052 -0.0124 -0.3155
23469W        W40993  10.587  11.449  15.604  0.0520  0.1021  0.1332
23470W        W40994  10.107   1.085  10.765 -0.1805  0.1812  0.1174
23471W        W40995   4.761   4.008  10.952  0.1410  0.1061  0.2002
23472W        W40996   1.941   7.145  14.750 -0.2350 -0.1032  0.3226
23473W        W40997  10.961   2.486   3.966 -0.0146  0.0421  0.1473
23474W        W40998   0.386  16.823   3.072  0.3342  0.1827 -0.1325
23475W        W40999   7.227   8.870  14.575  0.3549  0.3211  0.0314
23476W        W41000   5.603   6.475   1.043  0.1894  0.0083  0.1733
23477W        W41001  15.827   9.394   0.502 -0.0099 -0.3202 -0.1155
23478W        W41002   9.821  17.929  10.468 -0.1962 -0.0485 -0.2337
23479W        W41003   5.596   3.213  13.045 -0.1768  0.0854 -0.3171
23480W        W41004  12.438  12.861   2.896  0.1854  0.5560 -0.1108
23481W        W41005  16.782   1.055  15.865 -0.0576 -0.0834  0.1045
23482W        W41006  12.424  18.016   2.643  0.1213  0.0632 -0.3616
23483W        W41007  17.554  11.312   4.242 -0.0329  0.1670  0.0504
23484W        W41008   2.960   5.357  14.761 -0.1033 -0.0517  0.0013
23485W        W41009  10.925   3.022   4.245 -0.1182 -0.0682  0.1031
23486W        W41010   5.403  17.753  13.631 -0.0776  0.3248 -0.1890
23487W        W41011  16.805  14.446   4.581  0.0882  0.2762  0.1124
23488W        W41012   7.707  12.642   5.108 -0.1174 -0.0163 -0.0298
23489W        W41013   3.364  11.392   1.613 -0.2337 -0.2436  0.0459
23490W        W41014   9.864  13.023  12.890 -0.2790 -0.2177 -0.0903
23491W        W41015   6.909  10.867  14.875  0.3069  0.1154  0.1567
23492W        W41016   3.289   1.482  13.782  0.0655 -0.0153 -0.2295
23493W        W41017  14.925   3.457  11.724 -0.1431  0.3052 -0.0341
23494W        W41018   9.625   1.283   4.272  0.1299  0.0688  0.0484
23495W        W41019  17.337  14.675   3.536 -0.0612  0.1090 -0.0615
23496W        W41020  16.187   7.012   2.432  0.2192 -0.1231 -0.1677
23497W        W41021   1.454  10.476  13.454  0.0373 -0.2356  0.2796
23498W        W41022  11.061   3.027   2.684  0.1021 -0.1802 -0.2715
23499W        W41023   0.970   1.532  11.911  0.2700 -0.1388 -0.1832
23500W        W41024   1.107   6.013   1.409  0.1789  0.0202 -0.0614
23501W        W41025  12.002  16.293   4.268 -0.1213  0.0766  0.1027
23502W        W41026   3.245   2.237   1.503 -0.1579  0.0829 -0.0733
23503W        W41027   7.198   8.954   5.175  0.1179  0.0032  0.0551
23504W        W41028  13.272   7.731  13.796  0.3573 -0.0142 -0.2642
23505W        W41029   0.378  14.112   1.731  0.0984 -0.1083 -0.1355
23506W        W41030  10.903   5.757  13.477  0.2543  0.2670  0.0084
23507W        W41031   4.817   8.438  13.399  0.1021  0.2023  0.1577
23508W        W41032  13.926  15.520   2.215 -0.1318  0.0628  0.0339
23509W        W41033  12.097  12.379  12.096  0.2369  0.3985  0.0027
23510W        W41034  10.602  10.242   1.386  0.1435 -0.4700  0.3776
23511W        W41035   0.900  16.013   2.328 -0.0078 -0.1034  0.0831
23512W        W41036  11.101   3.712  15.173 -0.0983 -0.1296 -0.0776
23513W        W41037   8.152   2.142  13.280 -0.0372 -0.2444  0.0900
23514W        W41038   4.293   2.083  13.415  0.2755  0.1146  0.3274
23515W        W41039  15.031  13.395   3.444  0.0836  0.0484  0.0304
23516W        W41040  10.910   1.171   0.336  0.1209  0.3870  0.0506
23517W        W41041  15.242   3.083  14.778  0.1836  0.1369  0.2940
23518W        W41042   5.703  17.014   5.155  0.1245 -0.0408 -0.1202
23519W        W41043   4.444   4.984   1.887 -0.1022  0.0508 -0.2642
23520W        W41044  12.540   0.800   0.705  0.0181  0.0528 -0.0411
23521W        W41045   7.767   5.062  15.788 -0.1542 -0.0482  0.0104
23522W        W41046  13.293  16.573   1.904  0.0362 -0.0744  0.0992
23523W        W41047  13.612  11.394   3.114  0.0155 -0.0803  0.0962
23524W        W41048   5.776  15.847  12.071  0.1021  0.1469 -0.2129
23525W        W41049   0.430  14.815   2.067  0.0413 -0.2920  0.1529
23526W        W41050   1.451   4.380   3.192 -0.2008  0.2451  0.0862
23527W        W41051  16.690  16.381  11.847 -0.0524  0.1005 -0.0549
23528W        W41052  14.016  13.406  13.332  0.0054  0.0725  0.0071
23529W        W41053  17.012  15.222  12.198 -0.1628 -0.1054 -0.0903
23530W        W41054  12.811   4.088  14.159 -0.3355 -0.3282 -0.0231
23531W        W41055   3.279  13.353   2.474 -0.0716  0.2224  0.1317
23532W        W41056  15.574   8.022   5.852  0.0540 -0.0054  0.1048
23533W        W41057  15.806  10.706   3.815 -0.2789 -0.2054  0.0899
23534W        W41058   1.386  16.878   1.761 -0.0202 -0.1817  0.0523
23535W        W41059   2.498  14.875   3.224  0.0764 -0.2821 -0.0959
23536W        W41060   4.045  10.422  11.766 -0.1307  0.0412  0.2268
23537W        W41061  10.981  13.888  16.048  0.0901 -0.0049 -0.0766
23538W        W41062   9.060  10.090  15.813  0.1482  0.3215 -0.0225
23539W        W41063   0.946  16.122   4.086  0.1409 -0.1546 -0.0295
23540W        W41064   5.488  11.732   5.226 -0.1632 -0.1331 -0.2275
23541W        W41065  10.783   2.908  14.618  0.2000  0.1783 -0.2210
23542W        W41066   6.517   5.073  11.333  0.2204  0.1177  0.1993
23543W        W41067  13.273  17.279   2.705  0.2268  0.2016 -0.0598
23544W        W41068  10.029   0.582   2.462  0.0525 -0.1801  0.1637
23545W        W41069   4.872   6.843  15.429 -0.1883 -0.0623  0.1191
23546W        W41070  12.072   7.096  11.662  0.2636  0.1439 -0.2589
23547W        W41071   9.590   9.269   0.264 -0.2459 -0.1570  0.3907
23548W        W41072   0.187   4.770   0.734 -0.1678 -0.2084 -0.1241
23549W        W41073   6.978  11.769  15.519  0.2395 -0.1040 -0.2205
23550W        W41074  16.974  12.803   0.099 -0.0498  0.2626  0.0354
23551W        W41075  17.219  10.756   0.080 -0.1590  0.1249  0.0345
23552W        W41076   6.463   5.167  12.920  0.2999 -0.0617  0.3059
23553W        W41077  16.228  15.372  14.846 -0.0890 -0.0188 -0.1735
23554W        W41078  15.666   8.820  15.121 -0.0327  0.0063  0.2105
23555W        W41079   6.262   2.569  12.285  0.0579  0.1388  0.1338
23556W        W41080   4.456  17.825  15.769  0.0212 -0.2514 -0.1115
23557W        W41081  15.382  10.469   3.784  0.2505  0.1221 -0.1295
23558W        W41082   0.012  17.756  12.425 -0.3062  0.1564 -0.1381
23559W        W41083   9.976  16.262  16.043 -0.1120 -0.1917  0.2036
23560W        W41084  12.236  16.375   3.783  0.0680 -0.3467 -0.0097
23561W        W41085   6.247  12.528   4.635  0.2325 -0.0199  0.3054
23562W        W41086   5.873   1.809  13.275  0.1961  0.0820  0.0617
23563W        W41087   8.134   3.519   2.017  0.0575  0.0847  0.0146
23564W        W41088   9.667   7.378  12.655 -0.0979  0.0211 -0.6665
23565W        W41089  14.436  11.024   4.086 -0.2855 -0.1366  0.0931
23566W        W41090   1.856   9.236  11.776 -0.0090 -0.2022 -0.3300
23567W        W41091   4.923   3.127  12.464 -0.0181  0.0153 -0.2432
23568W        W41092   8.378  13.255   4.783  0.0001 -0.0194 -0.1815
23569W        W41093  11.352   4.767  11.881 -0.1111 -0.0701 -0.0274
23570W        W41094   1.763  15.146   3.970  0.1606 -0.0415  0.1865
23571W        W41095  15.508   8.491   5.709  0.0107  0.0380  0.2312
23572W        W41096   8.829  16.649  14.459  0.0259 -0.0470  0.2397
23573W        W41097   7.271   6.236   0.646 -0.0963  0.1522  0.2963
23574W        W41098   4.767   6.330  11.196 -0.0142 -0.1602 -0.0322
23575W        W41099   1.113  13.054  13.173  0.1414 -0.1118 -0.4897
23576W        W41100  16.265   4.500   3.013 -0.0731 -0.0789 -0.1576
23577W        W41101  13.958   0.773  14.223 -0.1021 -0.3252  0.1057
23578W        W41102   0.324   8.272   2.097 -0.2339 -0.1004 -0.1118
23579W        W41103  14.801  18.128   1.068 -0.2079 -0.0080  0.0256
23580W        W41104  10.038  12.517   0.159 -0.1099  0.1452  0.0814
23581W        W41105   8.520   5.767  15.939 -0.2776  0.0236 -0.1317
23582W        W41106  10.065  10.985   4.885 -0.1589 -0.1291  0.2255
23583W        W41107   4.918  12.412  10.505  0.2303  0.1265  0.1996
23584W        W41108  17.381  11.263   3.201 -0.1330 -0.0090  0.2992
23585W        W41109   8.149   4.875   3.573 -0.2490 -0.0029  0.0509
23586W        W41110   3.588   3.770   4.414 -0.1987  0.1077  0.0212
23587W        W41111   6.492   0.571  15.001  0.1934  0.2170 -0.3460
23588W        W41112   0.794   5.694   1.108 -0.1827 -0.0078 -0.0624
23589W        W41113   7.676  16.361  13.076 -0.0351  0.1640 -0.1956
23590W        W41114  18.099   6.509   3.640  0.2274 -0.3888  0.0339
23591W        W41115  10.319   6.032  13.164  0.0510 -0.1158 -0.0025
23592W        W41116  11.229  17.361  12.818 -0.1804 -0.1249 -0.0378
23593W        W41117  14.404  10.660   3.706  0.3293  0.3685 -0.1752
23594W        W41118   4.818   9.121   2.415  0.1709  0.2069 -0.0176
23595W        W41119   4.444  16.960   5.050 -0.0279 -0.0484  0.1634
23596W        W41120   0.890   8.860  11.149  0.1469  0.3516 -0.2347
23597W        W41121   0.073  17.473  15.092 -0.1042  0.2208 -0.0668
23598W        W41122   6.611  16.512   1.136 -0.0354 -0.0872  0.1074
23599W        W41123   8.424   4.254  10.642 -0.1959 -0.0157  0.1335
23600W        W41124  15.624   0.392   1.541  0.0399 -0.0933 -0.0298
23601W        W41125  11.860   6.987  12.759 -0.0991 -0.0703 -0.2570
23602W        W41126   2.653   3.667   1.388  0.3459 -0.1083 -0.3117
23603W        W41127  12.898  12.883   2.095  0.0934  0.1091 -0.2997
23604W        W41128   8.098  15.022  14.322  0.0655 -0.1018  0.1368
23605W        W41129   6.943  16.069  11.400 -0.2652 -0.1829  0.1218
23606W        W41130   8.833   1.084  12.741 -0.2510  0.0451  0.0985
23607W        W41131  17.104  10.406   0.424 -0.3907 -0.2508  0.3124
23608W        W41132   9.498   3.792   1.600  0.1438  0.0857  0.0197
23609W        W41133  15.513   2.611   4.574 -0.5049 -0.0638 -0.2774
23610W        W41134   8.639  11.659   3.307 -0.1409  0.0136 -0.2939
23611W        W41135   8.835   3.492  13.305  0.3567 -0.0758  0.0607
23612W        W41136   0.374  10.954   6.046  0.0190 -0.1205  0.0286
23613W        W41137   4.226   5.121  14.560  0.4572 -0.1080  0.0918
23614W        W41138   1.904  16.809  14.830  0.1095 -0.1471 -0.2748
23615W        W41139   2.054  14.848   3.676  0.0151 -0.0318 -0.3713
23616W        W41140   3.079   7.533  15.622  0.1902  0.0307  0.3616
23617W        W41141   7.537  17.513   3.601 -0.1855 -0.0146  0.0212
23618W        W41142  13.448   5.885  11.390 -0.1356 -0.3087  0.4283
23619W        W41143   9.269   2.325  15.744  0.0299  0.0289 -0.0526
23620W        W41144  10.496  11.058   4.715 -0.0905  0.2267 -0.0304
23621W        W41145  13.290   3.075   0.866  0.2868 -0.0563  0.0424
23622W        W41146   2.713   3.552   0.491  0.3154  0.0752  0.1626
23623W        W41147  16.159   6.873  14.016  0.0108 -0.2723 -0.1342
23624W        W41148  17.328  14.459  13.676  0.0789  0.2382 -0.1951
23625W        W41149  15.837   7.153   2.811 -0.1860 -0.0397 -0.2425
23626W        W41150  17.959  10.997  13.578  0.4265  0.0906 -0.2209
23627W        W41151   0.629  10.377   5.598  0.0496 -0.0318 -0.3164
23628W        W41152  13.964   6.796  12.064  0.1973 -0.1145 -0.1697
23629W        W41153   1.367   6.501   0.615 -0.0565  0.2518 -0.4054
23630W        W41154  14.297  13.667   3.898  0.2695 -0.1694  0.2525
23631W        W41155   8.943  17.498  12.773 -0.1681  0.1233 -0.1575
23632W        W41156   8.280  14.640   2.673  0.0833  0.3571 -0.0607
23633W        W41157   7.396  10.463   0.139  0.1834 -0.2238 -0.0324
23634W        W41158  12.872  12.485  14.735  0.0576 -0.2211  0.3434
23635W        W41159  13.781   5.458   1.123 -0.0681 -0.2747 -0.1613
23636W        W41160   0.189   1.803   2.000  0.0908 -0.0533 -0.0452
23637W        W41161  14.038   6.951  11.538  0.2551 -0.0648 -0.2193
23638W        W41162  12.411  17.490   2.866 -0.1288  0.1559 -0.1339
23639W        W41163   8.206  14.295  13.637  0.2175 -0.1169 -0.1622
23640W        W41164   9.020   2.999   3.051 -0.0990  0.0307 -0.2788
23641W        W41165  15.335   7.202   3.185 -0.3735 -0.0135 -0.1143
23642W        W41166  13.750  14.474   4.883 -0.4381  0.0410 -0.0016
23643W        W41167  13.782  16.630   0.534  0.1664  0.0287 -0.0342
23644W        W41168  11.191   3.362   4.558 -0.0705  0.0605 -0.2103
23645W        W41169   7.205   7.886   2.657 -0.0672  0.0525  0.1083
23646W        W41170  13.667  12.620  13.826 -0.1764 -0.1763 -0.1105
23647W        W41171  17.104  14.133  15.109 -0.2362  0.2155 -0.0268
23648W        W41172   7.878  12.005   4.603  0.1123  0.1318 -0.0131
23649W        W41173  17.223   1.502   2.376  0.1498  0.0513  0.0640
23650W        W41174  16.614  12.414   2.702 -0.0391 -0.0901  0.1346
23651W        W41175   6.670  11.609  16.019 -0.1615  0.0336  0.0861
23652W        W41176   6.424  15.019  11.384 -0.1446  0.1097 -0.1439
23653W        W41177  15.655   4.005   3.253 -0.0327  0.2979 -0.0171
23654W        W41178  10.620  15.256  11.799  0.0948  0.1869 -0.3825
23655W        W41179  15.521   3.331  15.738 -0.1608  0.3505  0.0273
23656W        W41180   1.424   9.460  14.239  0.3157  0.0463 -0.0139
23657W        W41181  11.967  16.324   6.044  0.3451 -0.1473 -0.2472
23658W        W41182   1.314   6.877  15.895 -0.1332  0.2283 -0.0357
23659W        W41183  17.140  12.705   2.711  0.1922 -0.1798  0.4220
23660W        W41184   0.254   5.372  13.460  0.4349  0.1483  0.3143
23661W        W41185   8.062   8.108   3.835 -0.0708 -0.2294 -0.1701
23662W        W41186   4.172   0.799  11.250 -0.0756 -0.0569 -0.1213
23663W        W41187  17.315   1.281  15.186  0.0415  0.1649  0.2480
23664W        W41188  17.069  16.908  13.176  0.1939  0.1721 -0.0499
23665W        W41189   6.884   7.560   2.343  0.0213 -0.3132 -0.0723
23666W        W41190   8.286   9.318  11.729  0.1326  0.1807  0.1605
23667W        W41191   8.209  17.080  15.214 -0.0623 -0.1013  0.3503
23668W        W41192   6.185  13.521   0.678 -0.0288 -0.1830 -0.0026
23669W        W41193  13.404   7.261   5.239 -0.1096  0.0083  0.1246
23670W        W41194   4.386  12.053   0.211 -0.1660 -0.0575  0.2164
23671W        W41195   5.340  10.534  14.171  0.0004 -0.1397 -0.0360
23672W        W41196  11.118  15.585   3.438  0.4108  0.0264 -0.1160
23673W        W41197   9.345  15.870   0.554 -0.0764  0.0039  0.1187
23674W        W41198  10.013   2.427  14.436  0.0117  0.0883 -0.0536
23675W        W41199  16.470  16.576   1.809  0.2451  0.2502  0.0132
23676W        W41200   8.674  14.529   1.883 -0.0697 -0.0697 -0.2102
23677W        W41201  10.420   5.860  12.698  0.2966 -0.1983  0.0111
23678W        W41202  11.190   3.905   1.574  0.1793 -0.2090  0.0368
23679W        W41203  14.306   2.273  14.765  0.0491 -0.0763  0.0713
23680W        W41204   9.957  12.388  11.021 -0.0646 -0.1927 -0.0571
23681W        W41205   8.386  12.643  11.983 -0.1071  0.1904 -0.0014
23682W        W41206   9.013  15.987  13.337  0.0618 -0.1513 -0.2469
23683W        W41207   1.497   6.738  11.446  0.2139 -0.3979 -0.2809
23684W        W41208   9.767  14.126   2.348  0.1042 -0.1873  0.1857
23685W        W41209  17.922   1.696   0.412  0.0544 -0.0501 -0.0435
23686W        W41210   5.173   7.587  15.459 -0.2754 -0.1706 -0.2722
23687W        W41211   4.533  15.362   2.001  0.3043 -0.2773  0.0481
23688W        W41212   8.130   7.288  13.734  0.0690 -0.2432  0.0742
23689W        W41213  14.238  17.739  14.548 -0.0913 -0.0307  0.5015
23690W        W41214  11.721  13.385  13.691 -0.0896 -0.0307 -0.1862
23691W        W41215  11.690  11.758   4.629 -0.2122 -0.0543 -0.2371
23692W        W41216   1.678  16.796  11.186 -0.1828 -0.0621  0.0399
23693W        W41217  10.958   6.400   0.376 -0.2347  0.3098 -0.1220
23694W        W41218   8.459  12.018  13.302 -0.3685 -0.0371  0.2230
23695W        W41219  11.417   9.708   4.387  0.2585  0.0327  0.0221
23696W        W41220  12.138   3.824  11.179 -0.0292 -0.0147 -0.1153
23697W        W41221   9.729   9.060   2.344  0.2490  0.0161 -0.1396
23698W        W41222   9.816   4.459  15.817  0.1129  0.0626  0.0128
23699W        W41223  17.410   1.320  12.941 -0.0326 -0.0496 -0.2893
23700W        W41224   1.466  10.856   2.796  0.3329 -0.0172 -0.2860
23701W        W41225   1.596   0.836   3.287  0.1554 -0.1760 -0.0867
23702W        W41226  10.270  12.242   0.682  0.4630 -0.0360 -0.2959
23703W        W41227  15.745  15.359  12.804 -0.1997 -0.1349 -0.1050
23704W        W41228   0.909  16.220   1.565  0.4894 -0.3991 -0.1656
23705W        W41229   5.821  10.827  14.644  0.5239  0.2759  0.0820
23706W        W41230   6.722   0.277  13.619 -0.3389 -0.1530 -0.0699
23707W        W41231   0.979  10.058   5.433 -0.3700 -0.0702 -0.2576
23708W        W41232   0.569  16.522   0.342  0.0260  0.1950 -0.1025
23709W        W41233   0.721   2.349  15.592  0.4897 -0.0795 -0.0060
23710W        W41234  12.630   0.216   1.431  0.0912  0.4488 -0.1501
23711W        W41235   1.805  15.071  14.226  0.2708 -0.1078 -0.2716
23712W        W41236   7.754   6.952  15.928  0.0068  0.1034  0.0769
23713W        W41237   9.549   6.088  15.219 -0.0016  0.0524 -0.1970
23714W        W41238   5.687  14.548  15.026  0.2325 -0.2737  0.2086
23715W        W41239  13.237   8.001   3.384 -0.0956  0.1152 -0.0429
23716W        W41240   9.357  16.410   0.380 -0.0632  0.1237  0.2211
23717W        W41241  11.963  10.480  15.867  0.4161 -0.0855  0.3136
23718W        W41242   7.605  13.814   3.797 -0.0336 -0.3533  0.3283
23719W        W41243   6.475   6.644   4.647 -0.1432 -0.1355 -0.1055
23720W        W41244  15.489  11.526  11.826 -0.1342 -0.0252  0.0046
23721W        W41245  11.983   9.560  12.041  0.2521 -0.1346  0.2972
23722W        W41246   5.423   7.526  14.951  0.0509  0.0232  0.0892
23723W        W41247   3.867   2.197   0.716  0.1649 -0.0279 -0.1527
23724W        W41248   4.044   5.785  14.543 -0.1393  0.1137 -0.3001
23725W        W41249  11.195   0.323   0.317  0.0074 -0.0759 -0.2326
23726W        W41250   5.175  16.695   1.122  0.0006  0.2324 -0.2156
23727W        W41251   3.302  12.929   1.661  0.1572 -0.3168  0.3357
23728W        W41252  15.345  10.085   0.663 -0.0066 -0.3154  0.1130
23729W        W41253  14.198   3.272  11.881 -0.3439  0.1050  0.0893
23730W        W41254  17.492  10.641  10.955  0.1776  0.0431 -0.1594
23731W        W41255  11.817  12.870   0.822  0.2859 -0.0631 -0.3556
23732W        W41256   4.508   3.357  12.589 -0.0103  0.1163 -0.0194
23733W        W41257   1.943   8.839   4.690 -0.2071  0.2043 -0.2261
23734W        W41258   5.622  12.155  11.533  0.2692 -0.0717  0.1278
23735W        W41259   3.305  12.548  11.688  0.4792  0.3719  0.1233
23736W        W41260  17.227  14.499   2.335  0.0010  0.1031 -0.2256
23737W        W41261   8.609   7.940  11.503 -0.0537  0.0487  0.3193
23738W        W41262   3.526  14.621  12.520  0.1208  0.0734  0.0802
23739W        W41263   0.655   8.050  15.863  0.0255 -0.1637 -0.1118
23740W        W41264   3.113   0.106   4.313  0.1304  0.0303  0.1917
23741W        W41265   0.605  15.317   3.808 -0.1786 -0.1259  0.0259
23742W        W41266   9.908   9.197  13.865 -0.0372  0.0127 -0.1366
23743W        W41267   1.557   7.276  15.658  0.2478 -0.2180 -0.0242
23744W        W41268   0.853   4.097   1.543 -0.2052 -0.0475 -0.4136
23745W        W41269  15.249  13.490  14.424  0.0605  0.1456  0.0767
23746W        W41270  12.706  17.861   1.312 -0.1220 -0.1517 -0.4126
23747W        W41271  13.434   9.765  14.026  0.2098  0.2986  0.0826
23748W        W41272  14.731   4.873   0.140 -0.1034  0.0439 -0.1128
23749W        W41273   4.711  17.587   2.109  0.2473  0.1350 -0.1052
23750W        W41274  14.174   3.424   4.474 -0.0162  0.0588  0.0984
23751W        W41275   7.835   9.181   3.880 -0.1032  0.0391  0.0611
23752W        W41276   2.582  10.370  15.464 -0.1254 -0.1900 -0.1707
23753W        W41277  10.235  17.705  13.796 -0.0267  0.2482  0.0310
23754W        W41278  11.822   9.558   0.096  0.0507  0.0461  0.0943
23755W        W41279  14.921   4.824  15.339  0.4347 -0.0797 -0.0344
23756W        W41280   8.638   4.910   3.789 -0.0633  0.1501  0.1177
23757W        W41281  17.745   9.601   5.060  0.1472 -0.0930 -0.2998
23758W        W41282   1.594  13.891  11.729  0.1398  0.4205 -0.5686
23759W        W41283   0.230  11.859  14.459  0.1321 -0.3890 -0.0670
23760W        W41284  12.448   7.436   5.186 -0.0367 -0.0879 -0.2448
23761W        W41285  12.355  10.711   1.899  0.1437 -0.0717 -0.0074
23762W        W41286   6.824   9.596  14.735 -0.0969 -0.0861 -0.0246
23763W        W41287   4.621  11.402   1.486  0.2069 -0.0932  0.0344
23764W        W41288  13.863  14.103  15.373 -0.0922  0.1294 -0.0234
23765W        W41289  13.331   5.187   1.241  0.0125  0.0504 -0.1149
23766W        W41290   1.227   8.860   2.960  0.1013 -0.1354 -0.2426
23767W        W41291   1.440  14.001  15.829 -0.2397  0.3342  0.2040
23768W        W41292  17.453   3.981   3.244 -0.0185 -0.1062  0.1830
23769W        W41293   8.062   1.522  14.299  0.0603  0.1730  0.0196
23770W        W41294   4.450  11.177   4.902  0.0694 -0.0549  0.0824
23771W        W41295   1.609   8.977  13.981 -0.0913 -0.1661  0.2060
23772W        W41296  14.372   5.390   3.716  0.0401 -0.1612 -0.1600
23773W        W41297  12.247   9.655   0.415  0.1325  0.2964 -0.0011
23774W        W41298  13.219  14.162   4.641 -0.1675  0.0522 -0.0654
23775W        W41299  15.617   1.167  10.991 -0.1367  0.0170  0.2230
23776W        W41300  16.740   6.587  13.210 -0.1237  0.1565  0.3428
23777W        W41301  14.636  10.096   0.005  0.2212  0.0406 -0.1398
23778W        W41302  16.502  12.189  12.356  0.0131 -0.0062 -0.0892
23779W        W41303   0.379   7.590   0.812  0.3778  0.0922  0.0286
23780W        W41304   9.740   0.414  12.606 -0.1608  0.2022 -0.0728
23781W        W41305   6.666   9.468  14.022 -0.0548  0.0598  0.1636
23782W        W41306   9.516  17.955   3.060 -0.0093  0.0110 -0.0641
23783W        W41307   5.679  10.178  13.907  0.3910  0.2603 -0.0011
23784W        W41308  10.088   1.904  12.894  0.1025  0.0296  0.1095
23785W        W41309   7.827   4.347   4.478  0.4276 -0.0133 -0.2007
23786W        W41310   8.611   1.286   0.631 -0.0422 -0.2264 -0.1476
23787W        W41311  10.141   1.758   4.809 -0.2223  0.3273  0.2312
23788W        W41312  15.077   1.525   4.922 -0.0790  0.0983 -0.2283
23789W        W41313   1.291   4.015  11.651 -0.3072 -0.0813 -0.1453
23790W        W41314   0.349  11.819  15.291  0.1652 -0.1486  0.0831
23791W        W41315   3.843   7.159  15.120  0.2571  0.2380 -0.0779
23792W        W41316  14.245  10.388  14.274 -0.2092 -0.1024  0.0135
23793W        W41317   6.379   7.650   1.416  0.1027  0.1172  0.0456
23794W        W41318  11.108  17.417   5.091 -0.0966 -0.1654 -0.2810
23795W        W41319  13.629   8.775  11.938  0.1349 -0.4788 -0.1460
23796W        W41320   9.229   5.037   1.504  0.0722  0.1335 -0.0544
23797W        W41321  12.937   4.080   3.120  0.1137 -0.2325 -0.1788
23798W        W41322   3.196   1.949   5.163  0.1138  0.0727  0.0357
23799W        W41323  17.292   8.620   3.161  0.1300 -0.3478 -0.0677
23800W        W41324   6.525  14.538   3.758  0.2929 -0.0035  0.1596
23801W        W41325  13.163  14.305  13.195  0.1332 -0.0007  0.0004
23802W        W41326   1.521   9.793  12.485  0.0937  0.0396  0.0865
23803W        W41327   4.687   7.230  11.149  0.5936 -0.1619  0.1205
23804W        W41328   8.052   7.259   3.187  0.0223  0.2758  0.0869
23805W        W41329   9.858   4.340  11.239 -0.0706 -0.1139 -0.3432
23806W        W41330   6.693  15.654  11.828 -0.0749  0.0856  0.0002
23807W        W41331   7.481  15.001   0.770 -0.0168  0.1943  0.1999
23808W        W41332   9.849   9.739   3.194  0.1350  0.1367  0.1370
23809W        W41333   9.353  11.454  15.611 -0.0658  0.0053 -0.3567
23810W        W41334   9.432   3.991  10.218 -0.0563 -0.1171  0.0708
23811W        W41335  17.863  16.269  11.482  0.2621  0.0706 -0.1497
23812W        W41336  11.572   3.967   4.482  0.0121 -0.0598 -0.0233
23813W        W41337   8.308  13.063  11.577  0.2549 -0.1042  0.0893
23814W        W41338   1.454   5.071   0.743  0.0797  0.0732 -0.0472
23815W        W41339  17.421  12.823   0.978 -0.3736  0.0005  0.1767
23816W        W41340  15.550   7.591  15.775  0.1157 -0.0078  0.0898
23817W        W41341   9.549   8.610  14.467  0.0487  0.0274  0.2297
23818W        W41342   8.857  13.109   2.758 -0.2334  0.0268  0.0237
23819W        W41343   2.301   5.127   3.215 -0.0595  0.1078  0.0493
23820W        W41344  11.382  17.813  13.638 -0.1035 -0.0873 -0.0951
23821W        W41345   3.538   1.335  11.911 -0.1876 -0.0376 -0.1509
23822W        W41346  11.946  12.929   1.291  0.1686 -0.0167  0.1256
23823W        W41347   0.904  11.325   1.522  0.0947 -0.1867 -0.0486
23824W        W41348   7.110   2.948   0.311 -0.0827 -0.3576  0.0634
23825W        W41349   5.315  13.389   3.415  0.1232  0.1666  0.2962
23826W        W41350   3.383   9.862  13.548  0.1098 -0.0300  0.0181
23827W        W41351   8.536  11.889  14.626  0.0180 -0.0413  0.1062
23828W        W41352  13.929   3.227   2.528 -0.0528 -0.1851 -0.0181
23829W        W41353  13.599   6.701  14.640  0.1118  0.2612  0.2192
23830W        W41354   0.116   9.522   2.447 -0.0759  0.0389  0.3416
23831W        W41355  12.179   2.119   3.211 -0.1927  0.0230 -0.4187
23832W        W41356  14.521  13.444   3.518  0.0233  0.0444  0.1477
23833W        W41357  17.381   6.766  10.790 -0.0741 -0.0450 -0.3458
23834W        W41358   7.520   6.530  11.605 -0.2048 -0.1825  0.0148
23835W        W41359   1.504  15.307  14.528  0.1504 -0.2446  0.2242
23836W        W41360  12.238  11.706  13.161  0.1839  0.1567  0.2219
23837W        W41361  17.001  14.501   3.137  0.1016  0.2834 -0.1862
23838W        W41362   1.932   5.857   4.677  0.0670 -0.2453 -0.2860
23839W        W41363  14.411   1.179  12.701 -0.2198  0.3459 -0.0275
23840W        W41364   8.009  14.915   0.044  0.1155  0.4582 -0.0874
23841W        W41365   2.181  17.681  14.345 -0.2418  0.0526 -0.0016
23842W        W41366   1.024   8.342  13.247  0.0216 -0.0674  0.0522
23843W        W41367   2.165   9.514   1.922  0.1864  0.2386 -0.0765
23844W        W41368   2.348   2.516  10.993  0.1352  0.1640  0.0387
23845W        W41369   3.256   8.739  11.659 -0.0371 -0.2589  0.1023
23846W        W41370   9.483  15.162   1.358 -0.3908  0.1472  0.1065
23847W        W41371   9.820   8.008  15.135 -0.2759 -0.3534 -0.0257
23848W        W41372   6.178   1.275  13.621  0.0995 -0.0114  0.0411
23849W        W41373  11.294   5.497   4.397 -0.1860 -0.4331  0.1799
23850W        W41374   4.984  10.675  15.909 -0.2330 -0.2532  0.0238
23851W        W41375   7.349   3.773  13.566 -0.0222 -0.0780 -0.2920
23852W        W41376  12.599   6.449   0.312 -0.3573 -0.0304  0.0999
23853W        W41377   5.856  18.037   1.795  0.0969  0.3736 -0.1752
23854W        W41378  14.399   4.222  15.813 -0.1753  0.1695  0.5705
23855W        W41379   7.629   4.178   0.328  0.0550  0.1415 -0.0058
23856W        W41380  10.478   3.282   3.815  0.0735 -0.1189 -0.1296
23857W        W41381  17.667   4.107   5.380 -0.0282 -0.1329 -0.3041
23858W        W41382  16.796  14.072   3.486  0.0007  0.0067  0.0905
23859W        W41383  14.689   9.103   1.525  0.1211  0.1413 -0.0108
23860W        W41384   4.391   1.497  12.176  0.3273 -0.0630  0.0161
23861W        W41385   1.192   6.643   3.155  0.0111 -0.2875  0.0595
23862W        W41386  17.659  10.488   2.603  0.0694 -0.2285 -0.3199
23863W        W41387   9.057   1.498  13.408 -0.1846 -0.1448  0.2925
23864W        W41388  16.614  14.191   3.068  0.2116 -0.0455  0.0235
23865W        W41389   6.051   4.723  15.828  0.3349  0.0138  0.1632
23866W        W41390  17.607   6.124  10.135  0.1847 -0.0480  0.0100
23867W        W41391  13.703   7.568   1.090 -0.2051 -0.0751  0.0074
23868W        W41392   7.273   9.411   1.974 -0.3365 -0.3953 -0.2490
23869W        W41393   4.679  10.449   0.230 -0.0498  0.5707  0.6427
23870W        W41394   4.086  12.348  15.974 -0.1368  0.2741 -0.0284
23871W        W41395   4.298  10.814   2.368 -0.1922 -0.1303 -0.1039
23872W        W41396   3.217   6.761  11.523 -0.0075 -0.3792  0.1123
23873W        W41397  12.948  11.103  15.250 -0.0484 -0.0215  0.0816
23874W        W41398   4.385  10.190  13.501 -0.0990  0.0545 -0.1405
23875W        W41399   5.330  13.533   1.834  0.3607  0.0418 -0.0668
23876W        W41400   7.316   6.315  12.803  0.0975  0.0239  0.3388
23877W        W41401   5.410  12.274   5.229  0.0024 -0.1988  0.1117
23878W        W41402  13.848  11.326   0.874 -0.2359  0.3159 -0.0754
23879W        W41403   0.563   9.096   3.991 -0.0860  0.0272  0.1463
23880W        W41404   6.945   2.806   4.041 -0.0659  0.1712 -0.2053
23881W        W41405   6.219   1.749   1.012  0.1832 -0.0994 -0.0478
23882W        W41406  15.792  13.030   3.548  0.4216 -0.0829 -0.0671
23883W        W41407  14.126  13.421  12.141  0.1832  0.2394 -0.2835
23884W        W41408   5.187  12.911  15.660  0.0778  0.1067  0.0248
23885W        W41409   4.202   6.867  11.761 -0.0666 -0.0764 -0.2473
23886W        W41410  14.540   1.440   0.933 -0.0350  0.2385 -0.0312
23887W        W41411   0.948   7.860  14.602 -0.0904  0.0096  0.0003
23888W        W41412  16.488   5.291  11.304  0.2981  0.1418  0.1108
23889W        W41413  16.081   2.972   3.352  0.2841  0.1117  0.4626
23890W        W41414  10.480   3.255   4.374  0.4391 -0.2109  0.0923
23891W        W41415  16.437   6.807   0.484  0.1610 -0.0918 -0.1666
23892W        W41416   3.178  12.049   0.836 -0.0578 -0.4340 -0.0745
23893W        W41417   3.193  11.005  10.520 -0.0048 -0.1230 -0.1789
23894W        W41418  12.939  11.928   0.399 -0.1225 -0.1525  0.3099
23895W        W41419   1.827  11.663   0.684 -0.1210 -0.3287 -0.0389
23896W        W41420  15.138  17.246  11.787 -0.1828 -0.0082  0.1675
23897W        W41421   3.502  10.853  14.420  0.1780  0.1157  0.2026
23898W        W41422  15.841   0.857  15.955  0.0254  0.2995 -0.2240
23899W        W41423  16.950   4.918  11.783  0.0247  0.2043 -0.0866
23900W        W41424   0.356   9.298  13.079 -0.1388  0.0066  0.1136
23901W        W41425   2.821   3.985   1.057 -0.2127  0.2113  0.0256
23902W        W41426   8.084  18.119   2.164 -0.1281  0.0378  0.5055
23903W        W41427  16.480   8.242  11.802 -0.4203 -0.0268  0.0585
23904W        W41428  13.173  16.453  12.284 -0.1069 -0.2646 -0.0551
23905W        W41429   6.229  15.133   3.313  0.2895 -0.2432 -0.0141
23906W        W41430   9.569  17.350  15.930 -0.2083  0.2801  0.1346
23907W        W41431   8.166   7.223  15.405 -0.2179 -0.1907  0.2588
23908W        W41432   5.917  11.236   3.075  0.0054  0.3479  0.2845
23909W        W41433   8.199   8.101   0.275 -0.1235 -0.1486  0.0395
23910W        W41434   5.522   0.888  10.774  0.0823  0.0645 -0.4016
23911W        W41435   8.033  17.671  14.552  0.1213 -0.0426  0.0717
23912W        W41436  11.768   9.434  10.811  0.0921  0.0702 -0.0453
23913W        W41437  17.844  16.246   0.367 -0.1482  0.0443 -0.3079
23914W        W41438  12.760   2.834  14.625 -0.1785 -0.1923 -0.0626
23915W        W41439  13.095   3.631  12.996 -0.1213  0.1375 -0.1175
23916W        W41440   4.019  16.185  14.789 -0.4326 -0.0044 -0.2312
23917W        W41441  14.236   3.298  13.831  0.2225 -0.2532  0.1540
23918W        W41442  15.303   4.130   4.148  0.4691 -0.2121 -0.0902
23919W        W41443   5.587   3.067   0.686  0.0595 -0.4090 -0.2073
23920W        W41444   4.876   2.077   1.195 -0.1602  0.1474 -0.0651
23921W        W41445   6.399   1.985  14.003  0.1367  0.1774 -0.2308
23922W        W41446  17.803  14.657  14.433 -0.3953  0.0700  0.1427
23923W        W41447   1.455   8.552  13.802  0.0573 -0.0016 -0.2601
23924W        W41448   5.334   9.706  14.857  0.3812 -0.0948  0.1933
23925W        W41449  13.599  15.266   2.554  0.3205  0.0472 -0.1345
23926W        W41450   7.930   7.432  10.999  0.3944  0.2338  0.2436
23927W        W41451  16.666   1.411  11.578 -0.3387  0.2558 -0.1047
23928W        W41452   2.179   7.936   4.830 -0.2997 -0.0108 -0.1974
23929W        W41453   4.807  16.209  11.446  0.0920 -0.0769 -0.0543
23930W        W41454   6.829   3.301  15.178 -0.3255  0.1548  0.1489
23931W        W41455   8.826  13.886  11.057 -0.1045  0.1490  0.2201
23932W        W41456  16.429  16.537   3.450  0.0962  0.1149  0.0366
23933W        W41457  16.745  11.343   4.431 -0.0810 -0.1754 -0.1084
23934W        W41458   6.853  16.797   3.145  0.2242 -0.0565 -0.1681
23935W        W41459   3.232  13.512  13.750  0.2813 -0.0562  0.0801
23936W        W41460   9.727  17.102   1.215 -0.1992  0.0306  0.0932
23937W        W41461  11.262  10.171  12.153  0.2139 -0.0058 -0.2254
23938W        W41462  17.206  11.831   5.766  0.0559  0.2886  0.0735
23939W        W41463   3.392   4.238   4.385 -0.3507 -0.2436  0.2623
23940W        W41464  12.037  17.078   4.706  0.0658 -0.0180 -0.2028
23941W        W41465  13.299   8.914  13.083 -0.2197 -0.1813  0.1332
23942W        W41466  13.917  15.255   0.338 -0.0574 -0.0486  0.0673
23943W        W41467  14.567   9.222   1.028 -0.0366 -0.0076 -0.4938
23944W        W41468   4.926   7.700   0.796  0.0678  0.0807 -0.1787
23945W        W41469  14.066   4.603   2.379 -0.2965  0.0691  0.1781
23946W        W41470   4.437   4.851  12.559  0.1131  0.0238  0.2819
23947W        W41471   0.810   8.547  11.543  0.2723  0.0288  0.4398
23948W        W41472   8.414  17.336   3.649  0.3269 -0.1405  0.1802
23949W        W41473   3.584  10.602  15.359  0.2016 -0.0624 -0.1695
23950W        W41474   0.220  14.426  14.821 -0.0004  0.0471 -0.2815
23951W        W41475  16.235   9.878   5.375 -0.0271  0.1044  0.1822
23952W        W41476   7.249   7.518   0.982 -0.0964  0.0621  0.0326
23953W        W41477   1.153  16.235  12.833 -0.0921 -0.0293 -0.0948
23954W        W41478   0.489  11.763   0.255  0.0105  0.1407  0.1022
23955W        W41479   2.234   2.993  15.480  0.0105 -0.0465  0.0941
23956W        W41480   0.346  17.866   3.183 -0.4292  0.0715  0.0871
23957W        W41481  11.392   3.250  13.346  0.0462 -0.1659 -0.1628
23958W        W41482   4.460  11.282   0.799 -0.2969 -0.2163  0.3023
23959W        W41483  14.527  10.811   2.299  0.4803  0.1587 -0.0633
23960W        W41484   2.471   6.933  15.620 -0.0277  0.0566  0.0798
23961W        W41485   3.731   2.899   3.992 -0.1990  0.0258  0.0152
23962W        W41486   8.814   2.112   0.569  0.1978 -0.0662 -0.1969
23963W        W41487   8.685  14.779  10.789 -0.0328 -0.1280  0.0557
23964W        W41488   0.564   5.180   2.255 -0.0073  0.0259 -0.1182
23965W        W41489  11.937   7.400   1.860 -0.1622 -0.2226 -0.0621
23966W        W41490  17.395   0.206   3.535  0.2546  0.2344  0.0077
23967W        W41491   4.734   6.668   3.859  0.0868  0.1712  0.0276
23968W        W41492  12.182  17.881   5.790  0.3621  0.0357 -0.1399
23969W        W41493  17.749   2.175  14.738 -0.0742 -0.1102 -0.1845
23970W        W41494   1.856   0.543   4.151 -0.0365 -0.2991  0.0541
23971W        W41495   8.624   9.870  13.929 -0.0352  0.0907 -0.0257
23972W        W41496   3.407   6.264   0.029 -0.0752  0.0944 -0.0558
23973W        W41497   6.011  17.432  15.254  0.1442  0.4168  0.0508
23974W        W41498   8.474   1.068  12.386  0.0270  0.0674  0.2111
23975W        W41499  14.582  17.156   4.750  0.3260  0.0230  0.0346
23976W        W41500   2.129  17.438   2.303  0.3262  0.1257 -0.0537
23977W        W41501  17.898   9.938  12.514  0.1425 -0.1870 -0.1743
23978W        W41502   8.859   5.524   0.185 -0.2355  0.0696 -0.1204
23979W        W41503  17.436   5.592  12.296 -0.0419  0.0946 -0.3471
23980W        W41504  11.868  10.953   5.065 -0.1066 -0.1525  0.4124
23981W        W41505  13.953   1.786  11.553 -0.1345  0.2217  0.0275
23982W        W41506   8.998   6.999   0.325  0.0878  0.0440 -0.2053
23983W        W41507   8.257   0.083  15.787  0.2406 -0.0920  0.1407
23984W        W41508  10.037  13.446   3.983 -0.0523 -0.1364 -0.3012
23985W        W41509  14.183   3.600  15.281  0.1389 -0.3717  0.3850
23986W        W41510  15.329  14.652  13.011 -0.0944 -0.2793  0.0599
23987W        W41511   6.531   8.708   0.825  0.0504  0.2776  0.3686
23988W        W41512   3.551   9.804  14.590  0.1159  0.0108 -0.1838
23989W        W41513  12.873   1.074   0.517 -0.0957 -0.0110 -0.3181
23990W        W41514  10.845   0.181  13.756 -0.3117 -0.1462  0.0796
23991W        W41515   2.476   9.423  15.658 -0.2144  0.0661  0.2927
23992W        W41516   9.082   4.407  11.324 -0.2393 -0.0975 -0.0690
23993W        W41517  11.025   4.454   3.678 -0.1019 -0.1765 -0.0071
23994W        W41518   5.783   0.744  12.438  0.1821  0.2701  0.0350
23995W        W41519   7.492  14.160  11.072 -0.1478 -0.1448  0.2090
23996W        W41520   6.191  16.897  12.255  0.0089 -0.0957  0.0430
23997W        W41521  11.818  16.407  13.697 -0.0933  0.0374 -0.2024
23998W        W41522  12.459  13.400  13.086 -0.0640  0.2074  0.1093
23999W        W41523   5.601  16.913  13.073 -0.2005 -0.0697 -0.1216
24000W        W41524   6.223   6.131  15.761 -0.1881  0.0831 -0.2598
24001W        W41525  10.938  15.990   0.781  0.1517 -0.1507  0.0976
24002W        W41526   8.960   4.311  12.704 -0.0951 -0.1523 -0.1563
24003W        W41527   2.272   1.234   0.300 -0.2438 -0.1990 -0.1920
24004W        W41528  17.633   8.794   4.155  0.0012 -0.0909  0.1190
24005W        W41529   4.086  15.868   0.845 -0.1095  0.1104 -0.0613
24006W        W41530  12.322   7.502   1.558 -0.0313  0.2633 -0.3881
24007W        W41531  14.250   8.742  14.068 -0.0974  0.1244 -0.0070
24008W        W41532   0.951   4.874   3.514  0.1969 -0.0762 -0.1436
24009W        W41533  15.473  14.331   3.240 -0.1288  0.1941 -0.0339
24010W        W41534  10.980   2.387  15.058  0.1315  0.0238  0.0059
24011W        W41535   1.169   7.581   2.549  0.0584  0.1517  0.1228
24012W        W41536  12.643   2.671   3.811 -0.0482 -0.0914  0.1775
24013W        W41537   6.717  17.964   0.184  0.1542  0.2127 -0.1219
24014W        W41538   1.978  17.723  10.323  0.1367  0.1550  0.1196
24015W        W41539  13.141  16.675   0.914  0.0329 -0.2238  0.0876
24016W        W41540  16.613  12.728  11.475 -0.0835 -0.0068  0.3480
24017W        W41541   6.323   3.226   0.951  0.0408 -0.0091  0.1663
24018W        W41542   3.945   6.245  16.011  0.2145 -0.3657  0.1735
24019W        W41543  14.335   8.710  15.720  0.0817  0.1893 -0.1379
24020W        W41544  10.466   8.020  13.524 -0.2005 -0.0820 -0.2488
24021W        W41545   9.930  15.635  15.978  0.1884 -0.1682  0.1666
24022W        W41546   7.711   0.719  14.965 -0.2550 -0.1031  0.0541
24023W        W41547   9.424   0.031  12.244 -0.2241 -0.1775 -0.3355
24024W        W41548  13.198   0.330  15.186  0.0484 -0.1716 -0.1053
24025W        W41549  12.952   1.675  14.833 -0.2424 -0.0185 -0.0595
24026W        W41550  11.095   9.791   3.323 -0.2130 -0.1226  0.1707
24027W        W41551   0.690  14.054   3.101 -0.1160  0.3505 -0.1391
24028W        W41552  10.328  11.851   1.873  0.0862  0.0758 -0.0568
24029W        W41553  14.202   4.309  11.848  0.0600 -0.1833 -0.1715
24030W        W41554   3.304   2.448   2.264  0.4240  0.1017 -0.0125
24031W        W41555  16.719  11.790  12.781 -0.3094 -0.0653  0.2101
24032W        W41556   5.977   9.311  14.178  0.1280  0.0830  0.0430
24033W        W41557  16.435  16.284   1.324  0.0185  0.2314  0.0375
24034W        W41558  17.464   9.062   3.291 -0.0894  0.0002 -0.0447
24035W        W41559   3.054  13.055   4.867  0.2104  0.0892  0.2638
24036W        W41560  15.841  11.568   4.042  0.1722  0.0318 -0.0374
24037W        W41561  16.138   1.397   3.487  0.0162  0.0840  0.0016
24038W        W41562  10.937  17.243  15.976  0.1909  0.1904 -0.1945
24039W        W41563  15.701  11.600   0.799 -0.0506 -0.0656  0.0663
24040W        W41564  17.185  15.671   1.885  0.1490  0.0492 -0.1223
24041W        W41565   7.687  10.945   3.608 -0.0088 -0.2181  0.1986
24042W        W41566   3.659  17.316   1.396  0.0220  0.0694  0.0062
24043W        W41567  13.603  17.834   2.150 -0.0894  0.1795 -0.0875
24044W        W41568   8.185   6.778  15.595 -0.2072  0.3584 -0.1910
24045W        W41569  15.444   7.493   2.790 -0.3629 -0.2193 -0.1654
24046W        W41570   7.960  12.810  11.846  0.1079 -0.1894 -0.0148
24047W        W41571   6.282   0.171   1.266  0.0663  0.2052 -0.0430
24048W        W41572   5.958   0.057  12.464 -0.1749  0.2097  0.0395
24049W        W41573  10.281   3.109  11.952 -0.2161 -0.2414  0.3680
24050W        W41574  11.684  10.650  15.224  0.1034  0.0302 -0.2109
24051W        W41575   0.399   9.149   4.796  0.1935  0.1856  0.1830
24052W        W41576  17.071  10.061   2.100 -0.0888 -0.2370 -0.4685
24053W        W41577   4.325   1.411  15.530 -0.1190  0.5049 -0.3482
24054W        W41578  14.950  12.907  12.176  0.0612  0.0722  0.2034
24055W        W41579   8.984  15.723  11.178 -0.0222  0.0595  0.1516
24056W        W41580   8.747  17.174  11.817  0.3742  0.1742  0.0489
24057W        W41581  16.245   3.680  12.160 -0.2489 -0.1334 -0.2692
24058W        W41582  15.026  13.467  15.779 -0.3849  0.2450  0.0831
24059W        W41583  11.221   7.018   4.035  0.1949 -0.1105  0.0729
24060W        W41584   5.184   5.078  11.541  0.0349  0.3042  0.0251
24061W        W41585   0.655   6.146   1.410 -0.1106 -0.0727  0.1927
24062W        W41586   3.831  17.156   3.928 -0.0646  0.0443 -0.1739
24063W        W41587   9.151   0.082  15.780  0.0279 -0.0128  0.0153
24064W        W41588  17.739   8.070  15.638  0.0791 -0.1115  0.0779
24065W        W41589   7.397   4.769  15.783  0.0537  0.3016  0.0151
24066W        W41590   8.168   8.516   1.624 -0.3633 -0.1254  0.1036
24067W        W41591   9.585  17.860  14.426 -0.2385  0.0431 -0.1147
24068W        W41592   7.768  14.106   5.128 -0.0964 -0.2452 -0.1225
24069W        W41593  15.226  12.134   3.747 -0.3325  0.0878 -0.0310
24070W        W41594  17.860   5.188   3.790  0.0667  0.2792 -0.2845
24071W        W41595   2.850  17.253  16.056 -0.0549 -0.1815 -0.3807
24072W        W41596   9.070  11.188  10.349  0.1199 -0.1150 -0.1622
24073W        W41597   1.539   6.542  12.825 -0.1652 -0.0817  0.2259
24074W        W41598  11.510   0.742   3.687 -0.0593  0.1426  0.2153
24075W        W41599   6.732  10.935   1.257  0.0629 -0.0104 -0.5099
24076W        W41600  11.264   5.590  13.805  0.0706  0.0720 -0.3216
24077W        W41601   7.063  10.932   3.511 -0.0912  0.0125 -0.0643
24078W        W41602   3.289  12.582  13.510 -0.2007  0.1803 -0.1235
24079W        W41603   1.440  13.396   1.305  0.0671 -0.0235 -0.1382
24080W        W41604   9.834   5.630   1.071  0.0679 -0.3108 -0.3009
24081W        W41605  16.755   6.355  15.087 -0.1930 -0.0968  0.1552
24082W        W41606  10.677   4.417   5.839  0.2345 -0.3520 -0.1758
24083W        W41607   8.826   3.605  15.976 -0.1241 -0.1516 -0.1657
24084W        W41608   5.316   6.085   2.150 -0.2370  0.0714  0.0862
24085W        W41609  13.470  15.567   4.002 -0.1438  0.2164 -0.0101
24086W        W41610  14.100   3.484   1.071  0.0364  0.0544 -0.1508
24087W        W41611   5.454   1.912  11.889 -0.1560 -0.1114  0.2263
24088W        W41612  11.225  10.321   0.086 -0.0069 -0.1721 -0.0072
24089W        W41613   6.415   1.853   3.007  0.1491  0.2701 -0.0944
24090W        W41614   8.174  17.932   0.630 -0.1011  0.0141  0.0192
24091W        W41615   0.259  14.704  15.322  0.4094 -0.2690 -0.1128
24092W        W41616   0.088   8.451  12.531 -0.1977  0.0264  0.1781
24093W        W41617   9.358   2.432   2.887  0.2409  0.0256 -0.1696
24094W        W41618  17.933   8.606   2.403 -0.0247 -0.2178  0.3288
24095W        W41619  14.787  11.716  15.646  0.0411  0.3822 -0.2033
24096W        W41620   9.407  13.805   0.204  0.2294  0.0191 -0.0680
24097W        W41621  11.405  14.513   6.117  0.0980  0.4319 -0.1784
24098W        W41622   8.472  14.014  13.230  0.0662  0.1029 -0.0999
24099W        W41623   0.427  13.519  13.209 -0.1391  0.4749 -0.1477
24100W        W41624   3.440  13.159  15.259 -0.1087 -0.0995  0.0530
24101W        W41625   7.077   5.750  13.433 -0.0556 -0.0883 -0.0824
24102W        W41626   9.535  14.029  14.457  0.0472 -0.0820  0.2549
24103W        W41627   7.128  13.534   3.703  0.0325 -0.1176 -0.0822
24104W        W41628   2.878  15.975   2.139 -0.1756 -0.3037  0.3474
24105W        W41629  12.439   1.710   3.405  0.0880  0.1785 -0.0510
24106W        W41630  15.740   9.906  11.631  0.2153 -0.0673  0.1705
24107W        W41631  17.026   8.874   1.959 -0.0476  0.0010 -0.1327
24108W        W41632   1.017   6.659  13.177  0.0234  0.0229 -0.0458
24109W        W41633  10.898   8.629   1.529  0.1913 -0.0011  0.0519
24110W        W41634  17.998  15.341   4.501 -0.0835  0.2312  0.1624
24111W        W41635  12.689  13.598  13.472 -0.0027 -0.1959 -0.0427
24112W        W41636  14.510   8.305  15.424 -0.0899 -0.2133  0.1081
24113W        W41637   1.084  15.324  13.366 -0.0909  0.2596  0.0922
24114W        W41638  15.418  15.502  15.013 -0.1078 -0.0196  0.1515
24115W        W41639   3.562   5.879   0.353 -0.2511 -0.0914  0.2691
24116W        W41640   0.067   7.639   5.148 -0.0623 -0.2809  0.0221
24117W        W41641  12.638   1.654   1.915  0.2513 -0.1624 -0.1395
24118W        W41642  12.027   6.029  12.519  0.0943  0.2085  0.0611
24119W        W41643   6.766   8.731   4.476  0.2435 -0.0106  0.0900
24120W        W41644   1.911  15.176   1.487 -0.0457 -0.1066  0.0141
24121W        W41645  12.054  12.895  11.928 -0.2576 -0.1176 -0.2747
24122W        W41646  14.939  11.289   5.541 -0.3308 -0.1730 -0.2219
24123W        W41647   8.970   5.538  13.546 -0.0465 -0.1700 -0.3039
24124W        W41648  15.976  17.584   4.629 -0.0489  0.1187  0.2858
24125W        W41649  13.516  15.371  11.944 -0.1195 -0.0272  0.4985
24126W        W41650  17.789   6.744   2.063 -0.2216 -0.0330 -0.0552
24127W        W41651   2.869  15.275   3.731 -0.0644  0.0737 -0.1415
24128W        W41652   4.502   1.720   2.624  0.3115 -0.1370  0.1274
24129W        W41653   0.051   9.994   5.014  0.2514  0.4767  0.0180
24130W        W41654   5.364   4.509  12.332  0.0148 -0.0705 -0.2412
24131W        W41655   5.731  12.923   2.165  0.0316  0.3012  0.1173
24132W        W41656  13.799  12.136   4.312  0.2574  0.2090 -0.0130
24133W        W41657  11.172  11.890   3.586 -0.0719  0.0847  0.0074
24134W        W41658  13.951   3.964   1.360 -0.1639  0.0060 -0.0142
24135W        W41659  17.097   2.606   0.436 -0.2261 -0.1051 -0.2930
24136W        W41660   1.794  13.004   4.982  0.3176 -0.1940  0.0785
24137W        W41661   2.625  12.870  14.687 -0.1852  0.0094  0.0301
24138W        W41662   6.392   4.324  13.231 -0.0051  0.1312 -0.2861
24139W        W41663   3.830   9.956  11.235  0.1082 -0.0690 -0.0555
24140W        W41664  15.743  13.866  13.247  0.4580  0.0168  0.0416
24141W        W41665   9.346   2.363   2.394  0.0300  0.0195  0.0715
24142W        W41666   8.944  12.003  13.097 -0.1403  0.1495  0.3561
24143W        W41667   3.291   5.039  11.046 -0.0002 -0.0935  0.2084
24144W        W41668   2.543   8.528  15.241  0.0045 -0.2110 -0.0022
24145W        W41669   2.853  12.541  12.475 -0.1509  0.0342 -0.2761
24146W        W41670  12.067  13.215  12.330 -0.0157 -0.3234 -0.0385
24147W        W41671   6.507   4.364  12.252 -0.1946 -0.0641 -0.3358
24148W        W41672   9.738  17.784   4.706 -0.1960 -0.2495  0.1798
24149W        W41673   7.179  13.299  14.859  0.0271 -0.1446 -0.0262
24150W        W41674   4.173  14.559   5.033 -0.0225  0.0663 -0.0050
24151W        W41675   2.598   7.293   4.158  0.1358  0.0036  0.2052
24152W        W41676  13.655  17.471   0.766 -0.1969 -0.1092  0.2169
24153W        W41677   0.473  10.182   2.791  0.2270 -0.3402  0.1419
24154W        W41678   7.043  18.097  11.867  0.0597  0.1023 -0.0089
24155W        W41679   7.343   2.714   9.976  0.1053 -0.0802 -0.2780
24156W        W41680   0.796   3.234  12.816  0.1382  0.2131  0.3041
24157W        W41681   6.470   6.234  13.063 -0.0810  0.2420  0.3111
24158W        W41682   3.990  10.286  13.170  0.0550  0.0007  0.0812
24159W        W41683  16.100   5.505  12.228 -0.3813  0.1156  0.1588
24160W        W41684   8.500  13.250   2.464 -0.3474 -0.1493 -0.1820
24161W        W41685  11.087   9.500   0.966  0.2521 -0.0409  0.0343
24162W        W41686  16.869   6.746   0.086 -0.1268  0.0502  0.1065
24163W        W41687   1.877   8.956   1.207  0.2287  0.0575 -0.2760
24164W        W41688  11.609   3.979  12.531 -0.0462 -0.0522 -0.0471
24165W        W41689   9.562   7.273   1.138 -0.1626 -0.4548 -0.6578
24166W        W41690   5.868   7.369   3.310 -0.0980  0.2361 -0.3221
24167W        W41691  12.129   5.205   4.887  0.0711  0.0598 -0.1881
24168W        W41692  17.372  17.710   0.153 -0.0109 -0.1058  0.0055
24169W        W41693   0.302   2.703  14.316  0.1187 -0.0841  0.0188
24170W        W41694   2.649   4.237  11.721 -0.0117  0.0849  0.0626
24171W        W41695   5.642   2.107   1.254 -0.1021  0.3602  0.0373
24172W        W41696  12.164   7.365   5.957  0.1729 -0.0276  0.4769
24173W        W41697  13.528   1.349  12.016  0.0194 -0.0047 -0.0524
24174W        W41698  15.365  12.549  14.879  0.5001 -0.0487 -0.1318
24175W        W41699   0.855   1.381   0.776  0.0627 -0.0854 -0.0217
24176W        W41700   1.513  10.074   2.606 -0.1016 -0.4837 -0.2457
24177W        W41701   6.675  11.863   1.012 -0.3083 -0.0552  0.1428
24178W        W41702  10.823   6.244  11.888 -0.1925 -0.4253 -0.0463
24179W        W41703   0.267  12.277  14.159  0.0051  0.0624 -0.0760
24180W        W41704   6.500  12.813  14.746 -0.3570  0.0405  0.0891
24181W        W41705  15.511   8.453   2.426  0.0129  0.3458  0.1476
24182W        W41706   7.449   8.636  10.168 -0.0960  0.0352 -0.1715
24183W        W41707  10.907   9.222   0.364  0.1867 -0.2145  0.0832
24184W        W41708  12.783   6.506  12.029  0.1002  0.1281 -0.0627
24185W        W41709   1.758   4.588   6.035 -0.2864 -0.0634 -0.0431
24186W        W41710  15.893   7.520   0.627  0.2078 -0.1503 -0.1791
24187W        W41711   5.953  12.133   2.698  0.2412  0.0531 -0.2413
24188W        W41712   4.089   9.624  10.932 -0.0100 -0.1157  0.0690
24189W        W41713  11.616   4.997  14.773  0.0892 -0.1790  0.3838
24190W        W41714  11.184  16.106   1.737  0.0795  0.2732 -0.0645
24191W        W41715  16.490   5.592  15.314 -0.2254 -0.0461  0.0833
24192W        W41716  16.416  10.139  14.162 -0.3302  0.0918 -0.1191
24193W        W41717  14.879   1.807  11.894  0.3421  0.0820  0.0212
24194W        W41718   3.142   2.848   3.831 -0.1120 -0.0427 -0.3594
24195W        W41719  17.421   9.891  12.323 -0.0770  0.1275 -0.0667
24196W        W41720   5.400  13.905   2.161 -0.2800 -0.0938 -0.0232
24197W        W41721  12.449  14.261  14.109 -0.1490  0.1310 -0.0368
24198W        W41722  10.566  16.685  14.912  0.0756 -0.0519  0.1256
24199W        W41723   6.849   6.866  12.101 -0.2872 -0.0502  0.1492
24200W        W41724   5.807  17.344   0.726  0.3491 -0.0994 -0.1000
24201W        W41725   4.048   8.308   1.114  0.3642  0.1541  0.1168
24202W        W41726  13.556  16.432   0.027 -0.2552 -0.0930 -0.0485
24203W        W41727  16.787  11.937  11.515  0.3871  0.1255  0.1056
24204W        W41728  14.281   5.478   1.331  0.0517  0.1021  0.0498
24205W        W41729   2.916  16.448  13.483 -0.1998  0.0224 -0.1025
24206W        W41730  10.843  12.291   3.563  0.0065  0.0733 -0.1583
24207W        W41731  15.614  10.632   0.635  0.0290 -0.1552  0.2555
24208W        W41732  13.418   4.257   4.609 -0.3102  0.1366  0.2153
24209W        W41733  16.466   0.113   0.029 -0.1182  0.2687 -0.1286
24210W        W41734   9.900  12.979  12.299 -0.2220  0.0050 -0.1215
24211W        W41735  15.111  17.020  12.223 -0.0597  0.0520  0.0874
24212W        W41736  16.751  15.882  13.325  0.1682  0.1572 -0.0767
24213W        W41737   6.152   9.648  13.830  0.1829  0.1957 -0.0236
24214W        W41738   5.538  14.569  10.153 -0.1399  0.0720  0.2731
24215W        W41739   0.357  15.176   0.771  0.2656  0.1854 -0.1274
24216W        W41740  17.053   2.368  13.378  0.1797  0.1851 -0.0962
24217W        W41741  10.754  10.440  13.489  0.4174  0.2450  0.0793
24218W        W41742   7.642  15.749   1.102 -0.2326  0.0506  0.0137
24219W        W41743   8.958  11.208   2.586 -0.4074 -0.0575 -0.2521
24220W        W41744  16.995   2.562   4.741 -0.0384  0.2878  0.0013
24221W        W41745   1.491   1.838  14.877  0.1996  0.0561  0.1689
24222W        W41746   8.299   5.727   5.058  0.1368  0.0649  0.1222
24223W        W41747  16.406  17.609   2.583 -0.2517 -0.2284 -0.0253
24224W        W41748   7.839   9.319  14.956  0.0672  0.0407 -0.0289
24225W        W41749   2.915  10.200   2.905  0.1461 -0.1026 -0.0134
24226W        W41750   5.907   3.124  11.782 -0.0727 -0.0255 -0.1527
24227W        W41751   8.685   0.816   0.078 -0.0178  0.1695 -0.0314
24228W        W41752  12.144  12.487  11.568  0.0375  0.1122  0.1382
24229W        W41753  11.534   7.640   2.912  0.2956 -0.1718 -0.0739
24230W        W41754  12.821   2.700   0.927 -0.0647  0.0796  0.1196
24231W        W41755   7.269  16.269   5.037 -0.1470 -0.0340 -0.1712
24232W        W41756   3.088  13.510   4.627  0.0030  0.0093  0.2139
24233W        W41757   0.119   8.631   0.574  0.0456 -0.1269  0.0157
24234W        W41758   5.037   5.953   0.573  0.1836  0.0079 -0.0649
24235W        W41759   7.568   3.207   4.831 -0.0186 -0.0126 -0.0506
24236W        W41760   0.775  14.033  15.483  0.0703 -0.1597  0.0181
24237W        W41761   5.691   1.223  12.436  0.4293 -0.1114  0.2144
24238W        W41762   3.762   4.411   3.782 -0.1924 -0.2654  0.4840
24239W        W41763   3.775  12.655   1.850  0.0102  0.3471 -0.0375
24240W        W41764  16.534   8.837  14.371 -0.0161 -0.0052 -0.1069
24241W        W41765  14.959   9.944  13.723  0.0356 -0.0060 -0.0682
24242W        W41766   6.725   2.169  13.665 -0.2019 -0.1139 -0.0382
24243W        W41767  16.863  17.307  14.852  0.0853 -0.1149 -0.1088
24244W        W41768  10.330   0.647   0.286 -0.0893  0.1442 -0.1200
24245W        W41769  13.928  13.961  13.512 -0.0103  0.0282  0.1547
24246W        W41770  17.948   1.664   2.922  0.3676  0.1435 -0.2380
24247W        W41771  11.837  10.190  15.485  0.3562  0.0251  0.4501
24248W        W41772  10.141   8.827  13.472  0.0866 -0.4903 -0.2117
24249W        W41773   9.410  15.443  14.184  0.2317  0.0691  0.0041
24250W        W41774   2.492   2.737   3.081 -0.1281  0.1462  0.2922
24251W        W41775  12.513   8.346   1.240  0.3517 -0.0502  0.0442
24252W        W41776   0.864   3.316  10.866  0.1129 -0.1668  0.1529
24253W        W41777   8.183   4.529  11.762 -0.0711  0.1730 -0.0330
24254W        W41778   1.121   8.074   2.720  0.0135  0.3251 -0.0503
24255W        W41779   4.115  12.865   0.512  0.0906 -0.1268  0.1358
24256W        W41780  11.101  13.013   4.802  0.1225 -0.0372 -0.0405
24257W        W41781   0.924   6.269   2.667  0.1885 -0.0164  0.1638
24258W        W41782   7.530  16.664  12.715  0.2980  0.4355  0.0369
24259W        W41783  15.375   9.552  14.903 -0.1586  0.0081  0.2737
24260W        W41784   3.539   2.499  12.851 -0.0185 -0.4072  0.0516
24261W        W41785  13.944  13.363  14.494  0.2037 -0.0466 -0.2116
24262W        W41786  11.738   4.304   0.303 -0.0265 -0.1933  0.0236
24263W        W41787  14.300  10.812  16.048  0.0660 -0.2909 -0.8188
24264W        W41788  10.963   7.670   1.182 -0.0679  0.0491  0.1394
24265W        W41789  16.795  17.439   2.106 -0.2418  0.1676 -0.3102
24266W        W41790   5.414  17.953  15.830  0.3317 -0.0621 -0.1005
24267W        W41791   4.539   6.134   0.051  0.0299  0.0560 -0.0369
24268W        W41792  16.401   0.769  14.550 -0.0309  0.0156  0.3315
24269W        W41793   6.150   1.727   1.958  0.1620 -0.1907 -0.1908
24270W        W41794  14.414   1.550   3.305  0.0396  0.2125 -0.0707
24271W        W41795   5.467   6.900  12.901  0.1715 -0.0016 -0.0096
24272W        W41796  16.880  13.811   0.563 -0.2842 -0.1006  0.0502
24273W        W41797   9.698   3.364  11.268 -0.0495 -0.0987  0.0058
24274W        W41798   1.243   0.826  13.000  0.0748 -0.2373 -0.0084
24275W        W41799  10.597   6.630  15.698 -0.3719 -0.2955  0.1464
24276W        W41800   9.684   5.204   2.974  0.3922 -0.0848 -0.0025
24277W        W41801   6.232   4.927  12.419 -0.2296  0.1439 -0.0485
24278W        W41802   6.133   7.552  14.121 -0.0980  0.1656  0.2232
24279W        W41803  13.381  14.987  11.118  0.1451  0.0116 -0.0232
24280W        W41804  10.257  15.832  15.561  0.0786  0.1828 -0.0277
24281W        W41805   2.463   5.456   3.885 -0.0750  0.3808 -0.0557
24282W        W41806   0.811   1.096  13.109  0.2186  0.3605  0.1247
24283W        W41807  13.749   7.175   0.733  0.2861  0.0779  0.0420
24284W        W41808  17.883   7.020  12.580  0.0642  0.0789  0.0979
24285W        W41809   7.723  17.146   1.322 -0.0272  0.0245 -0.0277
24286W        W41810   0.798  11.226   2.136 -0.0844  0.1259  0.0019
24287W        W41811  12.381  13.639   3.291 -0.1433 -0.0092 -0.2510
24288W        W41812  11.885   3.068  13.501 -0.0089  0.1661 -0.1969
24289W        W41813   7.375   9.492   0.099 -0.1624  0.2514  0.0466
24290W        W41814  14.308   1.551   3.823  0.0333 -0.0482  0.1498
24291W        W41815   3.678  16.661   4.852  0.2298 -0.2800 -0.1687
24292W        W41816  16.768   4.506   3.181 -0.1039 -0.0046 -0.1394
24293W        W41817  12.623   1.096  12.459 -0.4119 -0.0568 -0.1782
24294W        W41818   5.261   8.890   2.011  0.1945 -0.1635  0.0646
24295W        W41819   6.864   1.138   1.737  0.1927  0.1706 -0.3439
24296W        W41820  11.085   8.779   3.442  0.0671  0.0004 -0.2293
24297W        W41821  11.513   0.396  11.848  0.1677 -0.1519 -0.0982
24298W        W41822   6.787   6.486   0.324 -0.3065  0.0639  0.0161
24299W        W41823   0.944  17.213   3.787 -0.0458 -0.1263  0.0122
24300W        W41824   3.252  13.074   0.629  0.1958  0.0805 -0.1116
24301W        W41825  14.021   6.196  12.576 -0.2359  0.1337 -0.2425
24302W        W41826   7.455   5.251   4.176  0.0103  0.2427  0.2626
24303W        W41827   5.776  14.160  14.239 -0.2616  0.1859 -0.0511
24304W        W41828   4.177  17.056   4.294  0.2011  0.1461 -0.1656
24305W        W41829  12.894   8.093  11.901  0.0379 -0.3480  0.0073
24306W        W41830  12.339  12.936  11.465 -0.2295  0.2419  0.0680
24307W        W41831  12.366   4.233  12.119 -0.0314 -0.2562  0.1107
24308W        W41832   7.238   0.185  11.419  0.0821  0.0163 -0.1985
24309W        W41833   8.202  12.413  13.540  0.0389 -0.1027 -0.0361
24310W        W41834   7.787   2.423   0.616 -0.1963  0.1357  0.0544
24311W        W41835   1.964   9.305   1.537  0.1709  0.0797  0.0177
24312W        W41836   5.167   1.973   4.018 -0.2022 -0.2641 -0.0339
24313W        W41837   8.189  13.155   2.013  0.0255  0.2430  0.1739
24314W        W41838  14.900  11.123   5.081 -0.2244  0.2677  0.0938
24315W        W41839  12.010   2.373   4.705  0.0200 -0.2590  0.0536
24316W        W41840   0.924  15.554   2.937 -0.0125 -0.0259  0.0943
24317W        W41841  16.169   3.870   3.185  0.2595 -0.3734  0.1613
24318W        W41842   3.037  11.107  14.400 -0.0112  0.1411 -0.1947
24319W        W41843   0.578  14.507  12.267  0.1298 -0.0826 -0.1462
24320W        W41844  15.922   1.350   2.587 -0.0909 -0.0456 -0.1727
24321W        W41845  14.591  13.732  13.996 -0.0458 -0.0772  0.0720
24322W        W41846  16.660   6.708   3.817  0.1168  0.0543 -0.3732
24323W        W41847   9.525  11.783  15.985  0.0041  0.0632  0.3239
24324W        W41848  13.450  10.666  15.985  0.0115 -0.0374  0.0168
24325W        W41849  16.340   6.920  12.498 -0.0976  0.2022 -0.0831
24326W        W41850  15.937  17.153  12.566 -0.1063  0.0274 -0.0643
24327W        W41851   2.981   5.654   5.810  0.2836 -0.1791 -0.0304
24328W        W41852  11.446  16.499   5.029 -0.1322  0.0377 -0.2426
24329W        W41853  16.098   4.454  13.301 -0.1753  0.3252  0.0335
24330W        W41854  13.367  18.029  12.486 -0.0288 -0.0959 -0.0877
24331W        W41855   0.693  13.194   3.515  0.0790  0.2256  0.0952
24332W        W41856   7.432  17.869  13.942 -0.1683 -0.0432 -0.0915
24333W        W41857   5.173   8.802  14.308 -0.0499 -0.1255  0.1092
24334W        W41858   0.386  17.385   3.257 -0.1430 -0.3463 -0.1749
24335W        W41859   9.921  11.352  12.332  0.2329  0.2853  0.0093
24336W        W41860  13.276   9.353  11.215 -0.0176 -0.0734  0.1288
24337W        W41861  17.334  10.120   4.469  0.4721 -0.2321 -0.3762
24338W        W41862   0.042   0.739   2.772 -0.0982 -0.0506 -0.0916
24339W        W41863   9.354   8.850  15.993  0.0964  0.1077 -0.1894
24340W        W41864   9.063   4.930  11.352  0.2482 -0.1523  0.0296
24341W        W41865  14.211   6.814  10.639 -0.1052  0.1860 -0.0866
24342W        W41866   4.990   2.909   1.676 -0.2799  0.1948  0.0197
24343W        W41867  17.957   2.679   1.928 -0.1201 -0.0928  0.0556
24344W        W41868  10.292   9.835   1.567 -0.0544 -0.0873  0.3421
24345W        W41869   9.520   5.556   2.062  0.1808 -0.1378 -0.1433
24346W        W41870  10.737   4.368  14.700 -0.1858  0.1166 -0.2796
24347W        W41871  17.026  16.559  11.461 -0.0310 -0.2214  0.2469
24348W        W41872  16.038  16.082   2.075  0.3334  0.0608 -0.0525
24349W        W41873   1.122   2.114  15.914  0.1061  0.1807 -0.2560
24350W        W41874   2.445   4.904   1.783  0.2312 -0.2276  0.1154
24351W        W41875   9.663  12.133   4.220  0.0382  0.0799 -0.3035
24352W        W41876   8.588   6.882  12.930 -0.0568  0.0916  0.0066
24353W        W41877  15.841   4.479  15.604  0.1685 -0.2776  0.3411
24354W        W41878   5.049  13.260  13.033  0.1191  0.0974  0.1428
24355W        W41879  12.763   3.459   4.398 -0.0143 -0.0050  0.1401
24356W        W41880   7.994  15.923  14.266 -0.0283  0.0642  0.1157
24357W        W41881  13.709  11.729  13.527 -0.1375 -0.0816 -0.0336
24358W        W41882  14.454   9.265   0.562  0.0231  0.0360 -0.3976
24359W        W41883   6.995   6.326  13.302 -0.2782 -0.0151  0.2553
24360W        W41884  12.925   8.833   2.506 -0.0523  0.0380 -0.3194
24361W        W41885   7.010   8.074  13.125 -0.1706 -0.2521  0.0511
24362W        W41886   0.339  11.369  14.407  0.0120 -0.1101 -0.2384
24363W        W41887  15.392  11.798   2.562 -0.0231  0.3283  0.0064
24364W        W41888  10.243  13.918  15.456 -0.0609 -0.1158  0.1485
24365W        W41889  17.336  11.981  14.582 -0.1651  0.0726  0.0876
24366W        W41890  12.056  11.309  12.379 -0.1044 -0.3034  0.2985
24367W        W41891  10.570  16.573   4.699 -0.2649 -0.2863 -0.4199
24368W        W41892   8.570   0.436  14.100  0.1064  0.1768 -0.1659
24369W        W41893   2.891   9.447   3.842  0.0387  0.2222  0.1021
24370W        W41894  14.893  17.710   2.658 -0.0522 -0.0597  0.0745
24371W        W41895   3.788  10.839  13.100  0.2440  0.1275 -0.0063
24372W        W41896   9.947   2.522   3.647 -0.2769  0.0773 -0.3667
24373W        W41897  15.467  14.965  12.687 -0.1890 -0.0112 -0.1246
24374W        W41898  13.334  14.709   0.958  0.0599  0.2267  0.0142
24375W        W41899   3.544   4.075   3.144  0.1207 -0.0986 -0.2822
24376W        W41900  15.905  11.415   1.631  0.1186  0.1253 -0.0938
24377W        W41901   3.119   6.623   0.759 -0.3298 -0.0128  0.0512
24378W        W41902   4.604   5.283  14.317 -0.0047  0.0540  0.0934
24379W        W41903  14.184   4.858  12.980 -0.1498  0.1873  0.1093
24380W        W41904  16.790   0.120  12.915  0.1182 -0.0550  0.2971
24381W        W41905   9.115   1.374   1.369  0.0165 -0.0591  0.1943
24382W        W41906  17.938   6.153  11.868 -0.2852  0.0767  0.1667
24383W        W41907   1.400  13.813   5.183 -0.0129  0.0712 -0.0775
24384W        W41908  15.361   2.355  14.446  0.0031 -0.1855  0.2313
24385W        W41909   2.355   1.633  15.321  0.2048  0.0601  0.0349
24386W        W41910   1.005   1.596  13.016 -0.0320  0.0263 -0.2350
24387W        W41911   0.135   1.076  15.073 -0.1050  0.2924 -0.3714
24388W        W41912   4.562   5.708   3.798  0.1241  0.0942  0.0788
24389W        W41913   1.891   9.276   4.086  0.0356  0.1325  0.1967
24390W        W41914  12.144  13.383  11.764  0.3921  0.0224  0.1566
24391W        W41915   6.381   6.318   4.246 -0.1728 -0.1331 -0.2226
24392W        W41916   3.905  16.677   3.908 -0.2352 -0.0062 -0.1440
24393W        W41917   5.231   8.400  11.309  0.0311  0.1414 -0.0624
24394W        W41918  10.289  11.949   4.741 -0.0400 -0.0492  0.0671
24395W        W41919   4.361   1.195   1.043 -0.3033  0.1287 -0.1182
24396W        W41920  16.442  17.370   4.693 -0.0191 -0.0426  0.3373
24397W        W41921   1.674   5.692  14.061 -0.1179 -0.2124 -0.2290
24398W        W41922   9.445   0.880   3.957  0.2450  0.2854  0.1521
24399W        W41923   8.489  15.493  11.360  0.0519  0.0116  0.1163
24400W        W41924  11.853   4.178  11.346  0.1205  0.0698 -0.3822
24401W        W41925   7.008   5.090  12.539  0.0617  0.2131 -0.1217
24402W        W41926  13.784   1.348  14.039 -0.2455 -0.1566 -0.1412
24403W        W41927  17.028  14.254  11.345 -0.4832  0.1668 -0.0654
24404W        W41928   1.474  13.434  11.015 -0.1667  0.0305  0.0571
24405W        W41929   5.834  14.769   2.421  0.0364 -0.0653  0.0849
24406W        W41930   4.789   9.429   3.258  0.0441  0.0605  0.1560
24407W        W41931   8.375   7.134  13.296 -0.1000 -0.0242  0.1155
24408W        W41932   8.864  11.299  11.287  0.0615 -0.1248  0.1443
24409W        W41933   0.145  14.221  13.525  0.1031  0.0718 -0.0492
24410W        W41934  14.243   4.451  12.705 -0.1192  0.1272  0.0435
24411W        W41935   6.159  11.528  11.469 -0.0697 -0.0078  0.1298
24412W        W41936   2.428  11.485   1.339  0.1641 -0.4596 -0.1063
24413W        W41937  17.263   8.037   1.394  0.5767  0.3717 -0.0207
24414W        W41938  17.407  15.534   0.169 -0.0754 -0.1153 -0.0543
24415W        W41939  18.061  11.470   1.228  0.1655  0.0976  0.3493
24416W        W41940   1.742   7.620  11.862 -0.0325  0.1755  0.2194
24417W        W41941  12.207  12.736   0.425 -0.0791 -0.2782 -0.1339
24418W        W41942   6.813   2.636   4.581  0.2042 -0.0127 -0.1398
24419W        W41943   4.646  14.062   4.403 -0.0461  0.2329  0.4279
24420W        W41944   8.851   4.457   2.495  0.3833  0.0197  0.2180
24421W        W41945  16.866  17.294  13.636 -0.5991  0.0094  0.2124
24422W        W41946   0.740  11.466   3.756 -0.2479 -0.0847 -0.1019
24423W        W41947   9.505   7.598  15.817 -0.1940  0.1035  0.0733
24424W        W41948  13.773  14.498   0.548  0.2278 -0.0394  0.0688
24425W        W41949   7.141   7.861  12.190 -0.0643  0.1300  0.0927
24426W        W41950   4.404   0.664   0.143  0.0172  0.0346 -0.0429
24427W        W41951   8.783  16.981   4.849 -0.2441  0.1947 -0.1257
24428W        W41952  11.456   5.479   1.760  0.0108 -0.3701  0.1438
24429W        W41953  14.489   8.611   1.622 -0.1614 -0.0230  0.1555
24430W        W41954   8.160  12.694  14.386  0.5114  0.0699 -0.2868
24431W        W41955   2.578  14.410  13.665  0.1135  0.1793  0.1212
24432W        W41956  11.276   6.267   1.258  0.2136 -0.2320  0.4221
24433W        W41957   9.891   8.971  14.296  0.2380 -0.1409 -0.2370
24434W        W41958   5.543   6.943   0.049  0.1108  0.1480  0.0880
24435W        W41959   3.850   9.536  12.736 -0.3453 -0.1563  0.0644
24436W        W41960  10.248  15.503  14.977  0.0327 -0.0536 -0.0514
24437W        W41961   6.982  16.630   0.337 -0.0417  0.0001  0.0948
24438W        W41962   3.676   7.507  15.649  0.0118 -0.2816 -0.1292
24439W        W41963  10.086  17.574  12.049 -0.1660 -0.0568  0.1850
24440W        W41964   6.634   6.188  10.569  0.3086  0.1492 -0.1381
24441W        W41965  10.881   3.212   0.199  0.1191 -0.1145 -0.1682
24442W        W41966   0.177  10.770   1.819  0.3876 -0.0615 -0.1998
24443W        W41967   8.819  14.951   1.673 -0.0947 -0.1653 -0.1706
24444W        W41968   9.506  10.362   4.531 -0.0373 -0.0942  0.2484
24445W        W41969  10.124   8.503  15.914  0.0960  0.2995 -0.0870
24446W        W41970  17.802  17.493   1.199 -0.0522  0.0234 -0.0437
24447W        W41971  15.440   9.942  13.472  0.1370  0.3433  0.0601
24448W        W41972  15.983  12.439   5.024  0.1808  0.3714 -0.0956
24449W        W41973  11.625  16.059  14.676  0.2516 -0.1810  0.3518
24450W        W41974  13.668  16.557   4.066  0.0598  0.4163  0.0122
24451W        W41975   4.788  10.779   2.556  0.0173  0.1261 -0.0994
24452W        W41976  13.301   7.964   2.027 -0.2475 -0.0521  0.2275
24453W        W41977  11.369   4.987   0.305  0.2061  0.0054 -0.0424
24454W        W41978  17.654  11.228   2.529 -0.0865 -0.0890 -0.0758
24455W        W41979  11.512   2.186   4.559 -0.1144 -0.1701 -0.1951
24456W        W41980   5.125   7.621  12.293 -0.2177 -0.0673 -0.0161
24457W        W41981   8.203  12.974   4.426 -0.1828  0.1764  0.1668
24458W        W41982   2.054   0.454  14.031  0.1901  0.0608  0.1925
24459W        W41983  12.696   2.827  11.276 -0.1973 -0.0789 -0.0171
24460W        W41984  12.993   7.359  11.493 -0.0303 -0.2978 -0.1854
24461W        W41985   3.535   3.919   3.911  0.1242 -0.3850  0.0207
24462W        W41986  14.205   0.506   1.313  0.0855  0.0687 -0.0292
24463W        W41987  11.310   0.310  15.887  0.1986 -0.1941 -0.0096
24464W        W41988  12.884  15.777  15.367  0.3421 -0.0288  0.0312
24465W        W41989   8.269  14.823  15.443  0.1106 -0.0456 -0.0132
24466W        W41990   5.350   9.854   3.910 -0.5427 -0.1488 -0.2790
24467W        W41991   5.143  11.375   4.341 -0.4035 -0.2076 -0.0135
24468W        W41992  11.581  15.913   1.513 -0.0018  0.1535 -0.1065
24469W        W41993   5.971   4.555   2.154 -0.3343  0.1678 -0.0303
24470W        W41994  17.473   9.583  13.342  0.0083 -0.1983  0.1931
24471W        W41995  11.650   2.154  12.341  0.0364 -0.0081  0.2870
24472W        W41996  15.144   9.290   2.513  0.1136  0.1438 -0.1128
24473W        W41997   0.059   2.492  11.335  0.0892  0.0866  0.0892
24474W        W41998   9.553   5.445  14.463  0.1673 -0.0414 -0.2153
24475W        W41999  12.199  14.852   4.788 -0.0231 -0.0364  0.2207
24476W        W42000   8.005   9.137   1.387  0.0739  0.4556  0.0001
24477W        W42001   1.605   3.068   4.427  0.3175 -0.0848 -0.0668
24478W        W42002   6.904  17.398   4.685 -0.0391 -0.0817  0.3240
24479W        W42003  18.126  10.214  14.890 -0.0040 -0.0620 -0.2521
24480W        W42004   5.103  11.366  13.408 -0.0543 -0.3875  0.0494
24481W        W42005   9.637   7.402   1.617 -0.1195 -0.3487 -0.2434
24482W        W42006  13.381   2.592   2.179 -0.1133  0.1636  0.3122
24483W        W42007  12.824  17.771  14.061  0.3209 -0.1957  0.1176
24484W        W42008   8.099   4.595   0.953 -0.0137  0.2986 -0.2209
24485W        W42009   6.143   5.320  15.285 -0.1052  0.1041 -0.0958
24486W        W42010   9.569   9.901  11.448 -0.0074  0.1593 -0.0569
24487W        W42011  13.339  16.575  12.735 -0.0559  0.3565  0.1020
24488W        W42012  16.300  13.023   0.768  0.1896 -0.2250 -0.0056
24489W        W42013  16.197   3.113  11.811 -0.1583 -0.0067 -0.2985
24490W        W42014   8.107  14.382   4.303  0.0305 -0.0287  0.1111
24491W        W42015  10.369   2.408   2.037 -0.0413 -0.0532 -0.2137
24492W        W42016   2.345  10.882  13.491  0.0124  0.3209  0.2702
24493W        W42017  16.883   2.666  15.067  0.2275  0.0721 -0.2563
24494W        W42018   9.514   1.820   3.507  0.0591 -0.2598  0.0693
24495W        W42019   7.546  16.257   1.236 -0.0772  0.0014  0.2557
24496W        W42020  11.358  16.050   3.523 -0.0153  0.0413 -0.1347
24497W        W42021  17.535   2.403  13.944 -0.1347  0.0571 -0.1493
24498W        W42022  13.821   7.830  11.620  0.0780 -0.2205  0.1029
24499W        W42023  11.170   9.257   3.963  0.0765 -0.5306 -0.1225
24500W        W42024   1.957  11.813  13.684 -0.1801  0.2357  0.0773
24501W        W42025  11.460   1.705   5.614  0.1575  0.0540 -0.2329
24502W        W42026  17.812  11.412   2.972 -0.1153 -0.1111 -0.0494
24503W        W42027  16.576  11.449   3.955 -0.1608  0.0998 -0.0509
24504W        W42028  15.132   8.860  11.506  0.1526  0.1565 -0.5318
24505W        W42029  17.989  14.391  13.115  0.1409  0.1375  0.0811
24506W        W42030  14.678   9.733   3.865  0.0492  0.2107 -0.1256
24507W        W42031  14.175  16.758   3.973 -0.0690 -0.0337 -0.1916
24508W        W42032   1.319   9.883   5.104 -0.2648  0.1997 -0.0767
24509W        W42033  17.571  15.383  13.486  0.0755  0.0710 -0.0687
24510W        W42034  11.809  12.580   3.422 -0.0619 -0.1096 -0.1854
24511W        W42035   4.077  12.783   3.315 -0.0932  0.1870  0.1726
24512W        W42036   4.867   0.674  15.801 -0.3945  0.1441 -0.0804
24513W        W42037   2.741   7.606  13.357  0.0910 -0.2142 -0.2483
24514W        W42038   4.234   9.585  12.326  0.1085  0.0414 -0.4419
24515W        W42039   7.002   5.447   2.188  0.0308  0.1276  0.1149
24516W        W42040  16.533  14.289  15.064 -0.1092 -0.0020 -0.0875
24517W        W42041  15.784  16.416   0.675  0.1124 -0.0515 -0.2077
24518W        W42042   1.172   7.509  14.194  0.0379  0.1262 -0.0808
24519W        W42043   4.865  11.118   0.965 -0.0987 -0.0677 -0.1658
24520W        W42044  10.048   3.768  13.877 -0.0385  0.1332  0.3537
24521W        W42045   6.470  12.600  11.892 -0.3955 -0.2041  0.2351
24522W        W42046  16.774   0.191  14.701 -0.0364  0.3020  0.1673
24523W        W42047  16.495  12.567   0.736  0.0583 -0.0378 -0.1467
24524W        W42048   7.471  12.361  15.912 -0.2770  0.1153 -0.0889
24525W        W42049   1.067   6.645   1.700 -0.4070  0.5170 -0.1118
24526W        W42050   7.076   5.081  12.083 -0.3856  0.2051  0.0860
24527W        W42051  10.384  10.795   3.103 -0.0290  0.0240 -0.0008
24528W        W42052   1.594   2.494   0.906  0.0934 -0.2128 -0.0507
24529W        W42053   6.381  10.304  13.361 -0.0172  0.1979  0.2585
24530W        W42054   2.852   2.610  12.468 -0.2579  0.0709 -0.0011
24531W        W42055  13.686   2.093  11.826  0.3084 -0.0126  0.0362
24532W        W42056   0.468   1.427  11.586 -0.3846  0.0072 -0.0596
24533W        W42057   3.575  10.769  11.054  0.3855 -0.1838  0.2349
24534W        W42058   7.604   7.933   4.598  0.3967 -0.0201  0.0654
24535W        W42059   3.517  10.556  12.816 -0.2285  0.0659  0.1996
24536W        W42060   3.997   6.400  10.990  0.0989 -0.2761  0.3063
24537W        W42061  10.762   1.654   3.203 -0.1141  0.1380 -0.0210
24538W        W42062   6.530  18.033  13.819 -0.2989  0.1564  0.0588
24539W        W42063  16.591  14.330   2.241  0.0755  0.2966 -0.0998
24540W        W42064   2.455  10.412   0.350  0.2265  0.1463 -0.0350
24541W        W42065   5.434  17.297  11.684 -0.0436  0.0814 -0.1833
24542W        W42066  12.239   0.024  13.942 -0.0410  0.0779  0.0126
24543W        W42067   6.597   8.590   1.288 -0.0159 -0.4602 -0.2311
24544W        W42068   6.948   5.730  15.818 -0.0731 -0.0776  0.3568
24545W        W42069   0.623  11.731   4.705  0.2792 -0.0058 -0.1142
24546W        W42070   0.930   9.559  13.097 -0.1106 -0.1376  0.1621
24547W        W42071   5.420   8.851  11.549 -0.1132  0.0244 -0.0994
24548W        W42072   6.976   3.833  11.756 -0.0593  0.1202 -0.0952
24549W        W42073  12.479   2.380   4.859  0.0057 -0.1652 -0.3183
24550W        W42074   9.470  15.819  15.337  0.0311  0.0863  0.0460
24551W        W42075   8.375   2.533  11.363  0.2116  0.0588 -0.2563
24552W        W42076  16.192   2.257   3.599  0.3004  0.0473  0.3509
24553W        W42077   2.500  12.784   4.157 -0.3047  0.2155 -0.1484
24554W        W42078   1.045   0.905   3.522 -0.1034  0.0071  0.0294
24555W        W42079  10.252   8.363  13.222 -0.2046 -0.2529  0.0841
24556W        W42080   5.535   1.930  15.826 -0.2177  0.0411 -0.1449
24557W        W42081   5.429  13.614  14.820 -0.0002 -0.0265 -0.1313
24558W        W42082  10.113  12.151  14.701 -0.1288 -0.2259  0.2540
24559W        W42083  15.034  10.442   0.898  0.0415  0.1632  0.2243
24560W        W42084   5.920   3.149  13.391  0.0752  0.0337 -0.2936
24561W        W42085  16.014  12.027  12.059 -0.0809 -0.2062 -0.1932
24562W        W42086  16.404   2.932  12.965 -0.0050  0.3896  0.1099
24563W        W42087  12.303  11.186  14.086 -0.1434  0.2347 -0.1859
24564W        W42088  12.342  14.574   0.808  0.0456 -0.3391  0.1657
24565W        W42089   0.354  12.629   1.845 -0.1159  0.1827 -0.0196
24566W        W42090  11.982   4.383  12.445  0.3565 -0.1200  0.0869
24567W        W42091  13.039   7.787   4.193 -0.3372  0.3609 -0.0268
24568W        W42092   1.292   7.740  11.647  0.3038 -0.2893  0.3569
24569W        W42093  10.078  17.039   3.852  0.2671  0.0215  0.0722
24570W        W42094  12.934   6.812   2.672 -0.2615 -0.1852  0.1455
24571W        W42095  15.377  11.654  13.982  0.4887  0.0447  0.0860
24572W        W42096   8.407   6.636   1.466 -0.0172  0.1122 -0.1270
24573W        W42097  10.849   6.619   2.512  0.0460  0.0083  0.1588
24574W        W42098  12.152  13.566  12.682 -0.0186 -0.0842  0.0539
24575W        W42099   6.964  16.395   3.835  0.0360  0.1015  0.3301
24576W        W42100  14.186  10.153   4.461  0.0270  0.1561  0.1057
24577W        W42101  11.585   2.562   1.412  0.1139 -0.1625  0.3283
24578W        W42102   9.085   6.781  14.929  0.0210  0.1982  0.1032
24579W        W42103  13.485   9.277   0.721 -0.0156 -0.0855 -0.0800
24580W        W42104  14.357   0.972   0.981  0.0109 -0.0282 -0.0122
24581W        W42105   3.243  10.588  12.316  0.2277 -0.1630  0.0230
24582W        W42106   5.990  13.413   0.242  0.2477 -0.2457 -0.1909
24583W        W42107   9.434   9.974  14.948  0.0857 -0.2509 -0.0462
24584W        W42108  11.786   6.838   0.404 -0.0950  0.1872  0.4092
24585W        W42109   3.811   4.929   3.827 -0.0431  0.0110  0.0933
24586W        W42110   5.346   5.092  15.500  0.3853  0.0713 -0.0749
24587W        W42111  11.758  12.272  14.079 -0.0724  0.2634 -0.3299
24588W        W42112   6.337   4.695   3.764 -0.0965  0.2680  0.0719
24589W        W42113  15.258  16.381  11.372 -0.3888  0.0574 -0.0078
24590W        W42114   0.950  11.457  15.158 -0.1122  0.3397 -0.0102
24591W        W42115   3.047  18.014  14.755  0.0281  0.2668 -0.1309
24592W        W42116  16.779  13.451   3.698 -0.0591 -0.0462  0.2581
24593W        W42117   4.047  15.957   5.123  0.0880 -0.3320 -0.1941
24594W        W42118   5.158  12.549   4.294 -0.0486  0.2251  0.2105
24595W        W42119  10.560   2.864   1.859 -0.0722 -0.1383  0.1141
24596W        W42120   6.897   9.317   4.954  0.0430  0.3450  0.0298
24597W        W42121   9.035   1.084  15.807  0.1115 -0.1978  0.0465
24598W        W42122   7.451  14.762   4.194 -0.0513  0.2487  0.0630
24599W        W42123  11.186   9.041  11.996 -0.0751  0.0567 -0.1881
24600W        W42124   9.247   8.530   0.831 -0.0676  0.1684 -0.1427
24601W        W42125  10.797   3.475  12.605 -0.0331 -0.1314 -0.3588
24602W        W42126  13.305   7.736   2.905  0.2112  0.0285 -0.1710
24603W        W42127   3.713  14.981   3.099 -0.1908 -0.1809 -0.0703
24604W        W42128  13.377  12.688   2.312  0.3238 -0.0250  0.1482
24605W        W42129   0.310   7.131  12.722  0.1065 -0.0694  0.2561
24606W        W42130   0.549   0.572  15.795 -0.0249 -0.1161  0.0167
24607W        W42131  12.144  15.991   0.633  0.1591 -0.2313  0.2003
24608W        W42132  17.184   8.637  15.644  0.3217  0.0218 -0.0751
24609W        W42133  11.734  14.318   3.862  0.1277  0.0663 -0.1729
24610W        W42134  13.721   4.568   4.815  0.1726 -0.0532 -0.2682
24611W        W42135  10.887  12.064  14.277  0.2126  0.1541 -0.1204
24612W        W42136  13.361  15.640   0.127 -0.0872 -0.0313 -0.0276
24613W        W42137   3.365  11.660  10.470 -0.0801  0.0652  0.0402
24614W        W42138  13.005   1.210   1.896 -0.1229 -0.0409 -0.0420
24615W        W42139   0.110  11.005  11.200  0.0297  0.4497 -0.1679
24616W        W42140  12.863   5.572  14.780  0.1631 -0.0848 -0.1252
24617W        W42141   9.866   7.919  11.887  0.1819 -0.1456  0.1282
24618W        W42142  14.434   4.895  12.537 -0.0953 -0.0135 -0.0915
24619W        W42143  13.723  17.297  13.166  0.1115 -0.0540  0.2174
24620W        W42144  15.716  13.299  14.255 -0.1882  0.1594 -0.0376
24621W        W42145  12.069   3.513   0.084 -0.1551 -0.0847 -0.0599
24622W        W42146  12.578   2.900  12.875 -0.3290 -0.0581 -0.0430
24623W        W42147  14.155   5.350   0.249 -0.0566  0.0528  0.0815
24624W        W42148   1.034   4.271   0.168 -0.1381 -0.0543 -0.1483
24625W        W42149  12.504   1.281   2.324  0.3262 -0.0467  0.0406
24626W        W42150   6.731   5.032   2.232 -0.1938 -0.2093  0.3516
24627W        W42151   8.587   5.123  14.408  0.1346 -0.0942 -0.0155
24628W        W42152   7.390   6.099  13.633 -0.1543  0.0728 -0.4021
24629W        W42153   3.648   4.801   0.965  0.2883  0.2909  0.1563
24630W        W42154  10.377   5.224   0.827 -0.2559 -0.0886 -0.1146
24631W        W42155  11.520   6.136  13.990  0.3347 -0.0257  0.0318
24632W        W42156   4.903   1.954   0.303  0.5392 -0.3442 -0.2064
24633W        W42157  14.133   0.396  13.963  0.1297  0.1351 -0.0775
24634W        W42158   4.107   9.049  14.818  0.0891 -0.2888  0.0696
24635W        W42159  14.811   3.879  11.457 -0.0582 -0.4207  0.1617
24636W        W42160  16.892   3.886   4.827 -0.0579  0.0860 -0.0955
24637W        W42161   8.178  15.033   3.083  0.3521  0.2453 -0.0753
24638W        W42162   3.860  15.456   5.134 -0.0437  0.2903  0.0607
24639W        W42163  13.968  16.940   1.507  0.1879 -0.4295 -0.1607
24640W        W42164  16.339   5.076   0.852 -0.0858  0.2032  0.1257
24641W        W42165  13.119  10.908   2.605  0.1440 -0.2131 -0.4844
24642W        W42166   2.331  10.634  15.915 -0.0819 -0.0038  0.0660
24643W        W42167  15.845  16.939  12.987 -0.0586  0.0627 -0.0834
24644W        W42168   8.355   6.364  12.739 -0.1584  0.1072 -0.5299
24645W        W42169   5.643  13.781  13.770  0.5494  0.1039 -0.1477
24646W        W42170   7.039  10.111   0.235  0.1679 -0.2615  0.0433
24647W        W42171  11.826   7.828  10.526  0.1435 -0.0487  0.1247
24648W        W42172  11.925   1.864  14.998 -0.1199  0.2804 -0.2910
24649W        W42173  13.783   4.152   5.012 -0.1257 -0.2289  0.0017
24650W        W42174  13.026   0.506   2.531 -0.0296 -0.0078 -0.4128
24651W        W42175   9.098  17.965  14.464  0.0289 -0.1605  0.0042
24652W        W42176  11.051   8.443  12.539  0.1287 -0.2287  0.0802
24653W        W42177   1.265  15.647  11.393  0.0159  0.1251  0.2522
24654W        W42178   4.160   9.039   3.821  0.1643 -0.1084 -0.0387
24655W        W42179   4.030   2.369   3.368  0.1147 -0.1982  0.0556
24656W        W42180   0.639  16.786   2.359 -0.0767 -0.2134 -0.0115
24657W        W42181  13.720  11.055   2.317  0.0365 -0.1362 -0.0987
24658W        W42182  14.046  14.222  12.661  0.0019  0.3028  0.0929
24659W        W42183   8.314  10.254   2.581 -0.1391 -0.2670  0.1823
24660W        W42184   4.332  17.612  10.194 -0.1278  0.0781 -0.1682
24661W        W42185   5.760   1.630   0.225  0.0464  0.2723 -0.0023
24662W        W42186   2.721  10.819   4.078 -0.1645 -0.0791  0.1355
24663W        W42187  12.783  17.862  12.573  0.3285 -0.1946  0.0041
24664W        W42188   3.073  13.412  13.264  0.0143 -0.1466  0.0793
24665W        W42189  13.840   0.503   4.280  0.1757 -0.3019  0.1067
24666W        W42190   8.662   8.182   2.269  0.0858 -0.2959  0.0773
24667W        W42191  13.261  13.923  12.801  0.0791  0.1830  0.2610
24668W        W42192   1.828  13.601   5.095  0.0062 -0.1505  0.0129
24669W        W42193   6.878  16.915   1.364 -0.1088  0.0509 -0.1450
24670W        W42194   0.296  11.186   0.193 -0.1015 -0.2222 -0.0413
24671W        W42195   8.135  11.900  15.617  0.0195 -0.0556 -0.1849
24672W        W42196  13.272   7.257   1.387 -0.0137  0.0311  0.1616
24673W        W42197  12.260  12.282  11.085  0.0151 -0.1175  0.0498
24674W        W42198  16.817   0.087  13.747 -0.0088 -0.0825  0.0166
24675W        W42199  17.126   5.759   1.594  0.0737  0.2302  0.0370
24676W        W42200   5.847  15.131  11.561 -0.0103  0.1059  0.0333
24677W        W42201   5.757  16.886   2.412  0.1777  0.1633  0.3693
24678W        W42202   0.902  11.389   4.341 -0.1299 -0.3031 -0.2798
24679W        W42203   0.595  10.737   2.828  0.1022  0.0816 -0.0357
24680W        W42204  17.774  15.681  14.995 -0.1516 -0.1288  0.0603
24681W        W42205   0.046  11.940   4.606 -0.4001 -0.0560  0.1404
24682W        W42206   5.331   6.008   3.705  0.0102 -0.4115 -0.1596
24683W        W42207  17.958   6.028  11.345 -0.0655  0.1577  0.1114
24684W        W42208   3.141   3.704   0.240 -0.1243 -0.0596 -0.0768
24685W        W42209  13.319  11.545   3.872 -0.1167 -0.1586  0.1457
24686W        W42210   9.287  17.721  14.060  0.2323 -0.2221 -0.0725
24687W        W42211   4.953  17.587  13.804  0.0901  0.5230  0.1464
24688W        W42212   2.579   9.087  13.377 -0.0123 -0.1228 -0.0301
24689W        W42213   2.989  16.719   1.171 -0.3135  0.1202  0.0903
24690W        W42214   8.192  11.050   1.461 -0.0299  0.3936  0.1006
24691W        W42215  15.911   6.610   4.610 -0.0560  0.0520  0.2840
24692W        W42216   0.986   3.213  15.121 -0.1268  0.1754 -0.0729
24693W        W42217   4.497  18.014  13.600  0.3037 -0.0429  0.1720
24694W        W42218   3.528   0.215  11.281  0.0192  0.2704 -0.1242
24695W        W42219  16.499   3.095   3.596 -0.1147  0.3726 -0.0208
24696W        W42220   8.403   4.817  10.764  0.1717 -0.2854 -0.0486
24697W        W42221   3.865  14.908  13.454  0.0108  0.1665  0.2356
24698W        W42222   5.933   4.954   1.871  0.1706  0.3135 -0.2524
24699W        W42223   0.273   8.924   3.513  0.2620  0.0493 -0.1102
24700W        W42224  11.284   8.309   3.605  0.0988 -0.1969  0.0704
24701W        W42225   0.467  10.133   4.689 -0.2862  0.0484 -0.1518
24702W        W42226  13.145   7.089  11.874 -0.1685 -0.1916 -0.2658
24703W        W42227   2.080   3.188  12.714  0.0004  0.1227  0.0032
24704W        W42228   0.744   0.200   5.022 -0.1985  0.1106 -0.0698
24705W        W42229  15.486  13.159   2.277 -0.0610 -0.1482 -0.1983
24706W        W42230   4.848  14.586  13.242  0.1102  0.0189  0.3044
24707W        W42231   2.659   4.103   3.600 -0.2668 -0.0084  0.2144
24708W        W42232   5.772   9.229   3.426  0.0494 -0.1674  0.2840
24709W        W42233   6.118  14.483  13.997  0.0365  0.2374  0.0115
24710W        W42234   0.030   8.683  14.088  0.2685  0.2204 -0.0311
24711W        W42235  15.478  12.055  12.425  0.0741 -0.0423  0.0328
24712W        W42236   9.451   1.910  15.572 -0.1882  0.0173 -0.0585
24713W        W42237   0.116  15.918  13.883  0.1985  0.1573 -0.3301
24714W        W42238  17.462  14.891  14.790  0.2177  0.1371  0.1399
24715W        W42239  17.905  14.423   0.945  0.0330  0.0911  0.0643
24716W        W42240   4.352  11.640   4.073 -0.1827  0.1354 -0.4787
24717W        W42241   5.830   9.774   4.936  0.2652 -0.5354 -0.1366
24718W        W42242  11.125   6.790   1.154  0.1205 -0.2377  0.2115
24719W        W42243  15.497  13.409  15.562  0.0221  0.0620 -0.2594
24720W        W42244   8.187   6.951   3.623  0.1642  0.0962  0.2154
24721W        W42245   9.710   1.113   3.133 -0.2425  0.0447 -0.1848
24722W        W42246  14.131  10.301  13.754  0.2030 -0.0754  0.0419
24723W        W42247  12.482  13.022   1.897  0.0248  0.3383 -0.0756
24724W        W42248   0.572  16.257   3.334  0.1233 -0.0576 -0.0072
24725W        W42249  12.696   6.400   3.947  0.2069 -0.0013 -0.2524
24726W        W42250  16.769   6.166  15.989 -0.0644  0.0758  0.0031
24727W        W42251  17.418   5.017   3.552 -0.0894  0.0676  0.2015
24728W        W42252   0.201   1.672   2.495  0.0511  0.3395  0.0941
24729W        W42253   6.079  17.769   0.591 -0.1259 -0.2350 -0.0618
24730W        W42254   4.446   0.339  15.784  0.3246 -0.0509 -0.1458
24731W        W42255   1.402  16.841   0.452 -0.1329  0.2332 -0.1007
24732W        W42256   8.674  13.912   3.305  0.3772 -0.0611 -0.0203
24733W        W42257  11.012  14.920   4.209  0.4111  0.0314 -0.1975
24734W        W42258   3.186   1.302  12.287  0.1211 -0.1131  0.0857
24735W        W42259   0.395   5.846   2.776 -0.1924 -0.1212  0.0965
24736W        W42260  10.754  17.811   5.314 -0.2175 -0.4023 -0.1757
24737W        W42261  14.372   7.815   4.014  0.2786 -0.2416 -0.2582
24738W        W42262  13.680  12.129  15.638 -0.1381 -0.4103  0.0671
24739W        W42263  16.555   9.559   4.259 -0.2251  0.2041 -0.1698
24740W        W42264  16.758  17.916  13.329 -0.1057 -0.0037  0.3039
24741W        W42265   7.230  13.426  13.193  0.0232 -0.2372  0.0430
24742W        W42266   4.636  14.383  12.682 -0.2214  0.1144 -0.2951
24743W        W42267   7.143  17.711  15.212 -0.2010 -0.0908 -0.2404
24744W        W42268   8.975  15.135  13.444 -0.0087 -0.0677 -0.1624
24745W        W42269   9.839  17.072  13.028  0.0076  0.0765 -0.2159
24746W        W42270   5.496  11.084  15.158 -0.1166  0.0742 -0.2789
24747W        W42271   3.021  15.446  15.445  0.0437  0.0153  0.1194
24748W        W42272  17.974   5.242  13.176 -0.1659 -0.0094 -0.1650
24749W        W42273   6.830   4.125   4.309 -0.0303 -0.3980 -0.3382
24750W        W42274  17.678  14.398  12.562  0.0172 -0.0691  0.0718
24751W        W42275   8.451   9.929  15.252  0.1199  0.4691 -0.1743
24752W        W42276   6.610   8.676  12.749 -0.0952  0.0063 -0.0766
24753W        W42277   2.691   5.721  15.065 -0.1651 -0.0487  0.1498
24754W        W42278  12.894  15.021  14.829  0.0625 -0.0167  0.0465
24755W        W42279   2.325   2.656   4.460 -0.0042 -0.2180 -0.0814
24756W        W42280  17.502  11.832  14.079  0.0617 -0.0367 -0.4594
24757W        W42281   0.113   1.359  14.637  0.2058  0.0410  0.0509
24758W        W42282   3.422   6.245   3.209 -0.0167 -0.2645  0.3816
24759W        W42283  10.657  10.645  15.270 -0.0312 -0.0569 -0.1272
24760W        W42284   1.383   2.111   1.215 -0.1461 -0.3415 -0.0161
24761W        W42285  15.245  14.109  15.602 -0.0958  0.2159  0.2668
24762W        W42286   2.671   7.640  12.398  0.1600 -0.1214  0.1231
24763W        W42287  14.733   1.887  12.384  0.1536  0.1891 -0.1005
24764W        W42288   6.948   6.499  10.038 -0.1170 -0.0039 -0.0857
24765W        W42289   9.349   0.549   0.670  0.1764 -0.0166 -0.0223
24766W        W42290   5.597   0.029  13.400  0.0874 -0.1979 -0.0026
24767W        W42291  12.304   6.929   4.556  0.1556 -0.1783  0.4873
24768W        W42292  13.185  12.728   5.015  0.1731  0.0190 -0.1992
24769W        W42293  11.858   3.542  13.198  0.0664 -0.4725  0.1342
24770W        W42294  13.299   4.727  12.829  0.0344  0.1060 -0.2046
24771W        W42295  10.275   7.720  11.657  0.0993 -0.0896 -0.3132
24772W        W42296  11.528  11.829   1.175  0.1003 -0.0701  0.1152
24773W        W42297   1.240   2.707   0.273  0.1264 -0.2609  0.3823
24774W        W42298  12.775  16.642  11.982  0.1565 -0.0264 -0.1907
24775W        W42299   3.908   0.231  15.279 -0.2155 -0.2713  0.1733
24776W        W42300  10.309  16.350  15.670 -0.0881  0.2539  0.2628
24777W        W42301  12.208   8.207   3.925  0.0616 -0.2960  0.0722
24778W        W42302  14.756  14.440   2.651  0.0731  0.0269  0.1061
24779W        W42303   9.290   6.845  10.382 -0.1556  0.1516 -0.2471
24780W        W42304   3.201  16.000  13.370 -0.0583 -0.4432  0.0844
24781W        W42305   1.521  11.339   0.422  0.0206  0.0285  0.1091
24782W        W42306  12.654   0.449   2.913  0.0073  0.3994  0.1562
24783W        W42307  14.275   8.848   3.118 -0.1017 -0.1059 -0.0297
24784W        W42308   6.060  14.424  12.626 -0.1165  0.2001 -0.0030
24785W        W42309   9.573   1.174  10.960 -0.1906  0.2676 -0.2082
24786W        W42310  15.660   3.935   1.515  0.1421 -0.0589 -0.0595
24787W        W42311   0.472   8.799  11.888 -0.2955  0.0526  0.2529
24788W        W42312   3.556  13.212   1.032  0.3075  0.1010  0.1191
24789W        W42313  12.750  14.419   3.036 -0.0299  0.5489  0.3168
24790W        W42314   4.499  16.482  15.594 -0.1006 -0.3520 -0.0151
24791W        W42315  14.179   1.664  13.563  0.1279  0.0402 -0.0453
24792W        W42316   4.304   7.474  15.086  0.2564  0.0491 -0.0551
24793W        W42317  15.300   6.906  15.594  0.0180  0.0833  0.3523
24794W        W42318  12.709  13.012   3.282 -0.2197  0.0513  0.0250
24795W        W42319   7.488  13.333   1.293 -0.2160 -0.1507 -0.0357
24796W        W42320  11.405  13.631  15.693  0.1695 -0.2023  0.0254
24797W        W42321   2.976   1.658  12.562  0.5304 -0.0002  0.0204
24798W        W42322   3.978   5.264   4.647 -0.3958  0.2121  0.0465
24799W        W42323   8.009  14.256   0.741 -0.3493 -0.0183 -0.1238
24800W        W42324  10.990  15.361  14.438 -0.0894  0.1888  0.0559
24801W        W42325  15.948   3.656   0.012  0.0563  0.0052  0.0412
24802W        W42326   1.309  17.429   3.340 -0.1972  0.1928 -0.2487
24803W        W42327   6.222   7.284  10.027 -0.1051 -0.1977 -0.0167
24804W        W42328  15.830  10.785  12.479 -0.2819  0.1878 -0.0912
24805W        W42329  12.614   5.449  11.111  0.2278 -0.3588 -0.1864
24806W        W42330   3.697   2.384  10.190  0.1584 -0.2158 -0.1265
24807W        W42331   4.132   0.735   2.996  0.0191  0.3581  0.0634
24808W        W42332  14.305  17.546   5.192  0.2333  0.1950  0.1654
24809W        W42333  11.086  16.643   2.593 -0.0710 -0.2112 -0.0388
24810W        W42334   4.438   6.094  14.583 -0.0486 -0.0365  0.2100
24811W        W42335   7.474   4.503   0.702  0.1997 -0.1642 -0.1325
24812W        W42336   1.307   9.620   0.939 -0.1254  0.1034 -0.2699
24813W        W42337   6.691  14.655   2.161 -0.0102 -0.2678  0.0755
24814W        W42338  13.152   6.210  12.164  0.2457 -0.1007  0.1201
24815W        W42339   7.863  18.020   4.575  0.2720  0.0361  0.2427
24816W        W42340   3.011   6.503   3.526  0.2706 -0.0295 -0.0439
24817W        W42341   2.411  17.075   3.688 -0.0378  0.1058 -0.2937
24818W        W42342  12.793   5.050   1.574 -0.1545 -0.1423 -0.2731
24819W        W42343   7.217   0.425  15.740 -0.2799  0.2638  0.0906
24820W        W42344   9.438  17.201   0.633  0.2887  0.2266 -0.2811
24821W        W42345   5.641  12.778   4.216  0.0554  0.1080  0.2571
24822W        W42346   8.757  13.047  10.816 -0.1641 -0.2506 -0.0750
24823W        W42347   2.729  11.364   2.387  0.0534 -0.1211 -0.0176
24824W        W42348   2.890   1.911   4.707  0.1290 -0.0604  0.0769
24825W        W42349   8.871  11.312   3.610 -0.0103 -0.1249 -0.1994
24826W        W42350  12.436  15.722   3.148 -0.2464  0.0201  0.1952
24827W        W42351  12.718  11.930  14.863 -0.0465 -0.1378 -0.2641
24828W        W42352   0.946   0.232  14.062 -0.1769 -0.1482  0.2376
24829W        W42353  17.704   1.634   2.342 -0.2869  0.1766  0.3798
24830W        W42354   9.079  11.832  13.687 -0.0391  0.0118 -0.3827
24831W        W42355  16.849  15.664   0.093 -0.1118  0.1603 -0.1132
24832W        W42356  14.391  17.717  14.014  0.3180 -0.0753 -0.2544
24833W        W42357   7.520  14.093  15.554  0.0472 -0.0526 -0.1193
24834W        W42358   4.014  15.123  15.760  0.1992  0.3804  0.1460
24835W        W42359  17.348   6.687   1.201  0.0868  0.2921 -0.0535
24836W        W42360   8.279   5.015  11.214  0.1910  0.3047  0.0249
24837W        W42361  10.379  13.011  14.656  0.1557 -0.1071 -0.1967
24838W        W42362   5.337   1.157  15.203  0.0318  0.0614  0.0217
24839W        W42363   8.122  11.320   2.539 -0.1483 -0.0300 -0.2340
24840W        W42364  11.454   0.909  14.863 -0.0237  0.2438 -0.0251
24841W        W42365   0.606   4.789   1.337 -0.1089  0.0438 -0.1369
24842W        W42366  15.215  11.621  15.371 -0.1752 -0.2301  0.0227
24843W        W42367  10.357  13.002  12.910 -0.0572 -0.1990 -0.2071
24844W        W42368  13.120  11.398   0.477  0.3644 -0.2560 -0.0580
24845W        W42369  15.352  13.388  14.918  0.2273  0.0252 -0.1649
24846W        W42370  10.285  16.117   4.870 -0.0107  0.0711  0.1274
24847W        W42371  13.971   4.328  13.154  0.0607  0.0767 -0.1156
24848W        W42372   8.309  14.654  14.942  0.0355  0.2306  0.1347
24849W        W42373   4.436  10.829   5.437 -0.1829  0.0927 -0.3341
24850W        W42374   6.346   9.933  12.441 -0.1538  0.0627  0.0935
24851W        W42375  11.756   7.644   4.492  0.1659  0.1236 -0.2178
24852W        W42376  12.546  16.649  15.283  0.1326  0.0270  0.0873
24853W        W42377   2.534   3.495  14.848 -0.1605 -0.0193 -0.1694
24854W        W42378  17.426   1.135  14.718 -0.0016  0.2419  0.0324
24855W        W42379   7.173   4.457   0.345 -0.3255  0.1474 -0.0545
24856W        W42380  10.053   4.887  15.845  0.0167  0.0982  0.1138
24857W        W42381  14.999   3.790   2.662  0.1562  0.0643  0.0331
24858W        W42382  14.267   5.813  14.999  0.0226  0.0058  0.2313
24859W        W42383   7.733  11.528   3.702  0.1365 -0.0482 -0.2841
24860W        W42384   9.990   3.531  11.945  0.0845 -0.0066 -0.0512
24861W        W42385   2.862   8.706  15.817 -0.2514  0.1829  0.1769
24862W        W42386  17.737   1.172  15.590 -0.2515 -0.3367 -0.1879
24863W        W42387   4.225   3.574   1.754 -0.2873  0.4512  0.0551
24864W        W42388  13.656   8.031   1.235 -0.0934 -0.0492  0.1745
24865W        W42389  18.137   6.385  14.229  0.2256 -0.0922  0.2901
24866W        W42390   4.213   5.826  15.897 -0.0784  0.2912  0.3817
24867W        W42391   5.892  16.249  12.375 -0.3456  0.2213  0.0178
24868W        W42392  16.941  11.067   3.089  0.2501 -0.2296  0.2395
24869W        W42393  10.340   2.760   0.965  0.0378 -0.1308 -0.0146
24870W        W42394   3.183  13.537  10.440 -0.1318  0.2363 -0.2305
24871W        W42395   6.620   0.741   4.862 -0.1580 -0.1466  0.2285
24872W        W42396  16.706  16.795   3.125 -0.1163  0.2023 -0.2345
24873W        W42397   4.529   7.118   3.863 -0.1757  0.0390 -0.1400
24874W        W42398   2.630   4.158  14.185 -0.1135 -0.3013  0.0464
24875W        W42399  16.916  16.149  13.782 -0.0178 -0.1880  0.1613
24876W        W42400  13.940   4.076  14.031  0.0752 -0.0424  0.0910
24877W        W42401  12.880  16.539  13.019  0.0634  0.3306  0.2174
24878W        W42402   8.611   8.073  13.525 -0.1258 -0.0161 -0.1903
24879W        W42403   5.078   2.274  16.000 -0.2299  0.1123 -0.0014
24880W        W42404  12.947  11.931   2.548 -0.0413 -0.1004  0.1084
24881W        W42405   8.191  14.632  12.624 -0.1872  0.0569  0.0830
24882W        W42406  17.493   5.306  15.077 -0.0184 -0.0067  0.1559
24883W        W42407   5.844   2.234  13.915 -0.1259 -0.1292 -0.0110
24884W        W42408   7.612  14.836   2.275  0.3535  0.2448 -0.1024
24885W        W42409  13.243   7.652   1.066 -0.1351 -0.0152  0.0950
24886W        W42410  14.092  10.119  15.564  0.0212 -0.0839  0.1875
24887W        W42411   8.505  11.662  13.579 -0.3705 -0.0453 -0.1733
24888W        W42412   0.801  16.124   4.667 -0.0382  0.2136  0.1128
24889W        W42413   0.850   9.524  11.848  0.2267 -0.1816  0.1078
24890W        W42414  15.606  12.260  12.872  0.0414  0.2571  0.1573
24891W        W42415   4.085   8.607  11.061  0.0347 -0.1587 -0.0500
24892W        W42416  13.647  16.863  15.319  0.0835 -0.0453  0.1089
24893W        W42417  10.929   7.618  14.633 -0.0035  0.4746  0.0428
24894W        W42418   5.899   8.860  13.949 -0.1195 -0.3136 -0.0906
24895W        W42419  15.467   1.504  10.675  0.2303  0.1546 -0.0765
24896W        W42420  10.556   6.324  12.767 -0.1629 -0.1315 -0.1313
24897W        W42421  14.565   3.712  12.547 -0.0064  0.0409  0.0834
24898W        W42422   7.484  15.207  11.830  0.1366 -0.1104  0.3210
24899W        W42423   9.206   5.739  14.792  0.1121 -0.1654 -0.2604
24900W        W42424   1.892   2.680  11.511  0.2480 -0.1791 -0.0677
24901W        W42425   9.082   1.926   0.051  0.3357  0.3121  0.1716
24902W        W42426  10.298   6.849   5.073 -0.0553  0.0625 -0.2036
24903W        W42427   1.701   8.241   0.417  0.0521 -0.0385 -0.0723
24904W        W42428   5.295   3.472  13.875  0.0364 -0.0535  0.1169
24905W        W42429   2.918  10.005  15.398  0.0095  0.1996 -0.3043
24906W        W42430   1.789  12.574  13.504 -0.0874 -0.0609  0.3396
24907W        W42431   2.436   1.493  14.842  0.0851  0.2131  0.1542
24908W        W42432  17.464   5.372   4.691 -0.3905 -0.2254  0.0249
24909W        W42433   4.194  11.382  11.451  0.0196  0.2204 -0.0029
24910W        W42434   7.367  15.701   0.111 -0.5022 -0.1342 -0.0224
24911W        W42435   8.499   0.311   1.359 -0.1552 -0.4369  0.0972
24912W        W42436   8.025   3.248  13.194  0.3028 -0.1379 -0.1448
24913W        W42437  13.849   7.663   2.701  0.1055 -0.0569  0.1180
24914W        W42438   3.019  17.888  11.068 -0.0652  0.0679  0.0653
24915W        W42439   4.378  11.878   1.558 -0.2583 -0.0654 -0.1947
24916W        W42440  11.629   4.730  16.054 -0.2525 -0.1256  0.1026
24917W        W42441   2.549  11.176  14.345  0.0990 -0.2770 -0.3040
24918W        W42442  17.281   5.523   3.487 -0.2694  0.0983 -0.0155
24919W        W42443  10.583   9.054   2.827 -0.0419  0.0678  0.0167
24920W        W42444   5.512  11.930   3.593  0.0170  0.1809 -0.0096
24921W        W42445   4.526  13.851  10.872  0.1529 -0.0479  0.1754
24922W        W42446  12.920   2.516  14.265 -0.2744  0.1907 -0.0556
24923W        W42447   2.211   0.125   4.252  0.1010 -0.1840  0.2687
24924W        W42448  14.854   0.175   0.324 -0.2636  0.0648  0.2751
24925W        W42449  13.553  11.623  12.680 -0.2413  0.0276 -0.1937
24926W        W42450   6.939  12.578  15.927 -0.3808 -0.1234 -0.0641
24927W        W42451   1.035   0.316   1.671 -0.3264  0.1517 -0.1854
24928W        W42452  13.915   3.018  12.986  0.1127 -0.1392 -0.0374
24929W        W42453   3.900  15.657  10.808 -0.0578 -0.0498  0.0644
24930W        W42454  13.785   2.562   1.279 -0.4099  0.0455  0.1693
24931W        W42455  17.324  12.492  15.928  0.0075 -0.3758  0.1802
24932W        W42456   1.612   6.168  13.817  0.2215 -0.2255  0.0984
24933W        W42457   7.535   4.829  14.964  0.0299 -0.0382  0.2699
24934W        W42458   3.547   7.272   2.451 -0.2496 -0.2686 -0.2100
24935W        W42459  15.571  10.903   2.998  0.0145 -0.5144  0.1055
24936W        W42460   4.966  18.077   2.911 -0.0911 -0.1610 -0.0759
24937W        W42461   4.379  16.082  14.481  0.0581 -0.1570  0.0706
24938W        W42462  16.149   0.351  12.219  0.0743  0.1308 -0.1971
24939W        W42463   4.416   9.950   3.434  0.2177 -0.0493  0.0161
24940W        W42464  16.268   4.599  12.091 -0.1516  0.0387  0.2499
24941W        W42465  14.142  10.100  15.080 -0.4510  0.2140  0.2139
24942W        W42466   4.750  10.108  11.694 -0.1611  0.1083 -0.1060
24943W        W42467   1.055   4.548  14.493 -0.0015 -0.0562  0.1329
24944W        W42468  15.833   0.819   5.225 -0.2269 -0.0750 -0.1208
24945W        W42469  11.759   9.471  13.869  0.2011  0.0574 -0.2098
24946W        W42470  11.798   5.584  12.399 -0.0872  0.1214  0.0545
24947W        W42471   7.843   9.682  13.177 -0.0353 -0.0907  0.2242
24948W        W42472   4.667   5.647   0.904 -0.2210  0.1430  0.3174
24949W        W42473  12.473  15.980  15.774  0.0825 -0.2424  0.0254
24950W        W42474   1.855   7.232   1.951 -0.2769 -0.0003 -0.1202
24951W        W42475  11.084  11.947   5.855  0.2855  0.1205 -0.2221
24952W        W42476   6.531   4.279  11.008 -0.1414  0.0179 -0.1254
24953W        W42477  10.624   6.246   0.003  0.0504 -0.0699  0.0166
24954W        W42478   7.386  12.943   4.804  0.0698  0.1461  0.0451
24955W        W42479   8.371  13.600   0.128 -0.1116 -0.0689 -0.0628
24956W        W42480  14.491   7.176  13.280 -0.0104 -0.2264  0.1465
24957W        W42481   5.727   9.679  12.549 -0.1242  0.1229 -0.1108
24958W        W42482   5.145   8.937  11.991 -0.2670 -0.0141  0.0272
24959W        W42483  12.268   4.232   2.597  0.2532  0.2185  0.1485
24960W        W42484  17.237   9.908   5.377  0.0037  0.3245 -0.1555
24961W        W42485  17.080   7.958   4.491  0.1700  0.0532 -0.2227
24962W        W42486   0.285  17.083   4.867  0.0930 -0.0143  0.2042
24963W        W42487   1.385  12.151   4.050 -0.1067 -0.1352  0.0513
24964W        W42488   0.337   2.293  12.823 -0.0782  0.1037 -0.0854
24965W        W42489   2.841  17.495  13.209  0.0082 -0.1241 -0.1064
24966W        W42490   0.028   6.993  11.243  0.0089  0.1705  0.2199
24967W        W42491  10.570   0.150   1.649 -0.0545 -0.2140 -0.0077
24968W        W42492  10.591   4.083   3.388  0.2400  0.1673 -0.1238
24969W        W42493  18.131  12.972   4.232  0.2178  0.3024  0.2192
24970W        W42494  12.358  16.470   0.491 -0.0755  0.1270 -0.3738
24971W        W42495   4.982   8.939  13.374 -0.1073  0.0939 -0.4243
24972W        W42496  10.911   1.006  14.780  0.0838  0.1675 -0.0146
24973W        W42497  14.517   8.115   1.585  0.1084 -0.1241 -0.0587
24974W        W42498   6.709   3.101  14.540 -0.0879 -0.1347  0.2407
24975W        W42499  16.393   2.106   5.476  0.1504  0.1225 -0.1708
24976W        W42500   8.822  12.670   4.118  0.0718  0.2268  0.0226
24977W        W42501  12.103   1.169   2.807  0.0209  0.0607 -0.1743
24978W        W42502   3.894   9.541  11.521 -0.1477 -0.3011  0.2116
24979W        W42503  12.647  15.414  15.000  0.1447  0.2017  0.0266
24980W        W42504   1.731   1.752   3.726  0.3108  0.0345  0.0633
24981W        W42505   8.238   5.795  12.068  0.1364  0.2244  0.0600
24982W        W42506   5.592   9.478   0.406  0.2728  0.1258 -0.0865
24983W        W42507  12.459   1.419  12.823  0.1726 -0.2093  0.5160
24984W        W42508  10.984   0.987  15.290 -0.1005 -0.0166 -0.1045
24985W        W42509   7.223  14.484  15.841 -0.0708  0.0195 -0.1225
24986W        W42510   6.600   1.508   1.875  0.2173  0.3023 -0.0108
24987W        W42511   3.171   5.131   2.145  0.1263 -0.1133  0.0339
24988W        W42512  16.022  11.689   3.549  0.0902 -0.0196 -0.4220
24989W        W42513  16.938  17.074  12.213 -0.1491 -0.0533  0.2594
24990W        W42514   3.210   3.653   2.087  0.0518 -0.0265 -0.2328
24991W        W42515  14.293   5.184  13.442  0.0450 -0.0732  0.2141
24992W        W42516   0.607  17.178  14.979  0.0862  0.3217  0.0499
24993W        W42517  14.398   2.016  15.965  0.1270  0.0172  0.1210
24994W        W42518   8.171   7.946  13.191  0.0894  0.2245 -0.0302
24995W        W42519   6.981   2.447  15.467  0.0046 -0.2219  0.2355
24996W        W42520   3.996  11.624  15.344 -0.1549  0.0338 -0.1010
24997W        W42521   7.558  13.053  12.431  0.1615 -0.1062 -0.0558
24998W        W42522   3.757  17.011  12.845  0.0349 -0.0463 -0.0210
24999W        W42523  15.994  17.081  11.167 -0.1644 -0.2101  0.0307
25000W        W42524   9.638   3.131  11.832 -0.4198  0.1229  0.0142
25001W        W42525  17.891  12.349   3.274 -0.1191 -0.0672  0.0513
25002W        W42526   5.698  12.195   3.169 -0.0134 -0.1443  0.0119
25003W        W42527   7.005   8.766   3.991  0.3319  0.2953  0.0896
25004W        W42528   6.914  16.359  15.560  0.1701  0.1550 -0.2524
25005W        W42529   1.006  10.000   2.366  0.0084 -0.2496 -0.3233
25006W        W42530   3.385  15.119   3.467  0.1242 -0.0741  0.0224
25007W        W42531   1.896   3.285  13.743  0.1234  0.0848  0.0180
25008W        W42532  17.901   7.167   3.375  0.0269 -0.1325 -0.0499
25009W        W42533   5.999  17.682  12.650 -0.0105 -0.2872 -0.1862
25010W        W42534  11.471  14.300   1.884  0.0133  0.1088  0.2021
25011W        W42535  16.248  17.715  13.248  0.0335 -0.2319 -0.0470
25012W        W42536   2.498   0.669  13.905  0.0421  0.1110  0.0011
25013W        W42537   8.566   5.342   2.878  0.1954  0.1732  0.3256
25014W        W42538  13.477   6.831  13.041 -0.1987 -0.0020 -0.2031
25015W        W42539   6.924  14.094   3.059  0.1035  0.1490 -0.1230
25016W        W42540  15.956  14.954   0.991 -0.1512  0.0554 -0.3260
25017W        W42541   3.963   9.961  10.554  0.2170 -0.3478  0.0709
25018W        W42542  13.589   2.365  13.743  0.0248 -0.0702 -0.0778
25019W        W42543   7.090  16.729   4.189  0.0904 -0.0162 -0.3672
25020W        W42544  10.597   1.225   3.515 -0.0786 -0.0505  0.0986
25021W        W42545   6.186  13.261  14.924 -0.1376 -0.0366 -0.2313
25022W        W42546   1.326  10.135  12.778 -0.0831 -0.2434  0.1675
25023W        W42547  16.823  13.629   5.100  0.1103 -0.1547 -0.1631
25024W        W42548  16.312   3.545   4.996  0.0481 -0.0154 -0.0703
25025W        W42549   3.420  12.573   4.329 -0.3465 -0.1289  0.0335
25026W        W42550   3.343   1.318  13.232  0.1178  0.0366 -0.1599
25027W        W42551   9.604   6.328  13.692  0.4177  0.0820 -0.0692
25028W        W42552   1.401  16.525  11.787 -0.0627  0.0410 -0.1131
25029W        W42553   1.429   3.999  13.809  0.2194  0.1088 -0.0184
25030W        W42554   2.312   6.164   4.630  0.1626  0.3764 -0.2347
25031W        W42555   9.556   9.462  14.121 -0.2777  0.0294 -0.3157
25032W        W42556   9.338   7.454  13.505  0.1091  0.0643  0.0599
25033W        W42557  16.988  10.209  15.999  0.0010  0.0332 -0.0620
25034W        W42558   0.851  10.650  12.565 -0.2165  0.0477 -0.2145
25035W        W42559   1.327   7.954  13.368 -0.2114 -0.2737 -0.1523
25036W        W42560  10.771   7.634  12.994 -0.1155  0.1541  0.0349
25037W        W42561  13.499  10.595  14.361  0.0654 -0.1864  0.0988
25038W        W42562   6.901   9.999   0.739 -0.1530  0.1311 -0.1468
25039W        W42563   1.737   3.447   3.515 -0.1249 -0.1562  0.0493
25040W        W42564   0.528   6.947   1.549 -0.0317 -0.3046 -0.1984
25041W        W42565   1.543  14.652  15.212 -0.1969 -0.3856  0.0596
25042W        W42566  16.804   7.550   2.568 -0.2867 -0.0274  0.0605
25043W        W42567   7.095   0.680  12.281  0.1847 -0.1322 -0.1088
25044W        W42568   5.902   4.475  12.494  0.0005 -0.1373  0.3258
25045W        W42569  12.531   5.795   3.363 -0.4392  0.0879 -0.1598
25046W        W42570  16.518  15.109  13.723 -0.1417  0.1074 -0.1784
25047W        W42571  11.645   3.288   0.196  0.3177  0.1339  0.0937
25048W        W42572   6.794  13.490   2.192  0.2009  0.0853 -0.0940
25049W        W42573  12.725   2.249  11.645 -0.0481  0.1223  0.0816
25050W        W42574  11.996   1.752  12.592  0.0140 -0.1545 -0.1963
25051W        W42575  10.608  18.115  12.850  0.0016  0.1112 -0.2851
25052W        W42576  12.963   2.525  12.980 -0.2367 -0.1544  0.1604
25053W        W42577  16.890  14.051  12.414 -0.0860  0.4219 -0.0230
25054W        W42578   4.130   8.596   4.770 -0.1617 -0.3696  0.0539
25055W        W42579  12.560   9.291  15.351  0.2655 -0.0145  0.1278
25056W        W42580   6.531  12.824   0.064 -0.0853 -0.3639 -0.2042
25057W        W42581   9.184  15.672  13.733  0.0681 -0.0205 -0.1367
25058W        W42582   8.179  16.871  13.748  0.0248  0.2239 -0.1405
25059W        W42583   1.708  11.721  15.734  0.1299 -0.1830 -0.2779
25060W        W42584  10.540   2.003   3.497  0.0642  0.2889 -0.1363
25061W        W42585   1.062  13.878  14.047  0.0194 -0.0438 -0.1263
25062W        W42586   2.462   7.709   0.762 -0.1886 -0.1525  0.2833
25063W        W42587   6.041   5.678   0.222 -0.0501 -0.0894  0.1379
25064W        W42588   8.154   4.783   5.244  0.1232  0.1829 -0.0901
25065W        W42589   1.339   9.962  14.092  0.0234 -0.1784 -0.0787
25066W        W42590   5.469   5.916   0.273 -0.1574  0.0342 -0.2232
25067W        W42591  12.156   8.687  14.426 -0.1993 -0.0123  0.3035
25068W        W42592   7.605  15.503   1.587  0.1830  0.3348  0.1361
25069W        W42593  16.791  16.677   1.394 -0.0764  0.0681 -0.0833
25070W        W42594  16.272   5.470  10.524  0.0382  0.2409  0.0819
25071W        W42595  10.495   5.814   1.564 -0.0207 -0.1184  0.4282
25072W        W42596   6.369  12.216  13.247 -0.1200  0.2524  0.3583
25073W        W42597  15.846  14.858   4.998 -0.1626 -0.0481 -0.0085
25074W        W42598   0.792  11.269   0.654 -0.0201 -0.2031 -0.1781
25075W        W42599   6.282   2.875   1.889 -0.0137 -0.0469  0.1302
25076W        W42600  12.505  10.789  15.175  0.1999  0.0496 -0.0932
25077W        W42601  10.887  10.956  13.518  0.0929  0.2174  0.0943
25078W        W42602  17.359  16.502  12.908  0.2241  0.2619  0.0337
25079W        W42603  14.473   6.832   2.743  0.1444  0.2725  0.1051
25080W        W42604   6.558   9.057   1.246 -0.1626 -0.3381  0.1444
25081W        W42605  15.528  17.670   4.728  0.0418  0.1285 -0.2101
25082W        W42606  13.448   3.116  15.395 -0.1761  0.0304  0.3049
25083W        W42607   6.163   1.409  12.248  0.3450 -0.3844  0.0687
25084W        W42608   5.762   8.825  15.789  0.3420 -0.2649  0.2438
25085W        W42609   1.858  12.063   0.957  0.0988  0.1017  0.1262
25086W        W42610   0.792  16.736   1.859 -0.2869 -0.3624  0.1431
25087W        W42611  14.450   9.929   1.634 -0.1098  0.0895 -0.3825
25088W        W42612  17.715  10.515   4.989  0.1074  0.1182  0.0362
25089W        W42613  14.978   3.495  10.741  0.0763 -0.2724  0.0371
25090W        W42614   6.879   8.879  14.070 -0.0930 -0.0546 -0.1835
25091W        W42615  12.352  13.330   2.909  0.1206  0.3615  0.2417
25092W        W42616  14.742   7.238  15.208 -0.1016 -0.3119 -0.1680
25093W        W42617  12.864   2.242   4.582  0.0254 -0.5379  0.2306
25094W        W42618   8.377  12.005   3.723  0.0916 -0.0746  0.1358
25095W        W42619  15.969  13.441   4.346  0.0845 -0.3953 -0.0696
25096W        W42620   3.524  17.992   4.455  0.1059  0.0822 -0.2599
25097W        W42621   2.105  17.502   1.404 -0.0764  0.1647 -0.0271
25098W        W42622   7.097  11.296  11.667 -0.1309  0.4119  0.2110
25099W        W42623   9.285  15.143   4.330  0.0602  0.0048  0.3469
25100W        W42624   3.501   0.196  14.507 -0.0527  0.0852 -0.1164
25101W        W42625  15.864   1.943  12.870 -0.1667  0.0911  0.1277
25102W        W42626  17.056  17.101   2.281  0.2077  0.3973 -0.0609
25103W        W42627  16.444   3.874   0.092  0.1668  0.1695  0.0922
25104W        W42628   6.753   3.549   0.960 -0.0076  0.3004  0.0791
25105W        W42629  11.773  15.825   4.189 -0.0306  0.3133 -0.1330
25106W        W42630  11.200   4.463  13.053  0.0997  0.2681  0.0318
25107W        W42631  11.917   9.833   4.767  0.3994  0.2870  0.1419
25108W        W42632   4.383   2.325   4.108  0.1755 -0.0640 -0.0516
25109W        W42633  13.826  16.657  14.891 -0.0460  0.1529 -0.0777
25110W        W42634  12.565   0.064  14.344 -0.0436  0.0426 -0.1034
25111W        W42635   1.564  17.056  12.747  0.1961 -0.2724  0.0054
25112W        W42636   9.680  13.442  11.202  0.1948 -0.1357 -0.1252
25113W        W42637   0.580  15.976  12.117  0.0368 -0.0090  0.2001
25114W        W42638   7.343   7.259  14.588 -0.1927  0.3952 -0.1996
25115W        W42639  15.725  13.441   3.844 -0.1687  0.6037 -0.0800
25116W        W42640  13.177  13.792  11.951 -0.1353 -0.1085 -0.0533
25117W        W42641  12.933   6.439  12.583  0.1038  0.1299 -0.0436
25118W        W42642   2.883   4.189   1.992 -0.0889  0.0420  0.1294
25119W        W42643  14.337   7.363  15.483 -0.1576 -0.0498  0.1855
25120W        W42644  16.057   5.614   3.814  0.1609  0.5370  0.1443
25121W        W42645   1.499  11.346   4.494  0.1865 -0.2022  0.0760
25122W        W42646  17.195  15.346  14.719 -0.0708  0.1119  0.1235
25123W        W42647   5.726   1.858   0.663 -0.1212  0.1292 -0.1846
25124W        W42648   6.719   7.457  15.023  0.1889  0.0305 -0.0108
25125W        W42649   5.376   4.850  11.990  0.2247  0.2309  0.1044
25126W        W42650   4.168  11.232  11.978 -0.0303  0.2143 -0.1093
25127W        W42651  11.648   6.010  11.295 -0.1251  0.1191  0.0184
25128W        W42652  13.126   7.376  15.857 -0.4355 -0.3076  0.3762
25129W        W42653   3.192   0.642   1.890  0.1670 -0.1982 -0.4122
25130W        W42654   3.476  12.311  16.056  0.0082 -0.0174 -0.0829
25131W        W42655   8.864   8.727  15.982 -0.2796  0.0905  0.1229
25132W        W42656  16.177   1.517   0.790 -0.3202  0.0097  0.2227
25133W        W42657   7.167  15.779   2.495 -0.0624 -0.0478  0.2634
25134W        W42658  17.437   5.866   1.035  0.0632  0.3525  0.0682
25135W        W42659   8.483   4.637  15.217  0.1961 -0.2850  0.0219
25136W        W42660  11.896  10.290  12.651 -0.2571  0.0186  0.0586
25137W        W42661   7.989  15.726   0.606  0.0755 -0.0105  0.0482
25138W        W42662  17.908  12.938  11.505  0.1944  0.2326  0.1185
25139W        W42663   5.252   2.176   0.877  0.3140  0.0684 -0.1925
25140W        W42664  11.908   5.083  15.867  0.1612  0.2397 -0.1131
25141W        W42665   2.383  11.053   4.797 -0.0984  0.2080 -0.1739
25142W        W42666  16.931   2.068   2.142  0.1911  0.1145  0.1679
25143W        W42667   9.726   0.648  14.424  0.0303  0.1229  0.0039
25144W        W42668  15.197  14.636  15.407 -0.0301  0.1879 -0.0570
25145W        W42669  11.706   3.365  14.268 -0.1677 -0.0572 -0.0091
25146W        W42670  10.402  11.414  12.101  0.0790  0.1299 -0.0015
25147W        W42671   9.991  18.001  10.941 -0.1062 -0.2535 -0.2696
25148W        W42672  17.577   9.009  14.905  0.1305  0.0372 -0.1434
25149W        W42673   4.615   6.678   5.592  0.0246  0.1072 -0.1920
25150W        W42674  16.498   6.329   3.071  0.0124  0.0342 -0.0146
25151W        W42675   9.626  13.538   1.780  0.0764  0.0803  0.1943
25152W        W42676  12.470   9.044  13.275 -0.0824  0.0386 -0.3252
25153W        W42677   5.484   0.709  15.301  0.0664  0.1276 -0.1160
25154W        W42678  17.452   0.065   0.087 -0.1125 -0.0251 -0.1010
25155W        W42679   5.334  12.416  15.578 -0.1311  0.1564  0.1240
25156W        W42680   8.358  14.992   1.865  0.1991 -0.1867 -0.2720
25157W        W42681   1.086   5.309   3.765  0.3738 -0.2923  0.0368
25158W        W42682  10.330   9.172  14.393  0.0029  0.2524 -0.1693
25159W        W42683   1.855   4.596  14.943  0.0406  0.1142 -0.0084
25160W        W42684   4.086  17.682  15.403  0.0244 -0.2683  0.3007
25161W        W42685  11.687   6.521   3.679 -0.0599 -0.0060  0.2887
25162W        W42686  10.496  15.744   0.739  0.0009  0.4651  0.1786
25163W        W42687  10.705  14.943  15.357 -0.0862  0.0264  0.1731
25164W        W42688  10.453   0.688   4.391  0.0613 -0.0247 -0.1313
25165W        W42689   2.655   9.553  15.197 -0.0202 -0.0300  0.2474
25166W        W42690  12.924  17.134   0.159  0.2234 -0.1430 -0.0779
25167W        W42691  11.330  17.491   2.473 -0.0990 -0.1661  0.0925
25168W        W42692   8.473  10.922   0.800 -0.1812 -0.1421  0.1072
25169W        W42693  11.610  14.456   0.124  0.0043  0.0937 -0.0075
25170W        W42694  13.191   4.784  11.149 -0.0831 -0.0476 -0.0063
25171W        W42695   6.743   7.596   1.100 -0.0791 -0.0352  0.0760
25172W        W42696   7.789   7.094  12.488 -0.3356 -0.3115  0.0250
25173W        W42697  11.827   4.869  13.405 -0.2434  0.3738 -0.1987
25174W        W42698   6.233  14.242   4.862  0.1423  0.0262  0.0019
25175W        W42699   9.254  11.970   3.969  0.2373  0.1964  0.1039
25176W        W42700   5.010  15.334   3.826 -0.2474  0.0782  0.2766
25177W        W42701  12.022  11.993   0.927 -0.2739 -0.1211 -0.0028
25178W        W42702  10.318  13.067   3.802  0.0503 -0.0943  0.2757
25179W        W42703   7.533   9.845   3.233 -0.0792  0.0011  0.0956
25180W        W42704  12.551   2.375   2.975  0.2289  0.0992  0.0844
25181W        W42705  12.147   5.493   4.413  0.0492 -0.1743  0.1659
25182W        W42706   9.341   3.218  15.341  0.0173 -0.1107  0.0461
25183W        W42707   7.750  17.183  15.686  0.1026 -0.0005 -0.0016
25184W        W42708  10.598   0.040  14.701 -0.0542 -0.7732  0.0720
25185W        W42709   8.504   4.728  15.757 -0.0112  0.2074  0.2944
25186W        W42710   7.379  11.750  13.913  0.0516 -0.0369  0.0771
25187W        W42711  10.697   0.165   0.604 -0.1923 -0.0929 -0.0483
25188W        W42712   9.870   4.171   0.375 -0.0202 -0.0131  0.1150
25189W        W42713  13.836   0.952   1.961  0.2022 -0.0089  0.3147
25190W        W42714  11.021   3.027  11.791  0.0351 -0.1871  0.0501
25191W        W42715   2.033   1.150   6.016 -0.1893  0.1203 -0.2596
25192W        W42716   9.028  11.323  11.770  0.0553  0.0165 -0.0692
25193W        W42717  17.361  16.656   2.218  0.3635 -0.2578  0.1725
25194W        W42718   9.705   8.977   4.200  0.3177 -0.2461  0.3022
25195W        W42719  10.096   7.675   4.070  0.1774  0.0230 -0.0851
25196W        W42720   6.499   5.891   3.502  0.1943 -0.0437  0.0207
25197W        W42721   1.990   1.124  13.239 -0.2208  0.0097 -0.0089
25198W        W42722  16.852   0.630  12.936  0.4918 -0.1056 -0.2369
25199W        W42723   5.053   8.940   1.045 -0.0219  0.0433  0.4558
25200W        W42724  11.335  15.195  12.587  0.1031 -0.2413  0.2555
25201W        W42725   7.809   4.382   5.309 -0.1114 -0.1769 -0.3274
25202W        W42726   8.436   2.284  14.707  0.0600  0.1675 -0.1875
25203W        W42727   6.229  10.803  13.107  0.0067  0.0654 -0.0881
25204W        W42728  13.681  11.272  10.713 -0.0414 -0.1528 -0.2294
25205W        W42729   5.172   3.783   3.681  0.0477 -0.1891  0.1999
25206W        W42730  13.857  13.582   4.866  0.1963  0.1225  0.2878
25207W        W42731   3.981   9.749   1.295  0.3457  0.0140 -0.4277
25208W        W42732   6.073   4.571  14.974 -0.1031  0.2224 -0.1601
25209W        W42733   0.924   3.853   2.077 -0.1216  0.0801 -0.1673
25210W        W42734   5.396  16.521   1.522 -0.2232  0.1582 -0.0876
25211W        W42735   9.024   4.746  15.836 -0.0840 -0.0143 -0.1925
25212W        W42736   9.477  13.303   3.720  0.2461  0.3460  0.1213
25213W        W42737   6.940   4.949   1.514  0.1473 -0.1869 -0.0403
25214W        W42738  13.753  13.970   4.597  0.0081  0.1565 -0.0053
25215W        W42739   4.729  12.133   2.070 -0.2133 -0.1114 -0.1068
25216W        W42740   2.807  13.445  12.805  0.0557 -0.2499  0.3298
25217W        W42741   8.810  17.877   2.521  0.2647  0.0303 -0.0497
25218W        W42742  10.131  16.481  15.135  0.0248  0.0755 -0.2152
25219W        W42743   3.495   0.138  12.906 -0.5051 -0.0063  0.1606
25220W        W42744  12.962   9.670  12.577  0.0912  0.3229 -0.3562
25221W        W42745   2.705  17.956  13.140  0.0500  0.0199  0.0417
25222W        W42746   0.176   7.641   1.337  0.0266  0.0033  0.0714
25223W        W42747   4.499  14.715   0.305 -0.0011 -0.0315 -0.2168
25224W        W42748  12.295   6.747  12.962 -0.0536  0.1634 -0.0995
25225W        W42749   8.048  17.836   3.715  0.3034 -0.0438 -0.0430
25226W        W42750   0.593  10.434   1.899 -0.1021 -0.0195  0.2140
25227W        W42751  16.257   8.023   2.031  0.0320  0.3606  0.3453
25228W        W42752  13.430   1.568   3.644 -0.0238 -0.1581 -0.2279
25229W        W42753   2.736   1.456   0.552  0.3769 -0.1304  0.2623
25230W        W42754  10.739  12.264   4.049 -0.1855  0.0140  0.3514
25231W        W42755   6.536   2.340   3.185  0.1384  0.2017 -0.0210
25232W        W42756  14.680  14.575   4.850 -0.0363  0.0281 -0.1586
25233W        W42757   4.579   1.358  13.709 -0.0032 -0.0063 -0.1682
25234W        W42758   7.528  17.308  11.724  0.1832 -0.2489 -0.1895
25235W        W42759  16.441   9.429  12.537 -0.0046  0.1081  0.1982
25236W        W42760   4.376   4.198  15.993 -0.0993  0.1611  0.1708
25237W        W42761  14.771   2.494   3.081  0.3227 -0.1167  0.1679
25238W        W42762   3.891  14.606   4.323 -0.4040 -0.0905 -0.0423
25239W        W42763   3.717   4.620   3.314 -0.0407 -0.1536  0.0045
25240W        W42764   4.944  11.759  13.007  0.0616 -0.0733  0.3651
25241W        W42765   7.234  14.869  12.182  0.1546  0.0510 -0.1263
25242W        W42766  10.883  10.611   1.494  0.0118 -0.2299  0.1092
25243W        W42767  16.745   2.540   4.029  0.2376  0.0039 -0.1022
25244W        W42768   5.918   6.036   1.025  0.2111  0.0911  0.1608
25245W        W42769   8.041  11.002  14.688 -0.3344  0.1170 -0.0810
25246W        W42770   5.083  14.557  12.745  0.0336 -0.0668 -0.1232
25247W        W42771   7.328   3.755  10.367  0.2047 -0.3604 -0.0414
25248W        W42772   8.450   6.605   3.308 -0.1097  0.1651  0.0810
25249W        W42773   5.733   0.365   0.012 -0.4516 -0.0256 -0.3524
25250W        W42774   5.898  14.471  11.863 -0.0698 -0.2889  0.0576
25251W        W42775   2.675   4.469  10.516  0.1814 -0.0664  0.1956
25252W        W42776   1.835  15.719   3.232 -0.2464  0.1416 -0.3124
25253W        W42777   9.959  11.476  14.512 -0.1371  0.1824  0.2194
25254W        W42778   3.798  11.093  15.272 -0.1389  0.0372  0.3479
25255W        W42779   4.542  17.858   4.883 -0.3133 -0.1551  0.1299
25256W        W42780   6.512  10.149   4.102  0.2145 -0.1830 -0.3003
25257W        W42781   4.297  15.328  11.131 -0.1505 -0.0972  0.0339
25258W        W42782   3.424  12.154  10.577  0.1002 -0.0078  0.3341
25259W        W42783   6.607   1.723  12.349 -0.3299 -0.1128  0.0047
25260W        W42784   9.666  13.394   0.331 -0.0835 -0.1340 -0.1190
25261W        W42785  12.947   1.444   0.132 -0.1943  0.1614 -0.0643
25262W        W42786  17.098  14.328  14.116  0.0959 -0.0062 -0.0029
25263W        W42787   6.095   8.791   1.269 -0.0444 -0.0290  0.0391
25264W        W42788   0.807   3.347  12.265  0.1787 -0.0950 -0.3011
25265W        W42789  13.055   6.131  11.116  0.0251 -0.0198 -0.2311
25266W        W42790   3.784  11.619  14.891 -0.0434  0.2836 -0.0981
25267W        W42791  10.423   3.611   1.315 -0.0471  0.1613 -0.5366
25268W        W42792   9.948  12.466  12.297 -0.0849  0.3142  0.2797
25269W        W42793   8.027  12.005   1.231 -0.1555  0.2912  0.1488
25270W        W42794   9.120  11.972   1.419 -0.2561 -0.0349 -0.4675
25271W        W42795   4.816   6.962   1.205 -0.0221  0.0797 -0.1688
25272W        W42796   6.065   8.433  15.697 -0.1374 -0.3687 -0.0066
25273W        W42797  15.662   4.613   2.980  0.2048 -0.0762  0.2752
25274W        W42798   2.564  16.833  13.609 -0.0396  0.0391  0.0718
25275W        W42799  17.901   4.290   2.803  0.2964 -0.0475  0.2475
25276W        W42800   9.870  17.134  11.006  0.0615  0.1593 -0.0414
25277W        W42801  12.821   9.813   3.398 -0.2352  0.1605 -0.0041
25278W        W42802   8.016   2.695  13.253  0.3098  0.1812  0.2869
25279W        W42803   3.087  15.966  11.826  0.0084  0.2631  0.0150
25280W        W42804   9.177  12.891  12.969 -0.0256  0.1532  0.1164
25281W        W42805  17.177   2.161   1.058 -0.4173 -0.0934  0.2308
25282W        W42806   1.742  17.327   1.756  0.3542  0.0426 -0.2020
25283W        W42807   1.749   8.902   5.812  0.2200 -0.1896 -0.3814
25284W        W42808   8.627   2.246   3.279  0.2448  0.3219  0.0882
25285W        W42809   2.202  18.042   2.920 -0.0745  0.0460  0.0955
25286W        W42810   3.664  11.412   5.108 -0.3547  0.1638 -0.0341
25287W        W42811  11.150  12.409  13.698 -0.1114 -0.3044  0.1360
25288W        W42812  18.110   9.657  11.523 -0.0231  0.1630 -0.1749
25289W        W42813   4.587   4.493   0.747  0.0082 -0.4150 -0.1329
25290W        W42814  11.893   4.931  13.971  0.0236 -0.3793 -0.0634
25291W        W42815  10.145   2.257   0.924  0.1057  0.1390 -0.1068
25292W        W42816   9.784  14.378   4.812 -0.2035  0.0127 -0.1599
25293W        W42817   9.906   3.680  10.330  0.0543 -0.2567  0.0504
25294W        W42818   3.996   4.904   0.399 -0.1645  0.0135 -0.2411
25295W        W42819  12.041  13.284   0.403  0.0053 -0.1134  0.1328
25296W        W42820  13.585  17.357   3.548 -0.2101  0.1317  0.1642
25297W        W42821   5.673   6.868   4.956  0.0006 -0.1422 -0.1476
25298W        W42822   2.703   2.687  11.979 -0.0881 -0.4041  0.1800
25299W        W42823   9.834  12.391   4.734 -0.1204 -0.0073 -0.0438
25300W        W42824   9.979  11.526  15.698 -0.3594 -0.0940 -0.1282
25301W        W42825  16.804   7.835  15.282  0.0150 -0.0564  0.0297
25302W        W42826  11.792   1.494   3.460 -0.1054  0.3388  0.3603
25303W        W42827  15.915  15.702   4.337  0.0146 -0.3523 -0.0043
25304W        W42828   4.652   1.373  13.050  0.3202  0.3348 -0.1961
25305W        W42829   5.697   5.781   2.998  0.3460  0.0667 -0.4295
25306W        W42830   2.869   9.650  11.454  0.0900  0.0140 -0.0078
25307W        W42831   7.511   7.447  15.979  0.2828  0.2813 -0.1212
25308W        W42832   5.115  15.856  13.549 -0.1713  0.0417 -0.2918
25309W        W42833  17.076  11.060  15.648  0.1186 -0.0661  0.1388
25310W        W42834  15.737   2.037  13.574  0.3095 -0.3317  0.0816
25311W        W42835   0.947  10.744   2.071 -0.3034 -0.0705 -0.1097
25312W        W42836   4.444   5.494   2.572  0.0334 -0.1001  0.2120
25313W        W42837  10.681  16.930   5.060 -0.2964 -0.2114 -0.1305
25314W        W42838   3.484  11.581   3.222 -0.5855 -0.0924  0.1293
25315W        W42839   0.801  12.782   4.726  0.1767 -0.1469  0.0168
25316W        W42840   6.936  15.848   3.351 -0.1190  0.1507 -0.2189
25317W        W42841   9.453  11.976  12.798 -0.2869  0.0766  0.0415
25318W        W42842   3.077   6.014   3.612  0.1195  0.1136  0.1411
25319W        W42843  15.872  11.780   4.871  0.0787  0.2483 -0.1917
25320W        W42844   3.844   6.168   3.926  0.2498  0.0647 -0.3550
25321W        W42845  12.099  14.221   4.846  0.1633  0.1388 -0.1112
25322W        W42846  15.245   3.204  12.059  0.0938 -0.0870  0.1083
25323W        W42847  11.351  10.085   0.563 -0.0196  0.0783 -0.2693
25324W        W42848   5.861   1.616   2.965  0.0605 -0.0119  0.1699
25325W        W42849  15.727  11.156  12.134 -0.2076  0.0058  0.0533
25326W        W42850  10.896   2.852  10.326 -0.3547 -0.2218 -0.1720
25327W        W42851  10.797  18.066   3.886 -0.0101  0.0573 -0.1318
25328W        W42852   4.859   6.759  10.982 -0.1680  0.1773  0.0175
25329W        W42853   7.788  13.411   2.173 -0.0203  0.0391  0.0622
25330W        W42854  14.642  15.104  12.434  0.1899  0.0439 -0.2369
25331W        W42855  13.364   8.147  12.648 -0.2264  0.0522  0.0473
25332W        W42856   6.666  13.660  12.266  0.1488  0.0668  0.1511
25333W        W42857   6.316   9.629   5.180  0.2326 -0.2204  0.0876
25334W        W42858  18.051  15.731   6.278 -0.2497  0.0518 -0.1953
25335W        W42859  11.789   2.154  13.389 -0.1100 -0.0920 -0.1177
25336W        W42860  13.186   8.795  12.184 -0.5171 -0.4965  0.3389
25337W        W42861   0.126  13.407  11.073  0.1508 -0.2288 -0.0615
25338W        W42862   4.229  17.498   4.082 -0.3071 -0.0434  0.1951
25339W        W42863  13.993   8.578   2.344 -0.0060 -0.1386  0.1766
25340W        W42864  15.734   5.345   2.159  0.0102  0.1741  0.1999
25341W        W42865  10.393   4.951   0.152 -0.0244 -0.2960 -0.2460
25342W        W42866  10.184   5.208  12.394  0.3218 -0.1024 -0.0242
25343W        W42867  11.697  12.988  12.823  0.2846 -0.1777 -0.0559
25344W        W42868  14.739   4.488   3.276  0.0499  0.0099  0.1385
25345W        W42869   3.952   6.265  12.702 -0.1408  0.0495  0.0889
25346W        W42870  15.234   7.021  12.042 -0.0604  0.0515 -0.0036
25347W        W42871  15.981   8.648   4.098  0.0844  0.3428 -0.2362
25348W        W42872  13.370  14.890  13.633 -0.2627 -0.1927  0.0857
25349W        W42873  12.680  15.425  13.392 -0.1086 -0.2504  0.0370
25350W        W42874   5.055  16.170   4.941 -0.1497 -0.0571 -0.1515
25351W        W42875  10.384  14.277  14.239 -0.2572 -0.1415  0.0096
25352W        W42876   0.223   3.516   2.641  0.1713 -0.1825 -0.5535
25353W        W42877   7.579  10.794   1.615 -0.1005 -0.1815  0.1090
25354W        W42878   6.993   7.080  11.157  0.1570 -0.0085 -0.0353
25355W        W42879  10.779  15.710  15.905 -0.0469  0.2580  0.0272
25356W        W42880   1.583   1.279  15.044 -0.0971 -0.0284  0.0725
25357W        W42881   2.862   9.522  14.178  0.0725  0.0027  0.2639
25358W        W42882  13.416  15.122  15.489 -0.2020 -0.1588 -0.0520
25359W        W42883   3.000  12.571  14.616 -0.1348  0.2781 -0.1170
25360W        W42884  11.948  10.770   3.626 -0.0399  0.0652  0.3638
25361W        W42885   6.485  13.017   2.327 -0.0098 -0.1617 -0.1633
25362W        W42886  17.070  10.838  13.108 -0.0309 -0.0983  0.0495
25363W        W42887   1.948   7.537  14.032 -0.0970 -0.0659  0.2676
25364W        W42888  15.558  11.678   0.333 -0.0997 -0.0272  0.0899
25365W        W42889  11.982   3.120  15.470 -0.3673 -0.1009 -0.0234
25366W        W42890  15.027   5.796   4.391  0.3256  0.2672 -0.0756
25367W        W42891  11.299  13.534   4.837  0.5184  0.2579 -0.0650
25368W        W42892   1.817   5.465  11.423  0.0856 -0.0307  0.2490
25369W        W42893   1.358   8.075  11.293  0.2270 -0.1247  0.0085
25370W        W42894   1.155  12.592   4.417 -0.3383  0.1640 -0.1111
25371W        W42895   9.397   3.506  12.105 -0.3766 -0.1045 -0.1678
25372W        W42896  10.024  16.771  10.683  0.0909  0.2088  0.1103
25373W        W42897  17.660  10.476   3.148  0.2321 -0.1272  0.0173
25374W        W42898   4.519  13.158  14.935  0.1877 -0.0676 -0.2680
25375W        W42899  17.861   6.601  13.881  0.0090  0.0208  0.0566
25376W        W42900  10.538  12.334   4.540 -0.0571  0.1960  0.0970
25377W        W42901  11.641  15.396   4.401 -0.0540 -0.1724 -0.2357
25378W        W42902   6.449  10.967  12.680  0.4710 -0.1876  0.0715
25379W        W42903  14.506  10.540   2.712 -0.0951 -0.3674  0.1271
25380W        W42904  17.215  18.062   4.534  0.2393 -0.0244 -0.1141
25381W        W42905  14.449  11.353   0.162 -0.3607  0.0347  0.0732
25382W        W42906  14.747   1.976   2.132  0.1478 -0.1513 -0.2819
25383W        W42907   1.175   4.621  13.120  0.0388 -0.0724  0.0269
25384W        W42908  13.476  10.149   5.591 -0.4714  0.2489  0.1224
25385W        W42909   1.023   5.604   0.672 -0.1430  0.3401  0.1670
25386W        W42910   4.366  15.827  10.893  0.0086  0.0279 -0.2562
25387W        W42911   5.297   3.626   3.250 -0.0529  0.0473 -0.1700
25388W        W42912   2.049  11.218   1.555 -0.2319 -0.2988  0.3279
25389W        W42913  15.929   9.895   0.507 -0.2070  0.2776 -0.0508
25390W        W42914  10.898  11.199   2.384  0.0390  0.0786  0.0874
25391W        W42915  15.135   2.736  11.871 -0.0915  0.0483 -0.1750
25392W        W42916  15.459  16.088   2.828 -0.3195 -0.0583  0.2766
25393W        W42917   8.391  12.339  15.291 -0.0602 -0.0442 -0.3306
25394W        W42918   9.064   4.496  11.816  0.1358 -0.2425  0.0049
25395W        W42919  10.587   3.384  13.162  0.2265  0.1581  0.5776
25396W        W42920  12.196   6.465   1.614  0.1941 -0.1554  0.0315
25397W        W42921  12.097   5.707   3.126 -0.1135 -0.0219  0.2364
25398W        W42922  10.105  11.556  10.592 -0.1803 -0.1263  0.0960
25399W        W42923  11.867  17.840  13.331  0.0189 -0.2317  0.1248
25400W        W42924   2.676   7.357  11.563  0.0657 -0.0006  0.1877
25401W        W42925  14.306  18.140   2.852  0.0638 -0.1806  0.0207
25402W        W42926  14.193  14.671   1.453 -0.0508  0.1104 -0.2025
25403W        W42927   5.799   1.409  14.502 -0.2981  0.4950  0.1682
25404W        W42928   4.517  16.219  13.977 -0.3636 -0.0124  0.0319
25405W        W42929   1.135  16.246  13.590 -0.0181  0.3296 -0.0487
25406W        W42930  16.410   8.857   2.383  0.0161  0.3795  0.0037
25407W        W42931   5.567   1.164   2.943  0.0583  0.0367 -0.1362
25408W        W42932   3.896   5.146  15.292 -0.2498 -0.1980  0.1091
25409W        W42933  10.393   8.590   1.596 -0.0967  0.1193  0.1382
25410W        W42934   0.701  11.822   0.772 -0.1169  0.4095 -0.1243
25411W        W42935   0.706  11.968   3.801 -0.5341  0.1805  0.1909
25412W        W42936   5.124  11.657  15.917 -0.3224  0.1519  0.1513
25413W        W42937   9.656  16.125   3.607  0.1570 -0.0521 -0.1376
25414W        W42938  11.445  13.452  15.117  0.2579 -0.0404  0.1386
25415W        W42939  11.530   1.244  14.565 -0.0889 -0.0916  0.1112
25416W        W42940   2.691   2.779   0.074 -0.0137  0.1782  0.0071
25417W        W42941  13.767   5.613  12.680 -0.1672  0.0312 -0.1728
25418W        W42942   7.808  10.913  12.471  0.4744 -0.0343 -0.6405
25419W        W42943  14.451   6.811   1.621 -0.2182  0.0805 -0.0396
25420W        W42944   6.473  17.263   3.933  0.1823  0.0818  0.1408
25421W        W42945  12.933  10.824  12.537  0.0304  0.2145 -0.0932
25422W        W42946   8.590   4.535   5.151 -0.0061 -0.0354  0.0933
25423W        W42947  16.624  14.002   1.817 -0.3419 -0.0265 -0.0170
25424W        W42948  13.950   7.869  12.528  0.1598 -0.0421  0.0696
25425W        W42949   9.476  14.633  10.391  0.3289  0.1308  0.0932
25426W        W42950  10.706   0.544  14.648  0.1672  0.1249  0.0445
25427W        W42951   6.575   6.633  11.721 -0.0369 -0.0133  0.0824
25428W        W42952   5.306   0.712  12.596  0.3169  0.1507 -0.0754
25429W        W42953   1.217   7.620   3.061  0.0395  0.2342  0.0696
25430W        W42954  12.970  16.427   3.327 -0.0488  0.0212  0.0682
25431W        W42955  15.479   9.761  11.221  0.3344 -0.0083  0.0690
25432W        W42956  16.332   4.502  12.565  0.1363  0.2832  0.1328
25433W        W42957  11.970  10.388  12.105  0.1230 -0.0968  0.0727
25434W        W42958   4.285  17.252   2.282  0.0402  0.1800  0.2633
25435W        W42959   2.115  16.905   2.612  0.0062  0.0683  0.0797
25436W        W42960  12.430   2.909  12.260 -0.2328  0.1925 -0.0015
25437W        W42961  10.250   3.397   2.878  0.2919 -0.1890  0.0653
25438W        W42962   4.960  11.053   4.740  0.1095 -0.0754  0.1482
25439W        W42963  16.072   0.615   1.772  0.0427 -0.3092  0.0835
25440W        W42964   8.192  13.330  13.681 -0.1221  0.0729 -0.1133
25441W        W42965   4.161  14.124  15.665 -0.1876 -0.1376 -0.4041
25442W        W42966   5.854  15.917  13.574 -0.1955  0.0601 -0.0864
25443W        W42967   5.716   9.843  15.303 -0.1443  0.0239 -0.1785
25444W        W42968   1.114   1.198  14.794 -0.0105  0.1672 -0.0754
25445W        W42969   7.526   2.701  11.657 -0.0492 -0.2795 -0.0910
25446W        W42970   9.214   5.888   4.913 -0.0284  0.1352  0.0098
25447W        W42971  15.682  16.094   3.754 -0.0649  0.2005  0.1524
25448W        W42972   7.682   1.942  11.249 -0.0347 -0.0265  0.0970
25449W        W42973  12.305   1.898   2.230  0.2034  0.0198  0.0086
25450W        W42974   9.551   0.552   2.258  0.4656 -0.2122  0.0343
25451W        W42975   5.665  11.681   1.293 -0.1513 -0.2311  0.2309
25452W        W42976  10.934   9.241  13.652 -0.1209  0.1285  0.0301
25453W        W42977   1.902   7.591   4.009  0.1243 -0.0346  0.0986
25454W        W42978   4.167   4.568   4.542 -0.0095  0.0401  0.2994
25455W        W42979   9.274  16.925   4.561  0.1198  0.0287  0.0497
25456W        W42980   1.098  10.505   0.147  0.2700 -0.0044 -0.1380
25457W        W42981  11.868   7.188  15.610 -0.0310  0.0126 -0.0225
25458W        W42982  12.456   1.097  11.102 -0.0117 -0.3769  0.1366
25459W        W42983  10.243   5.931   1.983 -0.1102 -0.1216 -0.0504
25460W        W42984  13.087  13.131  14.373 -0.2203  0.0709 -0.4518
25461W        W42985   0.312  17.305  14.559 -0.0111  0.0321 -0.2638
25462W        W42986  15.603  10.370   3.185  0.0514 -0.0087 -0.0258
25463W        W42987   8.231  14.759  13.921  0.4600  0.2598  0.2931
25464W        W42988  10.688  17.781   1.672  0.2304 -0.2554  0.0449
25465W        W42989   8.614  18.106   0.483  0.1321 -0.1108  0.1436
25466W        W42990  13.800   0.045   3.848  0.3101  0.0199 -0.2559
25467W        W42991   9.930  17.904   3.469 -0.2142 -0.3569 -0.0179
25468W        W42992   0.314  13.009   0.004 -0.0988 -0.1376 -0.0829
25469W        W42993  11.454   5.103  12.416 -0.1697 -0.1929 -0.2357
25470W        W42994  14.692   5.473  13.261  0.0751  0.3226  0.1309
25471W        W42995  13.500   6.006  13.082  0.4144 -0.0656 -0.2532
25472W        W42996   5.561  16.365  14.267  0.2617  0.0943  0.1747
25473W        W42997   0.781   6.577   3.435 -0.1211 -0.1994  0.0649
25474W        W42998  17.804  11.429  13.774 -0.0978 -0.1730 -0.1984
25475W        W42999  11.682  11.831   4.142 -0.0070 -0.2005  0.1825
25476W        W43000  13.788  15.844  11.830  0.1663 -0.0291 -0.0655
25477W        W43001  12.214   5.593   5.174 -0.0526  0.1486 -0.0586
25478W        W43002  16.384   1.840   2.197  0.0817 -0.4638  0.0498
25479W        W43003   1.063  12.236  13.689  0.0717  0.0980 -0.0722
25480W        W43004  16.349   5.998  14.318 -0.2823  0.2455  0.0209
25481W        W43005   4.931   7.433   4.695 -0.0581 -0.2973  0.3190
25482W        W43006  16.324   3.148  11.307 -0.0522  0.0866 -0.4318
25483W        W43007  12.601  10.215   1.776  0.3433 -0.2155 -0.0449
25484W        W43008   6.746  15.149  16.050 -0.0534 -0.1410 -0.1444
25485W        W43009   2.782   2.323   1.595 -0.1033 -0.2266 -0.2823
25486W        W43010  16.364   8.958  13.724 -0.1804  0.2456 -0.2025
25487W        W43011  14.440   1.987  11.518  0.2492 -0.1069  0.0758
25488W        W43012   5.660   0.945  14.836  0.0002 -0.0433  0.2562
25489W        W43013  11.327   1.240   3.682  0.0113 -0.1086  0.1946
25490W        W43014   4.572   3.714   2.213 -0.3128  0.1516  0.3115
25491W        W43015   8.612  17.067  14.137 -0.0320 -0.2095 -0.0467
25492W        W43016  13.542   1.508  12.535  0.3335 -0.0002 -0.0029
25493W        W43017   9.582  14.322   0.159 -0.3081  0.0569 -0.2387
25494W        W43018  10.692  13.415  13.020  0.3091 -0.1338  0.1335
25495W        W43019   4.039   6.627  13.978 -0.2976 -0.2135 -0.0039
25496W        W43020  17.128   8.222   1.926  0.0084  0.1388  0.1740
25497W        W43021   6.079  15.193   4.002 -0.0391 -0.1284  0.3427
25498W        W43022  10.287  12.739  15.839 -0.2977  0.4185  0.1403
25499W        W43023   6.350   3.594  12.709  0.0541  0.0377 -0.0739
25500W        W43024  13.891   8.872  15.953 -0.2381 -0.0889  0.1093
25501W        W43025  12.578  16.534  15.741  0.2978  0.1706  0.1690
25502W        W43026   1.102   2.063  12.878 -0.2081  0.0278  0.1689
25503W        W43027  13.457   8.667  11.490 -0.0126  0.0104 -0.4851
25504W        W43028   5.072   0.722   4.157 -0.0659 -0.2152  0.1170
25505W        W43029   5.861   2.220   2.314 -0.1214 -0.1744  0.0239
25506W        W43030  11.084  16.801  13.558 -0.1472  0.0147  0.1563
25507W        W43031  10.551  17.260   0.643 -0.2066  0.0554 -0.4659
25508W        W43032   6.591   7.299  12.961  0.1966  0.2439 -0.0586
25509W        W43033   8.524  13.492   3.868 -0.2099 -0.1502  0.1576
25510W        W43034  11.595   2.974   1.980 -0.2025 -0.0814 -0.1300
25511W        W43035   5.955   7.526  11.679  0.1167  0.2520  0.1030
25512W        W43036  10.232   5.497  11.370 -0.2148  0.2048 -0.1469
25513W        W43037   7.037  17.148   5.176  0.2646 -0.1919  0.0042
25514W        W43038   7.487   1.368  11.566  0.0664  0.1926  0.1626
25515W        W43039   8.301  14.848   0.529 -0.3048 -0.2903  0.0781
25516W        W43040   0.236   8.225   0.149  0.2049  0.1495 -0.1237
25517W        W43041   2.602  10.196   2.506 -0.2603 -0.0854  0.0245
25518W        W43042  15.072  17.362   2.969 -0.1338 -0.0517 -0.2180
25519W        W43043  13.707  15.960   4.830  0.1148 -0.1057 -0.3912
25520W        W43044  11.746   6.108   1.743  0.4792  0.1858  0.1236
25521W        W43045  14.159  14.822  12.964  0.0186  0.0842  0.0580
25522W        W43046  12.641   1.866   4.848  0.1737 -0.2507 -0.1798
25523W        W43047  10.420  12.796   4.229  0.0304  0.4358  0.3324
25524W        W43048  13.925   6.069  13.387 -0.2617 -0.3222 -0.1917
25525W        W43049   8.500  14.401  11.101 -0.1419 -0.1930  0.0078
25526W        W43050  12.847  12.133   3.064 -0.0577  0.1729 -0.0166
25527W        W43051   6.170  13.561   3.097  0.1365  0.0830 -0.0937
25528W        W43052   8.757   0.918  14.981  0.0119  0.0389  0.0890
25529W        W43053   8.342   9.151  13.551 -0.1626  0.1098 -0.1322
25530W        W43054  17.459   0.160  12.618  0.0041 -0.0455 -0.0366
25531W        W43055   6.393  12.626   3.755  0.1715  0.0484  0.1144
25532W        W43056   5.223  14.772  14.950  0.1324  0.0577  0.0328
25533W        W43057   1.862  13.055   0.564  0.0275  0.1636 -0.3071
25534W        W43058   2.797   0.206  12.311  0.0152  0.0582 -0.1296
25535W        W43059   5.772   5.750  12.075 -0.0645 -0.0091  0.1762
25536W        W43060  13.183   1.352   4.108 -0.0290 -0.1217  0.0031
25537W        W43061   7.362  10.037  13.052  0.0984  0.0347  0.1381
25538W        W43062  13.436   0.866   4.149 -0.3173  0.0295 -0.0168
25539W        W43063  11.686   8.358   3.923 -0.1227  0.2066  0.0696
25540W        W43064   9.544   1.572  12.307 -0.0481 -0.3356  0.0635
25541W        W43065  10.476   6.412  11.536  0.0758 -0.1469 -0.1962
25542W        W43066   0.122   6.609   2.294 -0.1433  0.0227  0.1644
25543W        W43067   5.354  14.884   4.737 -0.0013  0.0317 -0.1094
25544W        W43068  15.195  17.672  12.695  0.0552  0.0449  0.0776
25545W        W43069  11.762  18.094   3.240 -0.1859 -0.2768  0.1008
25546W        W43070  11.477  10.175   1.669 -0.2585 -0.0831 -0.3066
25547W        W43071  12.708  16.756   2.211  0.4416  0.2167 -0.0098
25548W        W43072   0.912  12.946   2.336 -0.1754 -0.0121  0.1029
25549W        W43073  10.864  10.768   4.888  0.2643 -0.0067 -0.0290
25550W        W43074  16.303  15.130   2.410  0.1569 -0.0689 -0.0524
25551W        W43075  13.609  13.933   2.414 -0.1173  0.0539 -0.1145
25552W        W43076   9.484   0.175   1.414 -0.3164 -0.2010 -0.2899
25553W        W43077  17.998  17.038   1.550  0.1308 -0.1790 -0.1163
25554W        W43078   4.494  11.029   1.924 -0.2297 -0.3265 -0.2046
25555W        W43079   7.033   9.624  15.253 -0.0703 -0.2048 -0.1899
25556W        W43080   0.628  14.146   4.703  0.2544 -0.2280  0.0028
25557W        W43081   8.180  13.611   3.202  0.0740 -0.1235 -0.1470
25558W        W43082   4.997   5.586  14.729 -0.0635 -0.1761 -0.1780
25559W        W43083   8.606   9.293  14.688  0.1276  0.0142  0.0515
25560W        W43084   6.336   3.340   4.494 -0.1736 -0.1851  0.4194
25561W        W43085   9.727   8.081   2.502 -0.0717 -0.1810  0.0099
25562W        W43086   4.370   4.951   1.400 -0.1164 -0.0438 -0.1243
25563W        W43087  10.104  16.801  15.973 -0.0418 -0.0938 -0.2009
25564W        W43088   1.073   9.268   1.289 -0.0729 -0.1417 -0.0935
25565W        W43089  11.114   0.154  10.804  0.0788 -0.2922 -0.1790
25566W        W43090   9.525  14.945  14.864  0.1483  0.0449 -0.1997
25567W        W43091   8.719  15.626  13.561  0.2255 -0.2511 -0.2340
25568W        W43092   5.456  14.156  14.651 -0.1389  0.0767  0.1489
25569W        W43093   9.125   6.005  12.523  0.1303 -0.1683 -0.0892
25570W        W43094   4.615  15.135  15.479 -0.0995 -0.1320  0.2167
25571W        W43095  13.960  15.616  12.268  0.2183  0.1170 -0.1451
25572W        W43096   3.950   7.205   3.318  0.2306  0.2136  0.0010
25573W        W43097   3.939  14.405   3.824  0.1638 -0.0424  0.0687
25574W        W43098  13.450   6.143  15.707  0.0155 -0.1001 -0.2268
25575W        W43099  12.874   6.479   2.288 -0.3198 -0.0204 -0.2351
25576W        W43100   2.453  14.473   0.385 -0.2421 -0.1182 -0.1493
25577W        W43101  15.770  17.860  15.600  0.0679 -0.0338 -0.0413
25578W        W43102   2.585   3.918  11.317  0.0113  0.2416  0.1232
25579W        W43103   7.805   3.993   3.273 -0.4357  0.1331  0.1139
25580W        W43104  17.727   7.357   4.289  0.0417  0.0683 -0.2112
25581W        W43105   8.781  16.168  15.585  0.3017  0.2245  0.1637
25582W        W43106   7.552   8.317  15.962  0.1865 -0.0558  0.0648
25583W        W43107  15.725   1.486  11.933  0.0054  0.2023 -0.0324
25584W        W43108  13.025  10.668  14.533  0.2999  0.1632 -0.4518
25585W        W43109   4.851   1.451   0.327 -0.1249 -0.1647 -0.0863
25586W        W43110  14.235   0.710   4.568 -0.0001 -0.0977 -0.1251
25587W        W43111   1.957   1.465  11.713 -0.2330 -0.0400  0.2546
25588W        W43112   0.706   8.446   2.397 -0.0468  0.0254 -0.1306
25589W        W43113  16.658  16.243   0.355  0.4173 -0.0154 -0.0744
25590W        W43114  13.517  14.069   0.257  0.2153  0.1647  0.0334
25591W        W43115  17.095   1.326   1.473 -0.0714 -0.3403  0.0463
25592W        W43116   1.598   8.038  13.785  0.1701  0.0598 -0.1657
25593W        W43117   5.231   0.308  11.240  0.5735 -0.2291  0.1088
25594W        W43118   1.137  16.395   1.957  0.0010 -0.1753  0.3950
25595W        W43119  10.335  13.520  14.635 -0.0440 -0.0077 -0.3705
25596W        W43120  11.204  16.391  15.677  0.1266  0.0815 -0.2161
25597W        W43121  16.171   5.402  13.987 -0.2049  0.2545 -0.0607
25598W        W43122   0.767   6.304  13.476  0.1465 -0.1868  0.0888
25599W        W43123   3.598  10.297   5.470 -0.2766 -0.1134  0.1732
25600W        W43124   2.438  10.428   2.961  0.0783 -0.0797  0.1060
25601W        W43125  13.973   9.199  11.804  0.2473 -0.1976 -0.0219
25602W        W43126  17.160   2.805  14.686  0.1953  0.4329  0.2543
25603W        W43127   1.061   2.443  11.353 -0.1515  0.2530  0.0908
25604W        W43128  13.098   5.140  12.156  0.0271 -0.0022  0.1698
25605W        W43129   1.009   2.561   4.539  0.0454  0.2224  0.1892
25606W        W43130   8.215  11.145   2.018  0.0192 -0.0197  0.2501
25607W        W43131   6.262  17.400  12.111  0.0924 -0.1587  0.0055
25608W        W43132   5.479  12.429   3.909 -0.1680  0.2159  0.1497
25609W        W43133  15.782   9.798  14.928  0.1498  0.0978  0.1440
25610W        W43134   6.945  17.498  12.646 -0.1869  0.3554 -0.1512
25611W        W43135  14.517   7.664  13.320  0.1054  0.0509  0.0764
25612W        W43136  10.278   3.413   5.110 -0.1610  0.0406 -0.0185
25613W        W43137  16.295   8.396  13.598 -0.0863  0.3611  0.0290
25614W        W43138   6.697   5.988   4.130  0.1187  0.2061  0.0209
25615W        W43139   7.804  17.715  12.540  0.3109  0.1449 -0.2349
25616W        W43140   7.366   5.386  11.622 -0.1236  0.2053  0.0210
25617W        W43141   0.151   8.413   4.591  0.2085  0.2756  0.3156
25618W        W43142   5.157   5.770   4.167 -0.0740  0.0322  0.0302
25619W        W43143  17.652   2.991   0.800 -0.3087 -0.0455  0.3022
25620W        W43144   8.266   9.355   0.446 -0.2070 -0.0274  0.0973
25621W        W43145   8.766  12.291   5.728 -0.0310 -0.3438 -0.0559
25622W        W43146  18.129   6.206  13.645 -0.1592  0.0130 -0.1150
25623W        W43147  12.793  10.812   3.658  0.0198  0.2531 -0.1290
25624W        W43148  10.032   3.878   0.847  0.3217  0.0591 -0.3552
25625W        W43149   5.402   4.194   4.146 -0.3308 -0.5504  0.3946
25626W        W43150  12.174  14.648  15.265 -0.0086  0.0545  0.3895
25627W        W43151   4.247   9.217  13.777  0.0756  0.2861 -0.1287
25628W        W43152   9.318  16.731   3.448 -0.1439 -0.3770 -0.0091
25629W        W43153   8.343  14.104  15.037  0.0263  0.0663  0.1715
25630W        W43154   3.840   2.368   1.302  0.0727 -0.0539 -0.1454
25631W        W43155  13.611   6.147  11.791 -0.2074  0.2713  0.0077
25632W        W43156  14.584   3.233  15.695  0.0307 -0.4912  0.1442
25633W        W43157   0.119   1.911   0.717 -0.0323  0.1009  0.0830
25634W        W43158  15.979   8.517   0.235 -0.1340 -0.1219 -0.0782
25635W        W43159   3.422   5.051  15.416 -0.0299  0.2407  0.0156
25636W        W43160   9.924   0.948   0.299  0.0205 -0.3752 -0.0765
25637W        W43161   8.672  13.788   2.353 -0.2504  0.1932 -0.0671
25638W        W43162   1.545   0.988   2.347 -0.0582  0.2411  0.1378
25639W        W43163   7.721   3.853   4.408  0.3011  0.1074  0.0637
25640W        W43164  10.697   9.612  14.514 -0.0397 -0.0910  0.0716
25641W        W43165   0.595  14.591   4.434  0.0796  0.1161 -0.0078
25642W        W43166   7.342  17.298  15.396 -0.1174  0.0337  0.1835
25643W        W43167   9.203   8.726  15.473  0.1058  0.0407  0.0870
25644W        W43168  10.083   3.535  12.913 -0.0977 -0.2017  0.0346
25645W        W43169   1.254   6.543  13.618 -0.0042  0.0783  0.0739
25646W        W43170  12.274  10.419  15.467  0.0806  0.0019 -0.0061
25647W        W43171   8.080  13.150  15.664 -0.0978  0.0839 -0.2351
25648W        W43172  16.076   0.899   2.599 -0.1142 -0.0212  0.0143
25649W        W43173   6.302   4.014  15.099 -0.0581 -0.2227  0.0228
25650W        W43174  13.737  17.126   2.903 -0.2341  0.3388 -0.3108
25651W        W43175  16.602  17.782  11.165 -0.2026  0.1153 -0.0869
25652W        W43176  14.055   6.312   1.565  0.1031  0.3956 -0.2056
25653W        W43177   5.386  11.032   1.790  0.0535  0.2768  0.1072
25654W        W43178   7.911   4.117  13.568  0.0345 -0.0483 -0.2899
25655W        W43179  16.030   1.417  12.936  0.1799  0.1930  0.0796
25656W        W43180  17.929  14.358   2.410  0.0861  0.1581 -0.1669
25657W        W43181  16.415   8.362   2.402 -0.0954 -0.1249  0.1358
25658W        W43182   9.023  16.422  12.735 -0.0955  0.1713 -0.0195
25659W        W43183  11.144   8.401  14.000  0.3657 -0.2723  0.2649
25660W        W43184  12.028   5.166   4.044 -0.0868 -0.3632 -0.2619
25661W        W43185   6.904   9.524  15.971 -0.0421 -0.1456  0.2997
25662W        W43186   9.238   7.389  11.348  0.0816 -0.1731  0.2765
25663W        W43187  13.853  11.249  11.271 -0.1537  0.0386  0.3046
25664W        W43188  17.140   6.516   3.634 -0.0474 -0.1356 -0.1801
25665W        W43189   1.562  11.561  10.148 -0.2762 -0.1707  0.1239
25666W        W43190  10.330   5.906   3.862 -0.2102 -0.0762 -0.1125
25667W        W43191  15.387   0.556   1.109  0.3327  0.0630  0.0347
25668W        W43192  14.909  11.112   3.230  0.0210  0.1193  0.0926
25669W        W43193   7.343  16.971   2.847  0.1036  0.0395 -0.2543
25670W        W43194  16.820   8.829   4.824  0.0397  0.1896 -0.1238
25671W        W43195  13.891   0.097   0.025 -0.1351  0.3102  0.2028
25672W        W43196   3.427  10.798  13.534  0.1445  0.2106  0.0911
25673W        W43197   1.566  11.358  14.033  0.2434  0.0308 -0.1593
25674W        W43198   6.642  13.247  15.091  0.2571  0.0106  0.3161
25675W        W43199  10.013   6.112   0.922 -0.2539  0.2797  0.0141
25676W        W43200   3.970  14.487  15.438 -0.3552 -0.0012  0.0457
25677W        W43201  13.023   4.886  14.899 -0.0987 -0.1143 -0.0533
25678W        W43202  10.560   0.987  13.387 -0.2403  0.1252 -0.1821
25679W        W43203   1.780   6.206   3.748 -0.0265  0.1329  0.1795
25680W        W43204   4.393  13.415  12.793 -0.1253  0.3013  0.1404
25681W        W43205   2.771  16.781   4.438  0.2353 -0.2997  0.1483
25682W        W43206  17.025   3.700   4.277 -0.1300 -0.0908  0.1903
25683W        W43207   8.537  15.022  12.502  0.3612  0.1620  0.4313
25684W        W43208   2.712  14.934  14.580  0.2534 -0.0041 -0.4760
25685W        W43209  12.371  11.472  14.568  0.0739  0.2007  0.0643
25686W        W43210   2.555   3.197  10.284  0.2066 -0.1265  0.2805
25687W        W43211   1.122  11.649   0.420  0.0124  0.2774  0.2799
25688W        W43212  13.966  15.433   3.891 -0.0035 -0.0925 -0.2467
25689W        W43213   8.464  14.486  15.803 -0.3816 -0.0245  0.0956
25690W        W43214  10.035   7.567   1.261 -0.0948  0.2968  0.0880
25691W        W43215  14.002  13.850   2.024 -0.2085  0.1358 -0.1750
25692W        W43216   7.457  18.132   4.321  0.0452 -0.0289  0.0759
25693W        W43217   1.453   2.261   1.783 -0.1806  0.0642 -0.0782
25694W        W43218   7.291  12.205   0.772 -0.2319 -0.0187 -0.0677
25695W        W43219   7.466  14.410  11.488 -0.2537  0.2569  0.1748
25696W        W43220   4.283  13.715   5.265 -0.0479 -0.0369  0.0002
25697W        W43221  12.218   6.001   4.791  0.1088 -0.2074  0.1487
25698W        W43222  10.855  12.251   0.661  0.2794 -0.1917  0.2738
25699W        W43223  16.610   5.756   0.336 -0.0382 -0.0995  0.0312
25700W        W43224  12.894  17.057   4.172 -0.0099 -0.2395  0.0529
25701W        W43225   5.432  13.316  15.238  0.0822 -0.0066 -0.0779
25702W        W43226   1.308   7.464  10.492  0.3925 -0.0413  0.2467
25703W        W43227  12.190   7.337  14.784 -0.0290 -0.0648  0.0990
25704W        W43228  11.166  16.984  12.496 -0.0257  0.0117 -0.2385
25705W        W43229  10.700   0.078  15.606  0.1550  0.0689 -0.2438
25706W        W43230  17.721   8.632  12.841 -0.0895 -0.1751  0.1292
25707W        W43231  17.922  14.251  14.693 -0.1362 -0.2249  0.1614
25708W        W43232   5.262  17.743   3.177 -0.1169 -0.3974 -0.1199
25709W        W43233  12.435   4.440  13.980  0.3355 -0.1364  0.4364
25710W        W43234  16.058  10.092   2.521  0.0045 -0.1536  0.1486
25711W        W43235   2.744   9.997   0.353  0.0596 -0.1184  0.0358
25712W        W43236  15.661   6.166   2.742  0.1319  0.2665  0.1277
25713W        W43237   1.264   6.366   3.656  0.0782 -0.1580  0.1394
25714W        W43238   3.622  17.960   5.755 -0.0150  0.0492  0.0926
25715W        W43239  17.128  15.078  13.416  0.5998 -0.3541  0.0282
25716W        W43240  12.915   0.086   4.695  0.3242  0.0630 -0.2865
25717W        W43241   6.674   2.629   2.590  0.0425  0.1455  0.0481
25718W        W43242  12.064   6.693  15.543  0.0036 -0.0466  0.2330
25719W        W43243  17.113  16.025   3.762  0.1662 -0.1777 -0.0056
25720W        W43244   3.819   6.861  12.117  0.0494 -0.1362 -0.0993
25721W        W43245  15.180   2.559   0.764  0.2475  0.4141  0.2411
25722W        W43246   0.249  15.685  13.055  0.0557  0.2198  0.2019
25723W        W43247   9.598  12.927  11.354  0.1590 -0.2599  0.0121
25724W        W43248  17.927   5.536   0.488  0.2453  0.1277 -0.1342
25725W        W43249  12.840   7.774  14.179 -0.0055 -0.2957 -0.1170
25726W        W43250  17.949  13.899   2.650  0.1718  0.0796 -0.1271
25727W        W43251   0.372  17.892  11.849 -0.0760 -0.2641  0.1469
25728W        W43252   2.317   8.980   1.409 -0.0473 -0.0066  0.0738
25729W        W43253  15.914   2.937  12.676 -0.1398 -0.0458 -0.1330
25730W        W43254   6.008  13.304  10.249  0.2484 -0.0869 -0.3415
25731W        W43255  10.092   9.219  11.656 -0.2836 -0.1944  0.0096
25732W        W43256   0.342  14.008  15.896 -0.1410  0.2418  0.0914
25733W        W43257   8.184   7.669   1.683 -0.5799 -0.2795 -0.2380
25734W        W43258   2.237   2.255   4.167  0.2003 -0.1433 -0.4529
25735W        W43259  11.107   0.300  12.230 -0.2634 -0.0146 -0.1843
25736W        W43260  13.340   7.886  11.762  0.1145 -0.0355  0.3040
25737W        W43261   6.492   8.757   4.056 -0.0259  0.1224 -0.0017
25738W        W43262   7.197  11.111  15.237 -0.1828  0.0050  0.2643
25739W        W43263  17.574  12.800   1.463 -0.1381 -0.0882 -0.0136
25740W        W43264   2.944  17.086  12.935 -0.1658 -0.3181 -0.1854
25741W        W43265   6.233  17.364   2.517  0.2239  0.5442  0.1628
25742W        W43266   5.318   3.332  14.506 -0.1153 -0.0197 -0.0192
25743W        W43267  10.477   3.986  15.750 -0.0218  0.3469 -0.0221
25744W        W43268  10.488  10.097   2.552 -0.0609 -0.2243 -0.3470
25745W        W43269  16.727   7.735   3.022 -0.2076 -0.2025 -0.1366
25746W        W43270  14.081   1.048  12.237 -0.1568  0.0506 -0.3088
25747W        W43271   5.661  14.203   3.406  0.0483  0.1493  0.1586
25748W        W43272  15.998  10.803   4.263  0.3022 -0.0940  0.0319
25749W        W43273  16.048  16.027   0.893  0.0991 -0.0332 -0.3729
25750W        W43274   1.749   4.035   0.622 -0.0669  0.1260  0.0709
25751W        W43275   6.769  13.909  11.799  0.0763 -0.0076  0.2556
25752W        W43276   9.173   1.360  13.991  0.0058 -0.1172  0.3937
25753W        W43277  16.990  15.953   0.653 -0.0106 -0.1115  0.0045
25754W        W43278   7.032  12.207   4.220  0.0460  0.1075  0.1775
25755W        W43279   9.992  13.136   0.739 -0.3203 -0.3606  0.0053
25756W        W43280  11.411  15.882  12.064  0.0480  0.0280  0.3166
25757W        W43281   1.072  15.916  12.092 -0.1290 -0.3253  0.3801
25758W        W43282  12.200   6.027   1.355 -0.1772 -0.1925 -0.0111
25759W        W43283  16.688   4.651   4.878 -0.0403 -0.0068 -0.0725
25760W        W43284   8.392   5.713   4.432 -0.0887  0.2088 -0.2752
25761W        W43285  12.654   3.470  12.702 -0.1442  0.0760 -0.4868
25762W        W43286   7.059  13.180  12.251  0.0043  0.0738  0.0037
25763W        W43287  15.356   7.881  15.450 -0.0022 -0.0135 -0.0151
25764W        W43288   5.987   5.473   4.338 -0.0326  0.0043 -0.3480
25765W        W43289   2.616   0.738  12.199  0.0938  0.0913 -0.1253
25766W        W43290   6.925   5.375   5.220 -0.0826  0.1105 -0.1254
25767W        W43291  15.662  17.987   0.019 -0.2211 -0.0151  0.2935
25768W        W43292  14.214  12.346   3.159 -0.1515  0.0261  0.0466
25769W        W43293   5.872  15.662  11.483 -0.1326 -0.1430  0.0067
25770W        W43294  16.833  10.042   4.273  0.2049 -0.0044 -0.0013
25771W        W43295  15.458  14.457  14.433  0.0212 -0.1324 -0.2323
25772W        W43296   3.260   6.331  13.620  0.1581 -0.2229 -0.3536
25773W        W43297  10.361   5.605  15.323  0.0490  0.1289 -0.1362
25774W        W43298   7.731  13.999  11.476  0.1036 -0.2202 -0.0002
25775W        W43299   1.687   9.883  14.524 -0.1922  0.0475 -0.0679
25776W        W43300  17.146  13.645   2.622  0.0596 -0.0806  0.0174
25777W        W43301  15.302   1.852   4.615  0.1641  0.2603  0.2024
25778W        W43302   9.982   5.643  10.976  0.0531  0.0123 -0.0921
25779W        W43303   1.741  14.894  13.586  0.0686  0.3606  0.0860
25780W        W43304   5.983   5.474   3.682 -0.2365  0.3130  0.1172
25781W        W43305   2.640   9.842  11.873  0.0034  0.2390  0.0866
25782W        W43306   9.561  16.863  11.387  0.0494 -0.1471  0.0677
25783W        W43307   2.230  11.851   5.613 -0.2559 -0.4447 -0.0500
25784W        W43308   5.110   8.206  14.083  0.0380 -0.3152 -0.1697
25785W        W43309   2.684   6.443  15.521  0.1440  0.0357  0.1794
25786W        W43310   7.823   9.641   4.066 -0.1536 -0.3510 -0.2907
25787W        W43311   1.468  15.867  13.707  0.2565  0.0237  0.0531
25788W        W43312   8.563   9.893   3.012  0.1725 -0.1087  0.3924
25789W        W43313   4.341   7.092  15.933 -0.1882  0.1420  0.3720
25790W        W43314   8.862  12.759  13.776 -0.1075  0.1874 -0.2782
25791W        W43315  13.815   9.500   4.109 -0.0026  0.1584 -0.2763
25792W        W43316   8.499  15.523   2.920 -0.1954  0.1898 -0.2114
25793W        W43317   5.484  11.140   4.596  0.0699  0.0512 -0.3690
25794W        W43318  16.625  16.144   3.850 -0.2835  0.0725  0.2709
25795W        W43319   8.899  10.525   5.025  0.0186  0.0462  0.1723
25796W        W43320  12.050  17.478  12.496  0.0222  0.0726  0.1311
25797W        W43321   4.514   3.980   0.474 -0.1601 -0.0123  0.2684
25798W        W43322  16.735   0.467  15.161 -0.0209  0.2683 -0.2318
25799W        W43323   4.206  13.814  11.305  0.0151  0.2357 -0.2388
25800W        W43324  13.356   7.357  15.373  0.5111 -0.0314  0.0323
25801W        W43325   9.220  13.165  14.122  0.0962 -0.0694  0.0742
25802W        W43326   8.925  13.408  13.233  0.2255  0.0335  0.0828
25803W        W43327   6.512   1.286  12.596 -0.0991 -0.0706 -0.1565
25804W        W43328   7.532   7.070   2.921 -0.1194 -0.2039 -0.1435
25805W        W43329  12.236  15.757  10.904 -0.1315 -0.0202 -0.1931
25806W        W43330  13.556  13.928   1.476  0.1271 -0.0570  0.0418
25807W        W43331  13.880  16.442  12.848  0.2256  0.1905  0.0887
25808W        W43332   0.166  16.513   4.065 -0.0685 -0.3828 -0.1001
25809W        W43333   9.365   0.271  12.946 -0.0386  0.1852  0.0467
25810W        W43334  14.572  11.905  10.924  0.2165 -0.0008  0.1253
25811W        W43335   2.817   1.089   4.371 -0.3327 -0.1258 -0.0144
25812W        W43336  11.259   1.058  10.509 -0.4134  0.0084  0.2094
25813W        W43337  16.097  17.712  16.027  0.1202  0.0684  0.1575
25814W        W43338  12.905  15.775  15.917  0.2469  0.1078  0.0364
25815W        W43339  11.871  12.213   3.093 -0.0242  0.2674 -0.2967
25816W        W43340   0.332   8.035  13.172  0.2129 -0.0373  0.0587
25817W        W43341  16.099  11.583  13.484  0.0305  0.2598 -0.2156
25818W        W43342   6.512   1.612   2.364  0.1596 -0.1304 -0.0340
25819W        W43343  10.211  15.311  12.224 -0.0967 -0.1699 -0.0882
25820W        W43344  10.496   2.314   4.343  0.0318 -0.2198 -0.0088
25821W        W43345   8.708  13.412  11.849 -0.2894  0.2037  0.2928
25822W        W43346   9.756   8.770  14.941  0.0880 -0.1938  0.0963
25823W        W43347  16.541  10.362  13.185  0.2107 -0.0602  0.0142
25824W        W43348   2.302  13.817   4.939  0.2099  0.0848 -0.1830
25825W        W43349   8.108  15.993  14.860  0.0844 -0.1066 -0.1656
25826W        W43350   4.379  11.309   2.460  0.1731  0.1747 -0.0971
25827W        W43351  17.363   3.011  13.184 -0.1506 -0.1656  0.2226
25828W        W43352  10.681   2.043   0.075  0.3299 -0.1569 -0.3967
25829W        W43353  14.162   1.238   0.053  0.2337 -0.1022  0.2241
25830W        W43354  11.305   8.980  15.242 -0.3153 -0.3838  0.0305
25831W        W43355   5.692   0.344   2.143  0.0787 -0.2401 -0.1208
25832W        W43356  11.432   1.209   2.438 -0.0112  0.0705  0.0483
25833W        W43357  13.907  10.478  14.610  0.4707  0.3936 -0.0766
25834W        W43358   5.355  16.323  11.447 -0.0263 -0.4043  0.1658
25835W        W43359   7.279  15.262   3.466  0.0400 -0.0457 -0.1261
25836W        W43360   0.158   9.590   1.254 -0.0726  0.1533  0.1330
25837W        W43361  17.215   3.604  14.290 -0.0650 -0.0075 -0.1434
25838W        W43362   4.897  10.024   4.050  0.2289  0.2112 -0.0258
25839W        W43363   5.924   7.045  15.807  0.3567  0.3015  0.0722
25840W        W43364   1.290  12.226  11.363  0.0514 -0.1457  0.2153
25841W        W43365  12.489   8.678  13.617  0.1952  0.1602 -0.1696
25842W        W43366   2.189  12.542   5.036  0.0137 -0.1717 -0.1573
25843W        W43367   0.827  13.754  12.653  0.1516  0.2267  0.1819
25844W        W43368  13.227   4.673   2.753  0.1579 -0.0734  0.2335
25845W        W43369  17.914   2.608   1.432 -0.1262  0.2168 -0.3655
25846W        W43370   2.108   8.263  12.886 -0.1589  0.3452  0.1603
25847W        W43371  13.011  11.618  16.031 -0.0962  0.1223  0.0395
25848W        W43372   3.834   3.285  14.480  0.0356  0.2738  0.1880
25849W        W43373  15.088  10.481   4.249 -0.0801  0.0411  0.1426
25850W        W43374  16.740  10.216   2.586 -0.0874 -0.0512 -0.2405
25851W        W43375   0.837   2.032   4.640 -0.0556  0.0782  0.1634
25852W        W43376   4.978   8.276   2.559  0.0273 -0.0718  0.1718
25853W        W43377   1.115   5.564   1.611  0.2401 -0.0491 -0.0097
25854W        W43378  14.999  15.104  11.278  0.0594 -0.0099  0.2206
25855W        W43379  16.186  16.349   0.384  0.1173  0.1533 -0.1240
25856W        W43380  12.577   5.229   0.408 -0.0639 -0.1601  0.0382
25857W        W43381   1.063   9.361   3.042 -0.1402 -0.1461  0.1857
25858W        W43382   7.344  17.781   4.717  0.4804  0.2404  0.3023
25859W        W43383   8.750   0.140  16.015 -0.2903 -0.0474  0.0541
25860W        W43384   6.395  13.990  12.936 -0.1141 -0.1385 -0.3632
25861W        W43385  12.920  11.216  12.912 -0.0322  0.0846 -0.2416
25862W        W43386   3.723   0.961  13.254 -0.0641 -0.2639 -0.3384
25863W        W43387   8.868   1.322   3.495 -0.1626  0.0976  0.1634
25864W        W43388  15.276   4.753  13.631 -0.3649  0.2248 -0.1088
25865W        W43389  10.884   5.101   0.999 -0.2720  0.0109  0.0128
25866W        W43390  12.770  17.123   2.579 -0.0285  0.0975 -0.0014
25867W        W43391  13.066  17.291   3.136 -0.0833  0.2464 -0.0525
25868W        W43392  10.568   7.770  14.287  0.1840 -0.0420 -0.0462
25869W        W43393  13.782   3.987  12.157 -0.6216  0.1211  0.3073
25870W        W43394  16.759  12.899   3.452  0.0084 -0.1816 -0.0745
25871W        W43395  11.787  13.577   2.012 -0.1208 -0.3611  0.1442
25872W        W43396  14.127   6.001   4.727 -0.0159 -0.0812 -0.0886
25873W        W43397   4.375   3.885  10.131  0.3378 -0.1056 -0.0892
25874W        W43398   3.523  15.769   1.298 -0.3924  0.1048 -0.1092
25875W        W43399   9.365   0.316  11.265 -0.0641 -0.0088 -0.0305
25876W        W43400  13.129  11.122  15.767  0.2441 -0.1453  0.0491
25877W        W43401   0.673  10.323  13.261 -0.0075  0.2680  0.1178
25878W        W43402   7.575  17.024  11.326  0.1785  0.1115  0.1984
25879W        W43403  14.719   3.621   3.147  0.1891 -0.4601  0.0927
25880W        W43404  13.627   6.006   4.767  0.0753  0.1433 -0.3682
25881W        W43405  17.897  15.747  13.544  0.3062 -0.1090 -0.2264
25882W        W43406  17.466   0.003   2.627 -0.1692  0.0297  0.3840
25883W        W43407   9.220  15.569  11.678 -0.2858 -0.1500 -0.1811
25884W        W43408   4.348   0.679  11.721 -0.1648 -0.0470  0.0202
25885W        W43409   4.526   2.967  12.240 -0.0089 -0.1675 -0.2305
25886W        W43410   8.168  17.173   2.087  0.0533  0.3154 -0.1616
25887W        W43411  13.618  17.158   5.445  0.1979  0.2557 -0.0466
25888W        W43412   3.871   0.239   2.278 -0.0794  0.4820 -0.0839
25889W        W43413   9.350   9.580  12.209  0.1332  0.2070  0.1549
25890W        W43414  12.364  17.547  13.287 -0.2266 -0.0006 -0.3692
25891W        W43415   4.084  16.527   2.510  0.0069 -0.0729  0.0519
25892W        W43416   9.994   4.495  13.297  0.3432 -0.1717 -0.2859
25893W        W43417   4.485   8.290  12.149  0.1223 -0.3893  0.4645
25894W        W43418   5.171   5.325  13.318 -0.0930 -0.1105 -0.3016
25895W        W43419   4.087  15.390  12.139 -0.0740 -0.1984  0.2842
25896W        W43420  15.824   6.393  13.749  0.3690 -0.1290 -0.1469
25897W        W43421  16.133   3.965  14.361 -0.0806  0.2269  0.2963
25898W        W43422   8.169   4.418  15.573  0.0776  0.1472  0.1462
25899W        W43423   3.717  14.873  10.439 -0.1380 -0.1031  0.3030
25900W        W43424  10.180   8.648   0.391  0.0304 -0.0151  0.1023
25901W        W43425  17.890   6.858   0.909  0.1667  0.2584  0.2560
25902W        W43426   7.595  17.674   1.471  0.1637  0.0594 -0.0700
25903W        W43427  17.105   1.821   0.734 -0.1316 -0.1397 -0.0826
25904W        W43428   1.372   4.452  14.095 -0.0589 -0.0700 -0.0268
25905W        W43429   2.150  10.052  12.986 -0.1954 -0.2080  0.1952
25906W        W43430   0.604   4.023   3.873  0.2072 -0.0034  0.0963
25907W        W43431  18.078  14.657  12.737  0.0788 -0.1937  0.0001
25908W        W43432  12.128   8.518   3.571 -0.4187  0.2086  0.1021
25909W        W43433  11.652   2.560  12.093 -0.1261 -0.1414 -0.0234
25910W        W43434   0.916   2.313  14.552  0.2217 -0.1811  0.2206
25911W        W43435  12.815   8.885   1.171 -0.2113  0.1283  0.1569
25912W        W43436  12.089   2.826   2.270 -0.1131  0.1709 -0.1049
25913W        W43437   9.834   5.602  11.627  0.3389 -0.2502 -0.1218
25914W        W43438  13.703   8.493   4.908 -0.1770  0.0211  0.1605
25915W        W43439   7.885  17.243   4.318  0.0240 -0.1872  0.1376
25916W        W43440   7.550   1.507  14.457 -0.5906 -0.0317 -0.3611
25917W        W43441  14.265   2.962  15.311 -0.0386 -0.0030  0.0649
25918W        W43442  11.830  11.392   5.365  0.0264  0.1218 -0.1518
25919W        W43443   6.646  13.480   4.889 -0.0911 -0.3048 -0.0347
25920W        W43444  12.701   4.429   5.020  0.0204 -0.1673  0.3497
25921W        W43445   3.473  10.996   1.173  0.1247  0.0215 -0.1214
25922W        W43446  14.756   5.486  11.626  0.0191  0.0342 -0.0214
25923W        W43447  12.603   8.461  12.726  0.0970 -0.2724  0.0949
25924W        W43448   0.651  15.151  11.740 -0.3092  0.1473 -0.0851
25925W        W43449   3.544   7.483   1.169 -0.2822  0.1554  0.0586
25926W        W43450   7.655   6.172  11.909 -0.1571  0.1260  0.1344
25927W        W43451  16.376  16.884  11.884 -0.3191  0.1529 -0.2380
25928W        W43452   1.731  13.025  10.817  0.0977 -0.1808  0.0875
25929W        W43453  13.380  13.803   0.776  0.1716 -0.0105  0.1523
25930W        W43454  17.758  15.985  13.996  0.0891  0.3239 -0.3222
25931W        W43455   9.175   0.165   2.217 -0.0295  0.0049 -0.1419
25932W        W43456  15.314  15.969   1.409  0.2813 -0.4543 -0.1115
25933W        W43457  17.157   9.808  15.815 -0.1207 -0.0741 -0.0755
25934W        W43458   6.202   4.462  14.526 -0.1894 -0.2615  0.0669
25935W        W43459  10.173   2.277  15.254  0.0511 -0.3256 -0.0113
25936W        W43460   3.849   6.767  12.846 -0.0285  0.1404  0.0025
25937W        W43461   4.561  14.679   0.888 -0.1035 -0.1075 -0.4177
25938W        W43462  17.559   1.295   2.718 -0.0881  0.0789  0.0274
25939W        W43463   3.066   1.921  13.626  0.3311 -0.0357  0.2788
25940W        W43464  15.874   4.371   1.249  0.0798 -0.0362 -0.0190
25941W        W43465   8.850  12.252   4.920  0.2583  0.2532  0.2641
25942W        W43466   7.108   3.509  10.811 -0.3112  0.1923  0.0907
25943W        W43467   7.348   6.982  12.066 -0.1386  0.1009 -0.0589
25944W        W43468   7.245   1.296   2.678  0.0102  0.3593 -0.0026
25945W        W43469  17.713   0.556  15.586  0.1446  0.1815  0.1623
25946W        W43470  11.943  16.842   3.675 -0.1775 -0.1466  0.1630
25947W        W43471   2.287   7.358  16.003  0.0979 -0.3386 -0.1449
25948W        W43472   1.279   7.470   4.620 -0.1333  0.1270 -0.1016
25949W        W43473  13.088  15.283   0.778 -0.2176 -0.0741 -0.1493
25950W        W43474  12.393   8.313  15.093  0.0674  0.1762  0.2656
25951W        W43475  15.937   4.830  12.386 -0.1274  0.1518  0.1042
25952W        W43476  10.778   8.049  14.732 -0.3237  0.0142  0.0129
25953W        W43477   5.078  14.373  15.561  0.0377 -0.1143 -0.2134
25954W        W43478  15.355   8.030   2.857  0.1375 -0.0513  0.0803
25955W        W43479  13.221  12.967  13.933 -0.1051  0.2234  0.1596
25956W        W43480   5.022  14.619   0.270 -0.1305  0.1392 -0.1023
25957W        W43481   6.460  16.543   0.667 -0.1911 -0.0427  0.1341
25958W        W43482   4.483   0.123  14.880  0.1231 -0.0138  0.0019
25959W        W43483   3.635   8.279  11.931  0.0386 -0.1175  0.2130
25960W        W43484  13.559  11.042   5.175 -0.1229  0.0658 -0.0869
25961W        W43485   0.547  14.481  13.879  0.0771  0.0037 -0.0815
25962W        W43486  10.017  12.010  10.214 -0.1464 -0.0195 -0.1305
25963W        W43487  14.773   4.350   0.133 -0.3024 -0.0114  0.0787
25964W        W43488   6.204   8.890  11.994  0.2691 -0.1400  0.1333
25965W        W43489  10.725  10.759   4.384 -0.1452  0.3416 -0.1543
25966W        W43490   6.027   1.084   3.216 -0.1304 -0.1561 -0.3766
25967W        W43491  10.826   4.139   0.642 -0.1192 -0.1047 -0.1990
25968W        W43492  14.858   1.988   4.885  0.2170  0.2685 -0.1611
25969W        W43493  13.621   1.729  14.331 -0.0466  0.1128 -0.1044
25970W        W43494  13.523   0.470   0.060  0.1441 -0.3151 -0.1867
25971W        W43495   1.756  14.089  13.294  0.1897  0.0769  0.1995
25972W        W43496  10.299   3.468  11.065 -0.0141  0.0233  0.1324
25973W        W43497   1.150   0.218   4.184  0.1386  0.0537  0.2378
25974W        W43498   0.339   7.941   2.408 -0.0291 -0.4052 -0.1801
25975W        W43499   7.396  17.320   4.449 -0.1867  0.0007 -0.0986
25976W        W43500  17.169   8.109  11.676 -0.0072  0.1450 -0.2163
25977W        W43501  14.923   7.536   0.298  0.1761  0.1100 -0.2139
25978W        W43502   8.900   4.427  15.411 -0.1830  0.0049 -0.1044
25979W        W43503   3.284  16.174   4.533  0.0472 -0.0946  0.1849
25980W        W43504  14.861  17.159  13.454  0.0178  0.0448  0.3509
25981W        W43505   2.734   6.825   0.402  0.0525 -0.1521 -0.0430
25982W        W43506   5.966  11.441   0.367 -0.0611  0.0194 -0.0959
25983W        W43507   0.568  12.698  15.782  0.0942 -0.0881 -0.0651
25984W        W43508  16.154  18.082   2.467  0.3201  0.0076  0.0950
25985W        W43509  13.575  10.275  15.706 -0.0711  0.0161  0.1677
25986W        W43510  15.484  13.844   3.787  0.0063  0.1639  0.1309
25987W        W43511   9.593  13.210  14.419 -0.1724  0.0978 -0.1871
25988W        W43512  16.483  15.352  12.396 -0.5095 -0.3527 -0.0872
25989W        W43513   2.357   3.493  13.950  0.0560 -0.1365  0.1779
25990W        W43514  14.060  13.257   1.893 -0.0445 -0.3681  0.2530
25991W        W43515   1.869   5.928  14.887 -0.1872  0.0249  0.2210
25992W        W43516   4.042   0.031  13.399  0.1400  0.1457  0.1248
25993W        W43517   6.567   4.100  15.601 -0.0506 -0.0275  0.2085
25994W        W43518   5.423  13.333   2.370  0.0289 -0.1558  0.1957
25995W        W43519  17.324   9.827   3.530 -0.2150  0.1314 -0.1023
25996W        W43520  13.825   4.051  12.618  0.0999 -0.0177 -0.4733
25997W        W43521  14.401  13.946   1.048  0.1214 -0.0177  0.1322
25998W        W43522   3.066   4.176  13.360 -0.0597 -0.0933  0.2110
25999W        W43523   7.477   5.334  12.654 -0.1075  0.1219 -0.0172
26000W        W43524  17.003   7.651   2.079  0.0055 -0.1985 -0.0695
26001W        W43525  13.540   8.157  15.439  0.0059 -0.0388  0.0162
26002W        W43526  13.827   9.123  14.502  0.0674 -0.1093 -0.0196
26003W        W43527  12.631   8.756  12.238 -0.0904  0.2437  0.0640
26004W        W43528   4.519   7.930  15.243 -0.0578  0.0473 -0.0541
26005W        W43529   3.993  13.731   4.796 -0.0792  0.0153 -0.0661
26006W        W43530  14.131  12.842   4.213  0.1152 -0.1725 -0.0764
26007W        W43531   6.023   7.719  12.151  0.0076 -0.0021  0.0935
26008W        W43532  10.115  12.140  11.537 -0.0732  0.1297 -0.0168
26009W        W43533   4.916   5.319   2.583 -0.2056  0.1106 -0.1739
26010W        W43534  17.922  14.714   0.179 -0.1473 -0.1433  0.2655
26011W        W43535   9.102   8.707  13.715  0.1080  0.0404  0.1263
26012W        W43536  17.266  13.383   0.737 -0.0775 -0.1473 -0.1071
26013W        W43537  11.727   9.079  14.341  0.0262  0.1461 -0.2757
26014W        W43538  13.985  11.419  12.560 -0.1977  0.2031  0.0608
26015W        W43539   7.424   9.438  14.032  0.2224  0.1119  0.1461
26016W        W43540   4.964   2.386   1.842 -0.0341  0.0663  0.0168
26017W        W43541  16.409   6.202  11.219 -0.0292 -0.0968  0.0785
26018W        W43542  10.243   6.869   3.640  0.3397  0.0625 -0.3075
26019W        W43543   6.931  14.793   4.935  0.0397 -0.0855  0.1437
26020W        W43544   8.883  10.364   1.400 -0.0141  0.2325 -0.1464
26021W        W43545   8.604   6.528  13.982  0.1761  0.1479 -0.0814
26022W        W43546   5.393  17.516  16.004  0.4386  0.5853  0.0546
26023W        W43547   1.206  14.354   1.697  0.1187 -0.1563 -0.1234
26024W        W43548  15.385  17.725  13.141 -0.1793  0.0419 -0.1167
26025W        W43549   2.834   8.158   3.679 -0.2360  0.1161 -0.0227
26026W        W43550  12.125  17.268   3.900 -0.2703 -0.0391 -0.0959
26027W        W43551  15.918   0.088   3.764 -0.1436  0.1424  0.3072
26028W        W43552  16.117   6.590  11.046 -0.0156  0.2067  0.0715
26029W        W43553   5.157   9.873   3.007 -0.1386  0.4005 -0.1099
26030W        W43554   9.486   7.182  14.948 -0.0295 -0.3247 -0.0994
26031W        W43555   9.724   9.189   3.177  0.4510 -0.0132 -0.0968
26032W        W43556  14.350   5.792  13.537  0.2470 -0.1924  0.0368
26033W        W43557  12.315  14.243   1.275 -0.0828 -0.0265 -0.1305
26034W        W43558   6.717  14.918  11.874 -0.1909 -0.0427  0.0970
26035W        W43559  12.297   1.614  15.796 -0.0604  0.2882 -0.0283
26036W        W43560   7.615   6.507   2.145 -0.0725  0.0762 -0.0127
26037W        W43561  17.746  12.673   0.124  0.0484 -0.1303 -0.5204
26038W        W43562   2.448  14.707  12.227  0.3703  0.0528  0.2621
26039W        W43563   1.108   0.163   0.490  0.0967  0.1178 -0.0411
26040W        W43564   2.207  13.670  13.610 -0.0635  0.0022 -0.0946
26041W        W43565   8.483   0.482   4.650  0.0555  0.1454  0.2794
26042W        W43566   5.334  14.557  13.152 -0.0052  0.0423 -0.1857
26043W        W43567   2.514   7.216  12.144 -0.1697  0.0055 -0.1367
26044W        W43568   3.296  10.958  15.039 -0.1244  0.0117  0.2309
26045W        W43569   5.173  15.177  10.864  0.0895 -0.3942  0.0954
26046W        W43570   0.246  13.812  11.864 -0.0134 -0.2601  0.0992
26047W        W43571   4.860   7.417   4.111 -0.1761  0.0585 -0.1235
26048W        W43572   6.838  15.620   2.155 -0.0183  0.0998 -0.2061
26049W        W43573  13.001   8.215  12.970 -0.0262  0.1720  0.1350
26050W        W43574  16.567   7.962   0.664  0.1141 -0.0478  0.0715
26051W        W43575   5.796  16.972  14.037  0.1298  0.1496 -0.0765
26052W        W43576  13.438  16.472  15.567  0.1023  0.0212 -0.3578
26053W        W43577   1.582  14.647   4.240 -0.1347 -0.0396  0.2698
26054W        W43578  10.995  14.248  12.893 -0.1694  0.1302  0.1674
26055W        W43579  12.718   6.421  14.625 -0.1584 -0.0747 -0.1894
26056W        W43580   8.470   5.881   3.655  0.0362  0.1314  0.2084
26057W        W43581   7.668   3.508   3.419  0.0180  0.1558 -0.1244
26058W        W43582   2.714   2.263   3.208  0.2745 -0.0361  0.0431
26059W        W43583   7.852   4.030  15.341  0.0924  0.3023  0.0539
26060W        W43584   7.355   0.059   0.502  0.2934  0.0635  0.0774
26061W        W43585   6.479   4.592   1.992 -0.1552 -0.0404 -0.1544
26062W        W43586  13.177   1.268   3.275  0.3771  0.0857  0.2483
26063W        W43587   5.792  13.475  10.984 -0.4012  0.1415 -0.1279
26064W        W43588   4.821   5.626  10.116 -0.1845 -0.0126 -0.0425
26065W        W43589   7.562  16.353  13.674  0.0754  0.0321  0.0134
26066W        W43590  16.302   5.364   1.227 -0.4004  0.0184 -0.0619
26067W        W43591  13.455   2.764  12.928 -0.1913  0.3995 -0.2311
26068W        W43592  16.109  15.896   4.759 -0.1044  0.0710 -0.0034
26069W        W43593   0.836   9.839   4.965  0.1234 -0.0406  0.0469
26070W        W43594   2.975   3.165   0.254 -0.0153 -0.2077  0.2013
26071W        W43595   8.113   5.420  15.849  0.1931  0.1446 -0.0307
26072W        W43596  11.849   7.159   2.882 -0.0219  0.1845 -0.0609
26073W        W43597  12.880  15.819   3.576 -0.0516 -0.0529 -0.0068
26074W        W43598  15.781  14.739  15.567 -0.1640 -0.0239 -0.1124
26075W        W43599  13.873   2.973   1.670  0.2604 -0.0149  0.0561
26076W        W43600   9.828  15.840  11.655 -0.0759  0.0678 -0.4073
26077W        W43601   7.659   4.481   3.536  0.3826  0.0894 -0.2229
26078W        W43602   1.422  12.912   0.149 -0.1208 -0.3372 -0.0053
26079W        W43603  14.833   4.061  15.537  0.2556 -0.2899 -0.1459
26080W        W43604   7.763  10.163   0.368  0.3043 -0.1431 -0.0249
26081W        W43605   3.753  13.751   1.721 -0.1609 -0.2201  0.2018
26082W        W43606   3.366   4.993  14.006  0.2456  0.3517  0.2542
26083W        W43607   8.966   4.602   0.590  0.0108 -0.0581 -0.0504
26084W        W43608   1.056  17.325   4.780 -0.4628  0.0491  0.3479
26085W        W43609  17.337  13.731   0.278  0.2288  0.4303 -0.3857
26086W        W43610   6.954   6.775   3.740  0.2875 -0.2558 -0.3297
26087W        W43611  10.942   1.536   3.724  0.0396 -0.1932 -0.2462
26088W        W43612  16.085  16.680  15.785  0.4590 -0.3517 -0.3357
26089W        W43613  11.089   7.452  11.735 -0.1225  0.0486  0.1212
26090W        W43614   4.605   8.323  13.870 -0.1975  0.1215 -0.1087
26091W        W43615  11.916   3.007   2.711  0.2334  0.1277  0.3767
26092W        W43616  13.291   2.164   0.323  0.0732 -0.1165  0.0489
26093W        W43617  14.383   0.373  11.917 -0.1122  0.2992 -0.1093
26094W        W43618   8.925  17.265   0.720 -0.0056 -0.0147  0.1485
26095W        W43619   5.890   6.580   4.455 -0.1412  0.4197 -0.1415
26096W        W43620   8.114   1.211   4.144 -0.2469 -0.3035  0.0478
26097W        W43621  10.433   8.154  11.411  0.2127  0.1032 -0.0884
26098W        W43622  17.478  10.187  11.693 -0.0438 -0.3641 -0.0089
26099W        W43623  16.105  17.886  11.382 -0.0220  0.0127 -0.0112
26100W        W43624   9.874  16.520  14.577  0.2831 -0.0626 -0.2463
26101W        W43625  12.608   5.706   1.530 -0.1688  0.0155  0.0869
26102W        W43626  12.353   1.837  10.752 -0.3403 -0.2061  0.3745
26103W        W43627  12.117  12.423   5.839 -0.0120 -0.0336  0.0035
26104W        W43628  13.765   0.481   1.512 -0.0935 -0.3143 -0.1783
26105W        W43629   1.822   0.113   5.153 -0.4064  0.0434  0.0075
26106W        W43630   4.871   9.832   3.580  0.2386 -0.0691 -0.2292
26107W        W43631  18.097   9.791  15.296  0.2879 -0.1849 -0.0483
26108W        W43632  15.610   6.691  11.123 -0.1925  0.1732  0.0019
26109W        W43633  10.971   9.918   0.339 -0.1842  0.0791 -0.1514
26110W        W43634   2.188  13.463  11.985 -0.2201 -0.0881 -0.0155
26111W        W43635   4.557   0.967   4.268  0.2940  0.1739 -0.1425
26112W        W43636   2.116  10.067   2.129  0.0968  0.0124  0.0366
26113W        W43637  15.694  16.375  12.126  0.0987  0.1292 -0.3489
26114W        W43638   9.852   7.625  15.465 -0.0129 -0.0611 -0.2451
26115W        W43639   5.635  16.649   0.926  0.0212 -0.1489  0.2067
26116W        W43640  10.962  15.488  12.748  0.0226 -0.0557 -0.0497
26117W        W43641   0.298  17.568   0.957 -0.0955 -0.1584  0.2257
26118W        W43642   0.725  15.419   1.057 -0.3372 -0.1568 -0.1769
26119W        W43643   6.912   2.289   1.748  0.3021  0.1806 -0.1264
26120W        W43644  12.905   4.008   5.175 -0.2453  0.1815  0.3541
26121W        W43645   4.168  17.217   1.731 -0.1621 -0.2907  0.1734
26122W        W43646  12.494  11.901   3.324 -0.0274  0.1187  0.3088
26123W        W43647   7.190   5.277  15.691 -0.2348  0.1523 -0.4498
26124W        W43648   0.360   3.104  12.528 -0.0965 -0.0707  0.1538
26125W        W43649   3.652   5.626   2.874 -0.2266  0.0594  0.2146
26126W        W43650  11.552   1.728   0.312 -0.0984  0.0425 -0.2017
26127W        W43651   7.797  17.382   1.878 -0.0486  0.0425 -0.4593
26128W        W43652  14.173  16.532  12.491 -0.2242 -0.3464 -0.2037
26129W        W43653   1.629   2.144  13.168 -0.1440 -0.2352  0.2280
26130W        W43654   2.656  16.071  12.522  0.0588  0.1066 -0.2125
26131W        W43655   4.076   3.398  11.439 -0.0074  0.1652  0.1497
26132W        W43656  11.225  14.713  14.416  0.0338  0.2209  0.0140
26133W        W43657   4.611  15.363   4.795  0.0178  0.0517 -0.0414
26134W        W43658  11.983   9.429  14.675 -0.2311  0.1392  0.1608
26135W        W43659  13.319  10.859   2.017  0.3502 -0.0957 -0.1327
26136W        W43660   1.136  16.519   4.778 -0.2709  0.0142  0.0334
26137W        W43661  16.983   0.976  11.502 -0.1358 -0.0351 -0.0818
26138W        W43662  14.678   1.003  14.954  0.0330 -0.1175 -0.0040
26139W        W43663   3.075   7.916  11.224 -0.1311  0.0871 -0.1039
26140W        W43664   4.863  13.261  12.023  0.0218 -0.2465  0.1028
26141W        W43665   6.830   1.856  11.938 -0.1694 -0.2816  0.0867
26142W        W43666   6.578   6.673   3.302  0.0048  0.0454  0.0480
26143W        W43667   8.704   2.078  13.141 -0.1211 -0.2439 -0.1155
26144W        W43668  15.466  15.643   4.667 -0.1873  0.1967 -0.0657
26145W        W43669   3.516   7.033   2.943  0.2199 -0.0294  0.3547
26146W        W43670  11.834  11.388   0.607 -0.0480  0.1480  0.4308
26147W        W43671   9.452  12.722  12.050 -0.0858 -0.4435  0.0891
26148W        W43672   0.241  16.443  12.839 -0.0069 -0.2951  0.1885
26149W        W43673  15.132  13.291   1.564  0.2524  0.0352 -0.0592
26150W        W43674  15.347   6.232  11.822 -0.0565  0.2155  0.0935
26151W        W43675   0.170  16.049   3.042 -0.0255 -0.1687 -0.0511
26152W        W43676   0.925  17.651   4.412  0.1469 -0.2901 -0.4836
26153W        W43677  12.124  13.926   3.667 -0.1304 -0.2021 -0.1382
26154W        W43678  11.288  17.415   1.924  0.0340  0.0695  0.0035
26155W        W43679   7.128   6.559   2.424  0.0233  0.1582  0.1610
26156W        W43680   0.940  12.756   0.502  0.2406  0.1043 -0.1695
26157W        W43681  12.754   3.735   1.740 -0.1259  0.1197  0.1949
26158W        W43682  14.578  16.411   3.502  0.1624 -0.2388 -0.2567
26159W        W43683   7.226   7.200   3.828 -0.0416  0.1467  0.0808
26160W        W43684   7.883   3.220   3.825  0.1903  0.0559 -0.1222
26161W        W43685  17.890   3.467   0.682  0.0712 -0.2353 -0.4527
26162W        W43686  10.079  14.416   1.801 -0.0570 -0.3144 -0.1094
26163W        W43687  11.594   5.187   2.775 -0.1698 -0.0509  0.0112
26164W        W43688  15.165   9.526  12.529  0.1193 -0.1333 -0.3460
26165W        W43689   0.433  10.836   2.250 -0.3425  0.2126  0.1483
26166W        W43690   1.610   8.452   5.675  0.0260  0.1174  0.0941
26167W        W43691  13.986   0.734  11.650 -0.1955  0.2908  0.0153
26168W        W43692   9.342   2.054  12.226 -0.3402  0.1013 -0.2176
26169W        W43693   3.146   1.095  11.415  0.0833  0.0634 -0.0320
26170W        W43694   5.931   5.935  12.577  0.1367 -0.1755 -0.2316
26171W        W43695  15.057   0.486   4.687 -0.1620  0.0438 -0.0561
26172W        W43696  10.794  16.606  13.205 -0.1686  0.0095  0.0595
26173W        W43697  12.605   6.775   3.528 -0.0976  0.1167  0.0811
26174W        W43698  16.951   4.954   1.965  0.2249  0.1388  0.1223
26175W        W43699  13.100   8.691  14.436  0.1242 -0.3609 -0.1786
26176W        W43700   9.787  10.772   0.371 -0.2011 -0.0409  0.1005
26177W        W43701   6.018   6.499   5.003 -0.0385 -0.0714  0.2298
26178W        W43702  15.757  17.725   1.110  0.0667 -0.0375  0.1349
26179W        W43703  10.408  10.732   1.626  0.1429 -0.0624  0.0623
26180W        W43704  15.626   2.913   3.533 -0.0304  0.0669  0.0590
26181W        W43705  12.783   3.133   3.553 -0.4078 -0.0723 -0.3023
26182W        W43706   7.640  15.304  12.819  0.0430 -0.0028 -0.1583
26183W        W43707  12.275   1.590   0.921 -0.2524 -0.0793 -0.2331
26184W        W43708   7.321  17.423  12.221  0.3355  0.0201  0.0893
26185W        W43709  10.852  10.165  15.370 -0.0028  0.0957  0.2631
26186W        W43710   1.299   6.866   4.120 -0.0828  0.2811  0.3046
26187W        W43711   0.140  17.191   1.133 -0.0294  0.2247 -0.1244
26188W        W43712   5.356   8.196  15.811 -0.0127 -0.0005 -0.1491
26189W        W43713  13.350   0.782  13.715  0.0334 -0.0005 -0.0367
26190W        W43714  15.407   5.894   0.367 -0.0442  0.2205  0.1613
26191W        W43715   0.410   7.083  13.909  0.0018 -0.1542  0.2490
26192W        W43716   5.394   0.983  12.081  0.0359  0.2232 -0.0928
26193W        W43717  10.709  11.295  13.064  0.0319  0.1972 -0.1116
26194W        W43718  12.719   0.456   0.343  0.1321 -0.2348  0.0963
26195W        W43719  13.268  14.953   5.482 -0.0753 -0.1036 -0.0674
26196W        W43720   1.228   1.281  12.243 -0.1364  0.0005 -0.0677
26197W        W43721   5.993   4.643   4.220  0.0395 -0.0785 -0.4034
26198W        W43722   4.825  14.659  15.215  0.3698 -0.3609  0.1403
26199W        W43723   7.964   7.710   3.487 -0.0133  0.1571 -0.4302
26200W        W43724  14.895   9.057  11.884 -0.1097 -0.1634  0.0325
26201W        W43725  15.983   9.622  14.127  0.0946  0.1287 -0.3020
26202W        W43726  16.959  13.799   3.077  0.1755  0.1045  0.1610
26203W        W43727   0.078   5.933   3.144 -0.0156  0.1010  0.1469
26204W        W43728   9.922   2.996  15.755  0.0460  0.0222 -0.2923
26205W        W43729   1.358  18.100  15.683 -0.0951  0.0006 -0.1451
26206W        W43730   6.236   5.912   2.107  0.0651  0.1617 -0.2545
26207W        W43731   2.786  12.143   3.677 -0.3099 -0.1310  0.0893
26208W        W43732  15.843   9.759  13.658  0.2534  0.1872 -0.0002
26209W        W43733   8.592  13.048  13.461  0.1462 -0.2291  0.1541
26210W        W43734  17.611  11.082   1.823 -0.1087  0.0465 -0.1065
26211W        W43735   5.961   1.727  13.794 -0.1640  0.0735 -0.0205
26212W        W43736   1.800   7.824   2.059  0.2570 -0.0658  0.1336
26213W        W43737  11.565   9.414   0.897  0.1443 -0.2528 -0.3811
26214W        W43738  18.067   7.548   2.010 -0.0456 -0.0625  0.2188
26215W        W43739  13.693  16.255   3.316 -0.0718  0.1140  0.1916
26216W        W43740  13.617  11.941   2.632 -0.0303  0.0246 -0.0947
26217W        W43741  13.773   4.934   0.970 -0.0632 -0.0831  0.0191
26218W        W43742   2.912  11.730  13.587 -0.3424 -0.3479  0.1656
26219W        W43743   3.533   7.952  15.964  0.1023  0.0452 -0.0799
26220W        W43744   5.471   2.997  11.738  0.0363  0.3254  0.0208
26221W        W43745  12.645   8.465   3.834 -0.1854  0.0930  0.1547
26222W        W43746  12.150   6.624   3.525  0.0976 -0.1053 -0.1723
26223W        W43747   4.282   1.793   4.218  0.2742  0.1998  0.3275
26224W        W43748  12.267   3.803   1.609  0.0183 -0.2201  0.0470
26225W        W43749  12.116  16.173  14.010 -0.2522 -0.0674 -0.2409
26226W        W43750  13.425   8.357  13.851 -0.0421  0.1678  0.3629
26227W        W43751   8.644   3.098  14.392 -0.0309  0.1962  0.0461
26228W        W43752   4.053   3.723   3.000 -0.0069  0.1254  0.0556
26229W        W43753   1.144  15.099   2.964  0.0753 -0.0305 -0.0333
26230W        W43754  10.460   0.523  13.053 -0.1860 -0.0986 -0.0369
26231W        W43755  11.917   9.087   3.416 -0.3659  0.0158  0.0861
26232W        W43756  11.441   8.212  15.551  0.0395  0.1598 -0.1126
26233W        W43757   8.311   9.363   2.953  0.0669  0.0895 -0.2681
26234W        W43758   2.658  14.350  15.312 -0.1015  0.0821  0.2426
26235W        W43759   2.592   1.839   0.238  0.2328  0.2231 -0.1052
26236W        W43760   6.145   9.510   3.668  0.0509 -0.2029  0.2603
26237W        W43761  17.603   3.828   1.006  0.2613  0.3117  0.1822
26238W        W43762   2.630   7.547  11.099 -0.0021  0.2376  0.0136
26239W        W43763  15.368  13.817  15.219 -0.2122 -0.2457  0.1085
26240W        W43764   5.363   2.761  12.178 -0.0207  0.3124  0.0466
26241W        W43765   4.464   2.235   0.574  0.0301  0.1052 -0.0728
26242W        W43766   2.966  13.944  12.247 -0.1684 -0.1222 -0.0450
26243W        W43767  10.307   3.524  13.509  0.2513 -0.0582  0.1160
26244W        W43768  13.112   4.079  13.311 -0.2127 -0.0208 -0.2687
26245W        W43769   7.044   9.227  13.733  0.3039 -0.0217  0.0592
26246W        W43770   5.513   4.655   3.628 -0.0387 -0.0996 -0.0361
26247W        W43771   5.504  10.281   2.987 -0.0339 -0.0764 -0.4842
26248W        W43772   9.349   3.343  13.175  0.1598  0.1667  0.0468
26249W        W43773  16.961   2.323  11.896  0.1779 -0.0506 -0.0247
26250W        W43774   0.632   0.802  11.054 -0.3447 -0.2193 -0.1648
26251W        W43775   0.896  12.227   0.629 -0.0217  0.1970 -0.1277
26252W        W43776   7.564   5.047  13.942 -0.0743 -0.1507 -0.3471
26253W        W43777  17.644   1.400  11.336  0.2371 -0.0388  0.0972
26254W        W43778  11.484  11.822   2.454  0.0567  0.2331  0.1523
26255W        W43779   8.181  12.340   0.747 -0.0291  0.0537 -0.0687
26256W        W43780  16.320   0.288   4.460 -0.0693  0.0654 -0.1357
26257W        W43781   8.648   3.842   1.704 -0.0496  0.1338 -0.0542
26258W        W43782  10.278   0.113  13.818  0.0193 -0.0388 -0.1226
26259W        W43783  17.176   5.461   3.971  0.2027  0.0443 -0.1203
26260W        W43784  14.227   4.096  14.399  0.0960  0.0353 -0.2033
26261W        W43785   0.232   3.016  13.504  0.2712 -0.0546 -0.0495
26262W        W43786   0.057  11.255  15.625 -0.0695  0.0327 -0.0204
26263W        W43787   0.989   3.419   0.023  0.0339  0.0327 -0.3200
26264W        W43788  11.214   2.478   0.150  0.2681  0.4297 -0.0697
26265W        W43789  12.210  16.520   1.001 -0.5081  0.3053 -0.3085
26266W        W43790   8.504   3.997  13.274 -0.0868  0.4113  0.1318
26267W        W43791  11.331   5.594  15.251  0.3367  0.1861 -0.2871
26268W        W43792   1.429   7.029   1.831  0.1064  0.1920 -0.1734
26269W        W43793  14.145   1.470  14.450  0.1446 -0.1279 -0.0153
26270W        W43794   4.235   2.794   3.027  0.2312  0.1648 -0.0391
26271W        W43795  14.767  16.100  15.267  0.4456 -0.0492 -0.0846
26272W        W43796  11.942  12.126   2.362  0.1645 -0.2072 -0.1639
26273W        W43797  11.880  16.794   2.229  0.2301  0.3204  0.1612
26274W        W43798   9.365   8.481  11.410  0.0016  0.0598  0.0860
26275W        W43799   2.745   0.540   1.984 -0.0309 -0.0760  0.1821
26276W        W43800   0.301  17.867  15.279 -0.0701 -0.1194 -0.0498
26277W        W43801   0.805   3.168   3.117  0.1082 -0.0890  0.1230
26278W        W43802  16.558   7.873   4.590 -0.3841  0.1364  0.0805
26279W        W43803   6.317  14.386  13.216  0.1518 -0.2803 -0.0398
26280W        W43804   0.295   5.595  14.948 -0.0365 -0.2176  0.1589
26281W        W43805   1.221   4.868   2.412  0.0767 -0.0201 -0.0390
26282W        W43806   1.472   5.617   4.938 -0.0571 -0.0134  0.0619
26283W        W43807  16.063  14.525  14.182 -0.0607  0.1748  0.0920
26284W        W43808   7.253   2.130  15.754  0.3007 -0.1160  0.0137
26285W        W43809   2.868   0.623   3.045 -0.0891 -0.1645 -0.0964
26286W        W43810   2.571   4.128  13.552  0.2823  0.2665 -0.1615
26287W        W43811  18.024   0.211   5.278  0.2749  0.1267 -0.0750
26288W        W43812   6.913  10.996  12.880  0.2909 -0.0677 -0.3551
26289W        W43813  14.674   3.222   4.289  0.0128 -0.0840  0.3452
26290W        W43814   3.022   9.551  13.673  0.0129 -0.1433  0.0531
26291W        W43815   2.871  15.072   1.422  0.2545 -0.1287 -0.0990
26292W        W43816   2.517  12.899  13.669 -0.0179  0.2347 -0.0478
26293W        W43817   0.963  15.464   1.944 -0.0258 -0.2756 -0.3919
26294W        W43818   6.264   3.688  14.048  0.0998 -0.2218  0.1139
26295W        W43819   3.354  16.506   0.886 -0.1035 -0.0021  0.2060
26296W        W43820   8.940   0.080   1.307  0.0464 -0.1430  0.1011
26297W        W43821  17.872  16.706   2.579 -0.1289  0.3157 -0.3150
26298W        W43822   5.603  17.682  10.403 -0.0373  0.0265  0.1762
26299W        W43823  11.251   2.212  12.104 -0.1252  0.0403 -0.1129
26300W        W43824   5.387   8.043   3.666 -0.0919 -0.0840 -0.1408
26301W        W43825   3.772  14.100   0.838 -0.0312  0.0330  0.1639
26302W        W43826   8.728   8.807  14.745  0.0062  0.0999  0.0394
26303W        W43827   9.986   1.878  14.383  0.0384  0.0525  0.0416
26304W        W43828  16.172   5.828   2.921  0.0057  0.0566 -0.0766
26305W        W43829   9.921  10.504   4.774 -0.1978  0.1444  0.0757
26306W        W43830   5.576   1.305  11.107 -0.1872  0.1619  0.2201
26307W        W43831   5.882  10.104   5.322  0.0192  0.0662 -0.0446
26308W        W43832   2.520   6.536  16.018  0.0819 -0.0548  0.1463
26309W        W43833  17.764  17.813   2.234  0.2492  0.0038 -0.3133
26310W        W43834  12.947   9.969   2.076  0.0829 -0.3696 -0.0707
26311W        W43835  16.149  13.092  14.075 -0.0144 -0.4221  0.1394
26312W        W43836  15.857   7.686   1.103  0.2910 -0.3751  0.1498
26313W        W43837  17.537  12.684   3.525 -0.0054 -0.0964  0.1929
26314W        W43838  10.038  17.284  15.811 -0.0047 -0.0821  0.0329
26315W        W43839  12.568  14.387   3.564  0.1017 -0.5761 -0.3877
26316W        W43840   9.038   3.506   1.579 -0.2284  0.2553  0.1542
26317W        W43841  18.018   2.560   5.211  0.0053 -0.0854 -0.1948
26318W        W43842   8.386   3.504  12.978  0.1888  0.0649  0.2733
26319W        W43843   4.192  14.726  11.664 -0.0260  0.0611  0.3790
26320W        W43844  12.382   2.440  14.774  0.2197 -0.2373 -0.0561
26321W        W43845   5.212  13.054   4.167 -0.1021 -0.0738  0.3652
26322W        W43846  13.392   4.026   0.521 -0.0380 -0.1679  0.1082
26323W        W43847   9.085   7.552   0.996 -0.4388  0.3265  0.0699
26324W        W43848   0.673   2.401  13.489 -0.1097 -0.0444 -0.0925
26325W        W43849   7.068  10.355  14.089 -0.1244  0.2069  0.1556
26326W        W43850   6.220   9.102   0.823 -0.1038  0.3154  0.1146
26327W        W43851   6.382  16.709   2.591 -0.2655 -0.1402  0.2386
26328W        W43852   4.513  16.984   0.649 -0.4073 -0.0986  0.2294
26329W        W43853  17.384   5.741  12.794 -0.2001  0.1741 -0.4181
26330W        W43854  16.759  17.658   4.332 -0.0930  0.1559 -0.0689
26331W        W43855   5.966   0.325   3.761 -0.1176  0.2858 -0.1050
26332W        W43856   4.073   1.031   2.573 -0.3083 -0.0733  0.1830
26333W        W43857  10.489   9.994  13.140 -0.1877 -0.2249 -0.1022
26334W        W43858  16.709  15.117   4.987  0.1561 -0.5223 -0.1983
26335W        W43859   5.717   9.328   2.046  0.0005 -0.1902  0.2622
26336W        W43860  13.606   4.573   4.291 -0.0536  0.0499  0.2852
26337W        W43861   4.208   7.195   1.940  0.3194  0.0881 -0.2476
26338W        W43862  13.635  17.188   4.665  0.1254  0.0507  0.0531
26339W        W43863   9.148   5.421  11.118  0.0521  0.1132  0.3966
26340W        W43864   7.218  15.433  12.547  0.2948  0.2298  0.3028
26341W        W43865  11.483  10.910   3.205 -0.0191 -0.1785 -0.0794
26342W        W43866   8.335   8.025   4.654 -0.2848  0.1471  0.0562
26343W        W43867   2.110   0.831  12.082  0.1957 -0.0503  0.0994
26344W        W43868   8.459  10.028  12.367 -0.2784 -0.0388 -0.2174
26345W        W43869   8.728  16.997  12.298 -0.1261 -0.0056 -0.0700
26346W        W43870   7.462   8.720  15.643 -0.1155 -0.1740  0.0278
26347W        W43871  15.811   5.773  12.540  0.1445  0.1673 -0.0049
26348W        W43872  12.472  13.939   0.140  0.1442  0.0665 -0.0536
26349W        W43873   2.000   9.209  10.499 -0.4311  0.1650  0.2271
26350W        W43874   9.954   6.382  11.911  0.1091 -0.0084  0.0670
26351W        W43875  17.960  12.478  15.112 -0.2982 -0.0557  0.1271
26352W        W43876  11.597   8.763  13.976  0.0539 -0.1613 -0.0978
26353W        W43877  10.346  16.694  14.452 -0.1450  0.3144  0.0219
26354W        W43878   3.760  13.216   1.689  0.3265 -0.1169  0.0016
26355W        W43879   4.334   8.972   0.038 -0.1375  0.1893  0.0694
26356W        W43880   3.027   9.223  14.945  0.2807 -0.2655  0.0278
26357W        W43881  16.796   7.176   0.425 -0.3732 -0.0899  0.0758
26358W        W43882   8.501   8.942  14.299 -0.1940 -0.1820 -0.0356
26359W        W43883   9.675   2.271   3.263  0.0577 -0.3903  0.0783
26360W        W43884   2.113  15.708   5.576 -0.0157  0.1099  0.0183
26361W        W43885  14.022  17.828  11.684 -0.0726 -0.1706  0.2478
26362W        W43886   5.100   3.366   0.466  0.1328  0.0890  0.0971
26363W        W43887   7.530   0.773  15.524  0.1316 -0.0488  0.0069
26364W        W43888   2.085   7.424  13.167 -0.0661 -0.1021 -0.1875
26365W        W43889   9.532  16.476  15.457 -0.0676 -0.4178  0.1868
26366W        W43890  15.006   3.509  12.402 -0.1244  0.1093  0.2196
26367W        W43891  13.736  10.014  12.517  0.0218  0.0981 -0.1362
26368W        W43892   1.982  11.326  13.795  0.0641  0.1289 -0.0545
26369W        W43893  14.302  13.923   3.463 -0.0378  0.0258 -0.0690
26370W        W43894   8.332   1.227   3.445 -0.0924 -0.0741  0.0069
26371W        W43895  14.518  15.835   0.760  0.1559 -0.0721  0.0545
26372W        W43896   8.628   5.199  15.994  0.2827 -0.2123  0.2273
26373W        W43897   6.438   8.604   3.334  0.3177 -0.0646 -0.2066
26374W        W43898   9.309   8.592   3.566  0.1672 -0.4110  0.2827
26375W        W43899  10.849   9.705  12.978  0.1842  0.0001 -0.0910
26376W        W43900  13.087  12.715  15.977 -0.0136 -0.2449 -0.2528
26377W        W43901   0.244   2.520   1.284  0.2464 -0.0528 -0.2731
26378W        W43902   9.754  16.456   1.861 -0.0169 -0.0044 -0.2162
26379W        W43903  15.544   4.775   3.449 -0.2651 -0.2044  0.1257
26380W        W43904   1.497   9.011  12.129  0.2081  0.1572  0.2674
26381W        W43905  10.427   7.421   0.807  0.0840  0.0925 -0.0570
26382W        W43906  13.594   4.057   4.161  0.5357  0.2977 -0.2288
26383W        W43907  12.786   8.821   3.512  0.0515 -0.3002 -0.0191
26384W        W43908  17.703  12.540   0.627  0.1752  0.1607 -0.0336
26385W        W43909  10.210   7.041  14.701  0.1263 -0.0764  0.0723
26386W        W43910  15.619  14.607   2.793 -0.0502 -0.1046  0.2215
26387W        W43911  14.094  12.601   0.811 -0.2045 -0.1625 -0.1101
26388W        W43912  12.608   3.223  14.288  0.2253  0.3741  0.0220
26389W        W43913   7.163   0.266   1.414  0.1795 -0.2340  0.0904
26390W        W43914   1.905  16.023  14.426 -0.1034 -0.0607 -0.2080
26391W        W43915  17.622  16.764   4.243  0.2017  0.1315 -0.2394
26392W        W43916   9.955   1.721   0.967  0.0948 -0.0270  0.0911
26393W        W43917  13.704   6.197   2.458  0.5471  0.4512 -0.2321
26394W        W43918   4.438  16.789   1.726  0.2386 -0.1030 -0.0446
26395W        W43919   7.560  13.447  12.837  0.2412  0.3235  0.1641
26396W        W43920   2.243   1.837   0.886  0.1106  0.1627 -0.0211
26397W        W43921   8.252   0.804  14.739 -0.3049 -0.1054 -0.3229
26398W        W43922   9.637   2.968   4.240  0.1746 -0.0529 -0.0641
26399W        W43923   2.575  11.788  14.370  0.3634 -0.1692 -0.0268
26400W        W43924  15.686  14.599  11.726 -0.2252 -0.3567 -0.1058
26401W        W43925   5.277   5.946   3.185 -0.0108  0.1674 -0.0452
26402W        W43926   7.254  14.745   3.530 -0.0515  0.0786  0.0051
26403W        W43927   9.151   1.641  14.587 -0.0272  0.0226  0.1251
26404W        W43928   5.039  14.027   0.261  0.1341  0.1652  0.1493
26405W        W43929  17.283  10.640  11.599  0.0640  0.1263 -0.1728
26406W        W43930  11.828   1.426   1.584  0.0730 -0.3536 -0.3346
26407W        W43931   5.935  10.310   4.847 -0.2436 -0.1813 -0.1824
26408W        W43932   1.472   6.864  11.945  0.1597 -0.0235  0.0244
26409W        W43933  16.346  18.093   3.515 -0.2949 -0.2243  0.5392
26410W        W43934  16.351  15.778  15.218 -0.1649  0.0916  0.0802
26411W        W43935   1.313  16.166   4.486 -0.1036  0.3847  0.4004
26412W        W43936   8.695   8.341  15.548 -0.3035 -0.1627  0.0472
26413W        W43937  17.378  13.164  12.731 -0.0318  0.0768 -0.1031
26414W        W43938   3.451   2.472   0.004  0.2117  0.0237 -0.0034
26415W        W43939   0.649   0.713   3.357 -0.0730 -0.1028  0.2240
26416W        W43940   9.246   0.004  15.010  0.0441  0.1936 -0.0755
26417W        W43941   1.505   2.754  11.239  0.0509 -0.1115 -0.0766
26418W        W43942   4.915  17.502  14.301 -0.0171 -0.1523 -0.0883
26419W        W43943   4.955   1.480  11.383 -0.2461 -0.2538 -0.0668
26420W        W43944  13.874  13.350  11.240  0.1593 -0.0161  0.0018
26421W        W43945  14.838   5.032  13.607 -0.0637 -0.1283  0.0174
26422W        W43946  13.232   5.666   3.902  0.0128  0.0410 -0.0197
26423W        W43947   2.279  11.534  12.069 -0.0949  0.0047 -0.2039
26424W        W43948   9.583   5.080  15.300  0.2653  0.0543 -0.3904
26425W        W43949   1.836   2.598   4.194  0.2420  0.1988  0.0668
26426W        W43950  16.860  14.537  12.562  0.2714 -0.2485  0.1061
26427W        W43951  11.870   7.658   5.364  0.1095 -0.0052  0.0688
26428W        W43952  13.350   4.769   3.558  0.0119  0.2729 -0.1628
26429W        W43953   8.497  14.051   4.358 -0.0039 -0.1758  0.0578
26430W        W43954  12.303   8.227  14.604  0.0730  0.0592 -0.3072
26431W        W43955   6.057   6.633   0.929  0.3190 -0.2214 -0.2225
26432W        W43956   3.418  13.686   3.324 -0.0573 -0.1426 -0.1854
26433W        W43957   8.880   6.326  13.665 -0.0821 -0.0013 -0.1865
26434W        W43958   0.358   7.736   0.013  0.2898  0.1636 -0.0274
26435W        W43959   9.177   5.141  13.253  0.1208 -0.1149  0.1204
26436W        W43960   1.421   3.252  14.756 -0.1014  0.1451 -0.0313
26437W        W43961  17.017   5.257   1.614 -0.4067  0.0774  0.0515
26438W        W43962  12.229   3.400   2.967  0.0282  0.2998 -0.0679
26439W        W43963  16.380   7.423   4.306  0.3021  0.1385 -0.0690
26440W        W43964  16.266  14.703   4.197 -0.1834  0.0012  0.1466
26441W        W43965  17.448  15.212  12.944  0.3559 -0.2706 -0.3386
26442W        W43966   2.565  10.936   1.126  0.1890 -0.1963 -0.1650
26443W        W43967   1.958   4.487  10.977 -0.0889  0.2579 -0.1537
26444W        W43968   0.019   0.526  11.428 -0.0350  0.0001 -0.1946
26445W        W43969  17.233  15.034  11.662 -0.0606  0.0241 -0.2487
26446W        W43970  18.089  11.696  13.456 -0.0049  0.2975  0.0462
26447W        W43971  11.552   6.292   0.388  0.1367 -0.1145 -0.0779
26448W        W43972  15.824   0.879  12.136 -0.1735 -0.0054 -0.1743
26449W        W43973   4.132   8.024  13.068  0.2100 -0.0157  0.1786
26450W        W43974  12.976   7.831   2.517 -0.1816 -0.0857  0.0105
26451W        W43975   8.196  12.363  14.757  0.0841  0.2008  0.1100
26452W        W43976  17.348  15.811  13.725  0.0531 -0.1464 -0.0115
26453W        W43977   9.720  17.318  12.261  0.1775  0.0400  0.2535
26454W        W43978   8.359   0.817  15.285  0.3988  0.0077 -0.0516
26455W        W43979   4.488  14.162   5.149 -0.1681 -0.0207 -0.0691
26456W        W43980  17.727   4.813  14.150 -0.0045 -0.0906  0.1259
26457W        W43981  14.611  12.653  13.551 -0.2847  0.1095  0.1223
26458W        W43982  10.607  10.012  14.147  0.1432 -0.0112 -0.1269
26459W        W43983   8.992   2.841  12.561  0.1076 -0.1120  0.0813
26460W        W43984  16.227  17.611   1.089 -0.2088 -0.0046  0.0275
26461W        W43985   4.971  11.260  12.975  0.1203  0.2462  0.0907
26462W        W43986   0.773  12.683  11.878  0.2559 -0.0460 -0.3106
26463W        W43987  17.727  17.832  12.699 -0.2440  0.0100 -0.0136
26464W        W43988  15.899  15.306  15.773 -0.0297  0.1114 -0.0578
26465W        W43989   9.916  13.404   9.958 -0.0244 -0.0819  0.1738
26466W        W43990  17.378   9.406  14.566 -0.1363 -0.0986 -0.0817
26467W        W43991   2.666   4.194  15.218 -0.1355  0.0834 -0.3048
26468W        W43992   4.997  10.794  12.132 -0.1258 -0.0849  0.1644
26469W        W43993  13.883  10.739   0.178  0.1448 -0.1248 -0.1961
26470W        W43994   6.137   9.858  11.100 -0.2606  0.0331  0.0415
26471W        W43995  10.626  14.185  12.079 -0.0386 -0.0279 -0.1221
26472W        W43996   0.697  13.251   4.763  0.2213  0.1583  0.1261
26473W        W43997   1.875  12.082   4.583 -0.3330 -0.1955  0.2021
26474W        W43998   4.147   5.867   4.107 -0.1113  0.1071 -0.1047
26475W        W43999  16.625   0.197  15.558  0.2871 -0.0300  0.1533
26476W        W44000   1.465  12.226  14.533  0.1210 -0.0144 -0.1998
26477W        W44001   5.516   9.957   0.416 -0.3148  0.0493  0.0829
26478W        W44002   4.007   8.813   2.708 -0.1479  0.0321 -0.0294
26479W        W44003  12.490   0.215   4.995  0.3424  0.0472  0.4935
26480W        W44004  11.041  13.713  13.222  0.0452 -0.2485  0.3193
26481W        W44005  10.642   5.314   2.672  0.0976 -0.0230  0.1187
26482W        W44006  13.208   0.598   0.415 -0.1319  0.0958  0.2085
26483W        W44007   9.885  13.650  14.490  0.2582  0.3547  0.0840
26484W        W44008   6.980   5.754   3.657 -0.2057 -0.0652 -0.2877
26485W        W44009   3.566   9.935   3.576 -0.0634  0.1749 -0.1558
26486W        W44010  10.743  16.810   1.260  0.2555  0.2551  0.2108
26487W        W44011  14.695  15.849  11.536 -0.1675 -0.0962 -0.2647
26488W        W44012   1.303  11.617  14.447 -0.2719 -0.1777  0.3343
26489W        W44013   5.566   0.807  14.278  0.0626  0.0056  0.0362
26490W        W44014   5.927  17.078   2.849  0.2876 -0.0791  0.1330
26491W        W44015  11.487   3.378  12.819 -0.2868  0.4168  0.2144
26492W        W44016   9.821   1.959  12.512  0.0754  0.0554 -0.0808
26493W        W44017  12.576   5.985  14.103 -0.0089  0.2127  0.3145
26494W        W44018   9.777   7.535  14.010 -0.1899 -0.0527 -0.3445
26495W        W44019   8.564   5.453  11.098  0.0643  0.1888 -0.0035
26496W        W44020  12.579   8.277  11.447 -0.2746 -0.0431 -0.0039
26497W        W44021  17.572   3.377  12.615 -0.0839  0.1796  0.0646
26498W        W44022   7.265  16.923   1.004  0.0200 -0.4176 -0.0219
26499W        W44023   6.826  11.313  15.679  0.1403 -0.0254  0.0362
26500W        W44024   8.870  13.573   4.503  0.0732  0.0676 -0.1993
26501W        W44025  15.753   6.663  15.503 -0.1101  0.1826  0.0221
26502W        W44026   0.675   5.614   3.676 -0.1107 -0.4400  0.1196
26503W        W44027  12.840   5.540  15.686 -0.0426 -0.1430 -0.0051
26504W        W44028  10.923   9.702   4.622 -0.1812 -0.0085  0.1148
26505W        W44029  10.687   6.899   0.103  0.1823 -0.4506 -0.1430
26506W        W44030  11.885  13.464   3.672 -0.0703  0.0002 -0.2071
26507W        W44031   0.266  10.875  15.325  0.1249 -0.3180  0.1084
26508W        W44032  16.602   7.043  13.675 -0.1912 -0.1409  0.0095
26509W        W44033  10.380   5.609  14.865  0.2755  0.2297 -0.2500
26510W        W44034  17.495   5.104   0.466  0.1487  0.2536  0.1236
26511W        W44035   0.288   1.697   0.281 -0.0271 -0.0808 -0.3714
26512W        W44036  10.772   3.478   2.063 -0.1281 -0.2189  0.1368
26513W        W44037   1.977   1.852  11.331  0.1390  0.1034 -0.0233
26514W        W44038  16.027   0.366   5.353  0.1105 -0.0476 -0.3744
26515W        W44039   1.911   5.121   2.537  0.0485 -0.0168  0.2138
26516W        W44040  15.153   1.422  13.994  0.0191  0.1519  0.1402
26517W        W44041  10.039  16.601   0.997  0.0117  0.1129 -0.1614
26518W        W44042  14.353  12.578  11.510 -0.0104  0.1608 -0.1948
26519W        W44043  17.793   6.036   4.147 -0.2091 -0.0573  0.1668
26520W        W44044   6.048  17.039   4.812  0.0731  0.3992  0.1029
26521W        W44045  13.087   2.375  11.220  0.1467  0.1800 -0.0827
26522W        W44046   9.041   0.570  15.842 -0.1960 -0.0628 -0.0273
26523W        W44047   0.973   8.191   3.266  0.4290 -0.1973  0.0951
26524W        W44048  13.052   6.463  13.060 -0.0769  0.0393  0.0139
26525W        W44049   3.282  12.384  12.714  0.0024 -0.0856  0.0252
26526W        W44050   3.386   3.350   5.133 -0.1236 -0.0359 -0.3162
26527W        W44051   5.870   7.981  15.903 -0.1861 -0.1894  0.0872
26528W        W44052   4.325   3.308   2.873  0.0871  0.0649  0.0326
26529W        W44053  13.224   4.967  14.071 -0.0561  0.0897  0.3794
26530W        W44054   5.839   8.659  13.257 -0.0846 -0.3005 -0.1553
26531W        W44055  16.797  10.444   0.836 -0.0803 -0.2527 -0.0497
26532W        W44056   5.218  10.051   1.260 -0.2071  0.1698  0.0066
26533W        W44057  10.578   9.470   2.153  0.0346 -0.0604 -0.3945
26534W        W44058  16.071   7.962   0.728  0.0338 -0.0168  0.4400
26535W        W44059   8.271  16.141   4.891  0.0227 -0.0971 -0.2804
26536W        W44060  16.342   1.798   3.211 -0.4421 -0.0361  0.0147
26537W        W44061  15.973   1.482   3.946 -0.0351  0.1024 -0.0135
26538W        W44062  15.667  16.544  14.397 -0.0124 -0.1723 -0.3185
26539W        W44063   8.926  15.258  12.921 -0.0173 -0.2956  0.0820
26540W        W44064   9.158  12.531   3.223 -0.0234  0.1378  0.1201
26541W        W44065  12.650  17.346   1.956  0.2844  0.1431  0.0945
26542W        W44066  16.724   5.118  10.727 -0.0961  0.1795  0.2434
26543W        W44067   7.488   7.466  12.276 -0.0629  0.1301 -0.0564
26544W        W44068  10.924  15.385   2.941 -0.1034  0.1465  0.2033
26545W        W44069  10.426   7.314   3.353 -0.0163  0.1241  0.0511
26546W        W44070  17.528   6.959  13.966  0.0198 -0.2652  0.1899
26547W        W44071   9.923  17.476  12.725 -0.1422 -0.0363  0.0820
26548W        W44072   8.635   9.939   0.794  0.1033 -0.1056  0.0769
26549W        W44073  14.214  17.949   4.857 -0.1985 -0.0642 -0.0498
26550W        W44074   7.146   1.548  12.157  0.1873 -0.0162  0.1288
26551W        W44075   8.991  14.236  13.854 -0.1352 -0.0144  0.1662
26552W        W44076  11.253   9.549  12.158 -0.2014 -0.1766  0.2011
26553W        W44077  11.764  17.453  16.018  0.0342 -0.0041  0.1176
26554W        W44078  11.043  10.522  10.755  0.0130 -0.3823 -0.1031
26555W        W44079   7.179  14.942  15.965 -0.1353  0.1286  0.0893
26556W        W44080  12.624   7.366  13.419  0.1331 -0.2508  0.0613
26557W        W44081  14.631  10.399  13.566  0.2821 -0.0097 -0.1872
26558W        W44082   4.618   6.596   2.876 -0.2032  0.1598 -0.1136
26559W        W44083   3.621   5.807  14.898  0.2486  0.3100  0.1293
26560W        W44084  15.887   6.340  12.724  0.3460  0.1502  0.2097
26561W        W44085  13.394   8.297   1.673  0.0612 -0.1442  0.0728
26562W        W44086   5.698  10.845   2.242 -0.1572 -0.1661  0.1071
26563W        W44087  12.522   0.947   0.235 -0.1950 -0.2320  0.1714
26564W        W44088  10.327   1.665   0.012  0.1761 -0.2017 -0.0767
26565W        W44089   4.862   3.735   0.146 -0.4129  0.4263 -0.0242
26566W        W44090   1.646  13.901   0.674 -0.2344  0.0582 -0.2883
26567W        W44091   4.774  12.382   4.616  0.2232 -0.1183 -0.2286
26568W        W44092  11.987  13.137   1.766 -0.1429  0.3860 -0.0877
26569W        W44093   1.988  10.477   5.403  0.4357  0.0868  0.1510
26570W        W44094  11.171   3.846   4.797  0.0500 -0.0079 -0.1172
26571W        W44095   0.884  16.778  11.732 -0.3959 -0.1110 -0.2611
26572W        W44096   1.706   5.055  14.765  0.1398 -0.0089 -0.3690
26573W        W44097  11.617   5.740  14.272  0.2350  0.0994 -0.0862
26574W        W44098   3.126  17.777   1.910  0.1081 -0.1231  0.2358
26575W        W44099   8.544  11.099   2.755 -0.0032 -0.0581 -0.1016
26576W        W44100  10.362  12.751  12.413 -0.0318 -0.2457  0.1081
26577W        W44101   5.929  13.277   4.481  0.0240 -0.1584  0.0512
26578W        W44102  16.213   8.730   4.979 -0.0320 -0.1298 -0.0632
26579W        W44103  10.072   1.519   2.750 -0.0917  0.1489 -0.1114
26580W        W44104   7.496  14.573   2.831  0.1695 -0.0376  0.0354
26581W        W44105  14.525   3.035   0.331 -0.0801  0.0834 -0.0632
26582W        W44106   5.281   7.344   0.184 -0.2529 -0.0926  0.0221
26583W        W44107   9.113   9.729  13.863  0.0851 -0.1187 -0.1762
26584W        W44108   5.782  12.996   1.556  0.1190  0.1483 -0.1920
26585W        W44109  12.444   8.374   3.073 -0.1822 -0.2518  0.0954
26586W        W44110   0.168  15.204  15.009  0.1547  0.0655  0.0844
26587W        W44111  15.046  15.050   4.407 -0.1821 -0.0096 -0.1381
26588W        W44112   5.210  11.895  14.181 -0.1639  0.1317  0.0412
26589W        W44113  17.215   3.023   4.922  0.0981 -0.0775 -0.2993
26590W        W44114  16.319   7.273  15.059  0.0766 -0.2226  0.0962
26591W        W44115  17.708  10.110   3.666  0.1497  0.0007  0.1235
26592W        W44116   5.820  17.431  13.716  0.1150  0.0450 -0.3062
26593W        W44117   5.364   3.442  12.565  0.0577 -0.1016  0.0057
26594W        W44118   0.091  17.489   4.482 -0.0415  0.1044  0.3062
26595W        W44119   1.481  11.413   3.528 -0.4496 -0.1158 -0.0787
26596W        W44120   8.896   8.984  13.312 -0.2506 -0.0185 -0.0124
26597W        W44121   2.625  13.480  14.578  0.1018 -0.0624 -0.3787
26598W        W44122  15.794   9.660   0.946  0.0885  0.0420 -0.3090
26599W        W44123   2.792   2.437   2.177 -0.2427 -0.0147  0.0189
26600W        W44124   7.103   0.627  13.756  0.1641  0.1317  0.1428
26601W        W44125  11.993   5.083  15.084  0.2556  0.1155 -0.0909
26602W        W44126  12.839   5.700   4.938  0.3780 -0.0073 -0.0098
26603W        W44127   3.290   5.303   3.142  0.1304  0.1328  0.1065
26604W        W44128   5.825   3.296   4.028 -0.0463  0.1800 -0.2294
26605W        W44129   3.505  11.875  12.051  0.1304 -0.0266  0.3481
26606W        W44130  13.438  15.169   1.161 -0.1312  0.0668  0.0710
26607W        W44131   2.005  10.570  13.711  0.3621 -0.1210  0.0006
26608W        W44132  12.637   6.741   4.875 -0.0141  0.3257 -0.2470
26609W        W44133  14.957   2.403   0.149  0.1301  0.1117 -0.1721
26610W        W44134   3.450   4.545  15.277  0.0354 -0.1126 -0.1156
26611W        W44135   8.396   1.253  12.867 -0.1932  0.0576 -0.0080
26612W        W44136  11.329  13.736  11.442  0.0083  0.0488  0.1277
26613W        W44137   8.126  15.927  15.935 -0.4802  0.0733 -0.1136
26614W        W44138  16.656   3.588  11.387 -0.1905  0.0296 -0.3288
26615W        W44139   4.583  17.445   1.655 -0.2916  0.0623 -0.1567
26616W        W44140   5.896   5.120  12.823  0.0390 -0.0215 -0.3216
26617W        W44141  10.718  16.883  12.393  0.0709  0.2256 -0.0751
26618W        W44142  11.329   5.855   0.380 -0.1882  0.0588  0.0026
26619W        W44143   1.311  12.404  12.644  0.0600 -0.1114  0.2475
26620W        W44144  10.857   3.541   0.775 -0.1485  0.5366  0.3298
26621W        W44145  14.518  16.921   4.345 -0.1036 -0.2005  0.1491
26622W        W44146  10.663   8.884   1.897  0.1521 -0.1907 -0.1340
26623W        W44147  14.796   0.452  13.204 -0.2259 -0.3943 -0.0902
26624W        W44148   0.432   0.375  12.571  0.1077 -0.1319  0.2628
26625W        W44149   2.811  11.305   5.560  0.2443  0.0592 -0.1474
26626W        W44150  10.857  17.872  13.868  0.1581  0.0442 -0.1658
26627W        W44151  16.130   1.297  13.425  0.0242 -0.0352 -0.1352
26628W        W44152  17.292  10.368  15.098 -0.3274 -0.3588 -0.0467
26629W        W44153   2.661   3.771  12.807 -0.1102  0.0467  0.3879
26630W        W44154   5.363  11.217  11.307 -0.1330  0.0265 -0.3460
26631W        W44155  11.005  15.128   2.392  0.0785  0.2215  0.0937
26632W        W44156   1.674  17.228  13.709 -0.0087  0.2004  0.1232
26633W        W44157   8.497   8.395  11.342  0.2386 -0.1938 -0.1369
26634W        W44158   9.793   7.190  13.565 -0.4183  0.0179 -0.2288
26635W        W44159  10.488   9.018   1.359  0.2664 -0.0164 -0.0826
26636W        W44160   3.968   4.574  15.155  0.1875 -0.0989 -0.0066
26637W        W44161   7.187  14.270   2.599  0.1778 -0.1657 -0.1417
26638W        W44162   9.262   1.410   3.897  0.0029  0.1459 -0.2955
26639W        W44163  10.011  16.361  12.630 -0.1775  0.0126  0.4462
26640W        W44164  13.927   2.230  12.920  0.1523  0.5053 -0.0793
26641W        W44165  12.897   2.246  14.775 -0.0804  0.0752  0.0982
26642W        W44166   0.127   6.636   0.580  0.3334 -0.2226  0.1006
26643W        W44167   8.531  10.628   3.519 -0.2185  0.2725 -0.0697
26644W        W44168  12.641   7.330   0.728  0.3624  0.0918  0.1028
26645W        W44169  15.772   3.061   1.761  0.3831 -0.2160  0.3667
26646W        W44170   4.355  14.460   3.004 -0.2073  0.0354 -0.1071
26647W        W44171  16.260  14.159   2.630  0.0928  0.0764 -0.1747
26648W        W44172   3.245  15.397   1.198 -0.2143  0.1962  0.1511
26649W        W44173  13.262  14.609   1.950 -0.2295 -0.3587  0.2738
26650W        W44174  15.473  13.648  11.648 -0.2167 -0.2818  0.3538
26651W        W44175   3.187  11.888   3.554 -0.0883 -0.1242 -0.1727
26652W        W44176  15.258   9.012   2.109  0.1667  0.0731 -0.3893
26653W        W44177   2.328  16.659  14.654  0.1235  0.0020  0.3229
26654W        W44178   4.199  13.469   0.364  0.1521  0.0278  0.2105
26655W        W44179  12.268  14.280  15.614  0.3106 -0.0649  0.5355
26656W        W44180   8.956   5.358  15.167 -0.0277 -0.2380  0.0584
26657W        W44181  11.740   9.591   2.746  0.1555 -0.3063  0.0367
26658W        W44182   9.734   3.479  15.696  0.0270 -0.0462  0.0850
26659W        W44183  17.794  10.430  11.298 -0.0432  0.1571 -0.0460
26660W        W44184  13.132   3.100  13.430 -0.0656 -0.1708  0.0507
26661W        W44185   7.897  10.739  12.967 -0.0625  0.0732  0.0403
26662W        W44186  16.897   7.548   0.739  0.0309  0.3462  0.2387
26663W        W44187   9.074   4.741  13.555 -0.0672 -0.0839 -0.1529
26664W        W44188   8.939   2.599   1.265  0.1901 -0.0167 -0.1537
26665W        W44189   2.329   5.506   1.058  0.2524 -0.1475  0.3499
26666W        W44190   8.436  12.527  12.556  0.2849 -0.2277  0.0024
26667W        W44191  11.239  18.012   2.403 -0.1038  0.1422  0.0978
26668W        W44192   1.632   9.250   0.856  0.1573  0.2111 -0.0865
26669W        W44193   3.000  14.468   4.043  0.2711 -0.0808  0.3374
26670W        W44194   6.692   0.829  12.590 -0.1171  0.0798  0.0827
26671W        W44195  11.398   2.960   0.476  0.3257  0.2609 -0.1457
26672W        W44196   0.946  10.737   3.240  0.1233 -0.0601 -0.2069
26673W        W44197  13.763   4.573  10.192  0.0251  0.1130  0.0301
26674W        W44198  16.653   3.398  13.038  0.0713  0.0977  0.1005
26675W        W44199   2.198  13.972  12.908 -0.2707 -0.3100 -0.2233
26676W        W44200   6.573  15.714  11.341  0.2495  0.1320  0.0813
26677W        W44201  14.206   2.486  15.639 -0.0983  0.1491 -0.1373
26678W        W44202   0.372   0.107  15.650  0.0644  0.0518  0.4311
26679W        W44203   5.320  10.594  13.597  0.2443  0.1464 -0.1704
26680W        W44204   0.622  14.200  11.845  0.0790 -0.2241  0.0991
26681W        W44205  18.041   4.349  14.553 -0.2043  0.1950  0.3513
26682W        W44206   7.872   9.462  11.289  0.1272 -0.3264  0.0642
26683W        W44207  10.811   6.506  15.231 -0.0314 -0.0084 -0.2283
26684W        W44208  14.087   5.239   4.113 -0.0296 -0.1648  0.1647
26685W        W44209   5.273  10.895   0.244 -0.1500  0.2108 -0.0419
26686W        W44210  14.454   8.657   0.150  0.1097  0.1123  0.1222
26687W        W44211   9.229  16.953   1.068 -0.1402  0.0988 -0.1598
26688W        W44212  12.707   6.099  15.984  0.1400 -0.2464 -0.0844
26689W        W44213   9.728   1.631  15.268 -0.0473  0.0998  0.3252
26690W        W44214   0.494  12.769  13.995 -0.0437  0.1564 -0.0698
26691W        W44215  15.409  13.581  12.886 -0.1154 -0.1357 -0.0764
26692W        W44216   1.113   6.216   2.186 -0.0969 -0.0009  0.1256
26693W        W44217   2.365   5.025  15.565  0.0250  0.1120 -0.1695
26694W        W44218   0.150   9.142   1.492 -0.1699  0.0430  0.0040
26695W        W44219  13.948  10.551  11.949 -0.1265  0.0620 -0.1982
26696W        W44220   1.175  17.003  15.776  0.3720 -0.3672  0.0578
26697W        W44221  14.616  16.565   1.443 -0.1779 -0.0076 -0.0341
26698W        W44222   8.392  10.636  14.817  0.0988  0.0407  0.0811
26699W        W44223  17.439   4.215   0.561 -0.2939  0.2899  0.2559
26700W        W44224  13.646  14.338   1.216  0.0237 -0.0800 -0.1531
26701W        W44225  14.790   6.780   3.555 -0.0365  0.0332 -0.4138
26702W        W44226   9.998   0.947   4.450  0.0424  0.1448 -0.0683
26703W        W44227  12.403   7.341  14.325  0.0554  0.0793 -0.1868
26704W        W44228   1.348   6.620   2.191 -0.0399 -0.0147  0.2456
26705W        W44229   2.285   2.965  13.132 -0.2119  0.3189  0.0727
26706W        W44230   5.693   1.432   4.559 -0.0939  0.1293 -0.2251
26707W        W44231  12.989  12.074  11.942  0.4603 -0.1558  0.1845
26708W        W44232   4.645   3.822  15.724  0.1616 -0.2013  0.0448
26709W        W44233   0.129  16.687  12.294  0.1178 -0.0409  0.1854
26710W        W44234  16.493  12.486   3.274  0.2043  0.0912 -0.0509
26711W        W44235   9.809  12.577  13.646  0.0882 -0.0507 -0.0449
26712W        W44236  16.604  17.788  15.804 -0.0966 -0.1294 -0.2207
26713W        W44237   8.879  14.739  15.630  0.1866  0.0905  0.0056
26714W        W44238   5.321   4.068   2.416 -0.0910 -0.1757  0.0271
26715W        W44239   7.728  10.557  12.045 -0.2256 -0.0863 -0.1494
26716W        W44240   1.793  10.741   4.313 -0.2363  0.4243 -0.3755
26717W        W44241  12.673  15.511   2.782  0.1194  0.1777  0.2365
26718W        W44242   8.383   2.540   2.141 -0.0725  0.1047 -0.0613
26719W        W44243   8.307  14.839  11.758  0.1294  0.3219 -0.5524
26720W        W44244   7.580  11.758  12.666 -0.0128 -0.2112 -0.3306
26721W        W44245  14.512   1.464  11.800  0.0926 -0.1007  0.0348
26722W        W44246   7.179  14.053   0.673  0.0396 -0.2659 -0.1632
26723W        W44247   0.895  14.400  13.101  0.0247  0.2535  0.0689
26724W        W44248   8.732  15.083   2.838  0.0983  0.3695  0.0888
26725W        W44249  16.959   0.685   2.169  0.3046 -0.1971 -0.1665
26726W        W44250  15.104   4.935   3.257  0.0247 -0.0175 -0.4704
26727W        W44251  17.553   5.786   2.112 -0.1089 -0.2363 -0.3833
26728W        W44252   4.005   3.323  13.432  0.2356 -0.2718 -0.0060
26729W        W44253  15.563   7.579   0.203 -0.2357 -0.1646 -0.0187
26730W        W44254   1.237   1.520   3.616  0.0275 -0.0979 -0.0658
26731W        W44255  15.823   9.589   5.242 -0.1405 -0.2699  0.1923
26732W        W44256  15.968   5.366   2.660 -0.0452  0.0251  0.0471
26733W        W44257  15.477   3.527   4.750 -0.2129  0.1227 -0.2839
26734W        W44258   1.450   8.690  12.579 -0.1675  0.0503 -0.1232
26735W        W44259   6.798  16.227   0.036  0.0645  0.2358 -0.1562
26736W        W44260   5.527  11.907   1.931  0.0461 -0.1330 -0.0032
26737W        W44261   8.209   5.519   1.979 -0.1558  0.1375 -0.3474
26738W        W44262   2.692  14.904   0.594 -0.0467  0.1360  0.1084
26739W        W44263  16.614  13.337   3.275 -0.0852 -0.2558  0.1801
26740W        W44264  16.816  11.324  14.089  0.2760 -0.1250 -0.0628
26741W        W44265   7.578   2.861   4.042 -0.0787  0.0499 -0.2797
26742W        W44266  15.485   6.938  14.579  0.3862  0.1990 -0.1401
26743W        W44267  10.556   2.701   2.990 -0.3931 -0.2596  0.1404
26744W        W44268  15.092  10.426  13.802 -0.1482 -0.1333 -0.0561
26745W        W44269   3.703  15.514   0.912 -0.0357 -0.2511 -0.1329
26746W        W44270   7.175  15.438  15.778  0.1709  0.1740 -0.0659
26747W        W44271   5.617  14.085   4.048  0.1839  0.1506 -0.1556
26748W        W44272   8.712  15.776   4.115 -0.0220  0.0834 -0.1166
26749W        W44273   3.489   1.407   0.979 -0.1028  0.1931  0.2656
26750W        W44274   3.049  12.796  12.055 -0.4714 -0.2243  0.0569
26751W        W44275  10.340  10.359   2.916 -0.0367  0.1924  0.0474
26752W        W44276   8.815   0.017   4.737  0.0721  0.0148 -0.0285
26753W        W44277   8.500  18.001   3.925 -0.1795 -0.1091  0.0642
26754W        W44278  15.607   3.494   2.063 -0.1339 -0.0750 -0.0651
26755W        W44279   2.381  11.068   2.634  0.1893 -0.1482 -0.2086
26756W        W44280  13.171   0.053   3.833  0.3094 -0.3785 -0.1942
26757W        W44281   4.439  16.697  14.050 -0.4974  0.0275  0.1887
26758W        W44282   0.779   1.769   3.740  0.1541  0.0037 -0.3712
26759W        W44283   3.641  16.311   3.220  0.1888 -0.0023  0.0674
26760W        W44284   6.142   0.167   2.220  0.0139 -0.0465 -0.3492
26761W        W44285  17.561  15.731  12.854 -0.0257  0.2876  0.0382
26762W        W44286   0.424  16.324  14.629 -0.2007 -0.0955 -0.0065
26763W        W44287   3.035   9.129   1.864  0.0789  0.1599  0.2063
26764W        W44288   7.601   0.059  11.834 -0.0703 -0.1276 -0.2676
26765W        W44289   4.755   6.879  11.521 -0.3310  0.1404  0.0635
26766W        W44290   9.087   6.147   0.678  0.1102  0.0919  0.0966
26767W        W44291   0.677  11.025  14.299 -0.1515  0.3084 -0.0812
26768W        W44292  16.617  13.112  14.303 -0.1591  0.0481  0.0388
26769W        W44293   2.447  16.508   2.868  0.1015 -0.2607 -0.3215
26770W        W44294   4.946  17.800   1.641  0.3474 -0.1001 -0.0267
26771W        W44295  13.827  16.138  15.305  0.0270 -0.3767 -0.0512
26772W        W44296  11.676   0.373   0.520  0.4048 -0.0441  0.0853
26773W        W44297   6.154  10.904   3.391  0.1193 -0.3253  0.0026
26774W        W44298  12.479   7.416  11.550  0.1246  0.1087 -0.0087
26775W        W44299   5.554   5.232  14.648  0.0409  0.1800  0.0001
26776W        W44300  16.608   6.183   1.680  0.3221  0.0782  0.1276
26777W        W44301   0.924   6.479   3.998  0.2265 -0.0928  0.0091
26778W        W44302  10.575  15.633   3.245  0.0155  0.1462  0.0016
26779W        W44303  15.444  12.446   4.102 -0.0372  0.0830 -0.2470
26780W        W44304  15.546   8.054  14.060  0.0026  0.0446 -0.1321
26781W        W44305  13.684  17.728   0.361  0.1088  0.2270 -0.2310
26782W        W44306   0.554   1.716   0.965  0.1787  0.0391 -0.1710
26783W        W44307   9.679  16.199  15.049 -0.3551  0.0428  0.0105
26784W        W44308   1.376  16.541  13.158  0.2347 -0.0035  0.1066
26785W        W44309   5.572  17.349  13.311 -0.1787 -0.1320 -0.0915
26786W        W44310   1.972  12.188  14.468  0.2648  0.1123 -0.0264
26787W        W44311   9.447   7.860   3.169 -0.0093 -0.0170  0.0310
26788W        W44312   9.894   9.518   2.772  0.0661 -0.0370 -0.1337
26789W        W44313   1.644  12.892   1.995 -0.0600 -0.0469  0.0452
26790W        W44314   2.081   1.479   2.646  0.1785  0.2252 -0.1508
26791W        W44315  10.724  13.240   2.278 -0.0588 -0.0164 -0.1096
26792W        W44316   7.371   4.017   3.678 -0.0769  0.1415 -0.0490
26793W        W44317  17.010  17.176  15.622  0.1690  0.2188 -0.1237
26794W        W44318   6.623   4.290   2.377  0.0484  0.2238  0.0439
26795W        W44319   6.801   5.602  14.418  0.0870 -0.0741  0.0322
26796W        W44320   2.823  17.245   1.907  0.3588  0.1392 -0.1487
26797W        W44321   2.456  15.823  12.978 -0.0406 -0.0082  0.1252
26798W        W44322  17.446  12.219   2.805 -0.0331  0.0528 -0.0352
26799W        W44323  11.953  16.534   2.785  0.3961 -0.1676  0.1747
26800W        W44324   2.068  12.703   2.842  0.0900 -0.2934  0.1089
26801W        W44325   0.178  17.515   1.948  0.0567  0.0931  0.2515
26802W        W44326  12.521  10.715  14.254 -0.0086  0.0219  0.1950
26803W        W44327   9.545   4.583  15.055 -0.2361  0.1614  0.0231
26804W        W44328   2.587   6.049   1.708  0.2183  0.0594 -0.1832
26805W        W44329   8.221  12.648   1.210  0.0641 -0.0911  0.2577
26806W        W44330  10.516   0.419   2.185 -0.0639  0.2213  0.0927
26807W        W44331   2.713  14.020   4.117  0.0351  0.0157  0.1626
26808W        W44332   3.036   5.833   0.591 -0.1530 -0.0384 -0.2226
26809W        W44333   8.108   6.299   3.523 -0.0900  0.1386  0.1655
26810W        W44334   5.400  15.834   3.137 -0.0207 -0.1228  0.1395
26811W        W44335   9.438   6.026   2.260  0.3738 -0.2965 -0.2773
26812W        W44336  16.314  10.027  13.687 -0.2136  0.3113 -0.2824
26813W        W44337  16.033   0.655   0.350  0.1462  0.1347 -0.3182
26814W        W44338   8.959  11.179  14.208  0.0662 -0.0227 -0.0438
26815W        W44339   6.350   9.652   4.149  0.1063  0.0285 -0.2222
26816W        W44340   2.060  10.287  15.417 -0.2103 -0.5742  0.1183
26817W        W44341  17.602   9.007   4.602  0.3006  0.1452  0.2064
26818W        W44342   1.945   1.275   3.827 -0.0057 -0.0137 -0.1419
26819W        W44343  10.052   2.801   1.863 -0.1344 -0.1407 -0.2085
26820W        W44344   6.610   1.349   4.184 -0.0346 -0.0990 -0.0560
26821W        W44345   0.915   6.697   4.466  0.4628 -0.3944  0.1566
26822W        W44346   5.716  11.400   0.820  0.1911 -0.1139  0.1307
26823W        W44347  15.937  17.208   1.226  0.1850  0.1120  0.3674
26824W        W44348   0.408  14.534  13.177  0.3577 -0.0746  0.2795
26825W        W44349  13.996  10.314   3.625 -0.3635 -0.0417 -0.1430
26826W        W44350  17.500  11.359  13.369  0.0788  0.0424 -0.0810
26827W        W44351  11.756  16.717   1.070  0.1480  0.0496 -0.1333
26828W        W44352   7.827  13.790   0.689  0.0453 -0.0434  0.1283
26829W        W44353  10.844   1.893  13.580  0.0601 -0.0454  0.0044
26830W        W44354  11.123   8.775  14.315  0.0584 -0.2255 -0.4306
26831W        W44355   1.893   9.100   5.366 -0.3718  0.0185  0.3290
26832W        W44356   5.602   8.061   2.087 -0.1397  0.1580 -0.0477
26833W        W44357   0.428   0.700   0.454  0.2997  0.1687 -0.1094
26834W        W44358   9.066  16.080   4.431  0.2803 -0.1951  0.0606
26835W        W44359   1.823   6.315   4.464  0.1342 -0.0447  0.1121
26836W        W44360  18.089   3.605  14.384 -0.1524  0.0841  0.2580
26837W        W44361  16.579   9.419   1.522  0.0435 -0.4014  0.0573
26838W        W44362  14.218  13.970  15.731  0.1319 -0.1590 -0.0588
26839W        W44363   7.439  14.971   4.623  0.0022 -0.1760  0.4896
26840W        W44364   6.182   1.387  10.226 -0.2048  0.0238 -0.1557
26841W        W44365  10.864  13.375  15.887 -0.0907  0.1419  0.2109
26842W        W44366  14.760  15.215   3.925 -0.0663  0.1374  0.3619
26843W        W44367   1.039   3.919   2.609  0.3617  0.1480 -0.2258
26844W        W44368  16.962  13.510  11.837 -0.1358 -0.0814 -0.0116
26845W        W44369  15.570  10.777   4.645 -0.0447 -0.0096  0.3177
26846W        W44370   2.517   8.788  13.784 -0.2042  0.0711  0.1473
26847W        W44371  13.422  12.038  13.842  0.0673  0.2465 -0.0876
26848W        W44372   1.544  10.379   4.971 -0.2074 -0.0537  0.0892
26849W        W44373   8.149  11.445  14.989 -0.2018 -0.2026  0.1068
26850W        W44374   2.499   2.659  15.671 -0.0803  0.1992  0.1610
26851W        W44375  17.367  16.665   2.787  0.0506 -0.1826  0.1088
26852W        W44376   5.047  17.499   3.987  0.0415 -0.0311  0.1305
26853W        W44377   2.980   2.314   0.217  0.0319  0.1490  0.2815
26854W        W44378  10.578  13.854  13.275  0.2764  0.2329 -0.3034
26855W        W44379   9.405   2.515  12.540  0.1090 -0.1406  0.2060
26856W        W44380  11.551   3.050   1.449 -0.0312  0.1317  0.0566
26857W        W44381  12.889   0.969   1.483 -0.0086  0.1057  0.0902
26858W        W44382   4.088   8.211  15.280  0.1966 -0.0506 -0.1167
26859W        W44383  15.565   9.590   4.172 -0.0530  0.2686 -0.2662
26860W        W44384   7.323   8.692   3.302 -0.0606 -0.2721 -0.4155
26861W        W44385   3.236  13.002   5.300  0.0457 -0.2122 -0.0894
26862W        W44386   5.009  15.255  11.928  0.1937  0.2688 -0.2244
26863W        W44387   9.088   2.203  12.805 -0.1128 -0.2479  0.1184
26864W        W44388   6.992   5.521  11.306  0.0741  0.1169  0.1469
26865W        W44389  11.795  16.295   0.293 -0.0210  0.0026  0.1595
26866W        W44390  11.078   0.565  14.977  0.0906  0.3224  0.0153
26867W        W44391   4.803   7.271  12.227 -0.0859 -0.1745 -0.2307
26868W        W44392   9.318   2.767  13.681 -0.0252  0.2057 -0.1561
26869W        W44393  13.951  11.519   3.448 -0.0759  0.1825  0.1992
26870W        W44394  11.093  17.425  13.546 -0.1217 -0.0804 -0.1556
26871W        W44395  12.856   5.988   4.133  0.3745 -0.1731 -0.2088
26872W        W44396   8.428  14.662   1.440  0.2669  0.0174  0.1119
26873W        W44397   5.538  17.756   0.781 -0.3481 -0.1772  0.3033
26874W        W44398   9.098   5.399   2.254 -0.3481 -0.0789  0.0767
26875W        W44399   6.049   9.281  14.681  0.0615 -0.0355 -0.0226
26876W        W44400  13.065  16.700  15.354 -0.0587 -0.2565 -0.0238
26877W        W44401  12.197  12.695   1.609 -0.1852  0.1002  0.0226
26878W        W44402   9.162   3.835  12.512 -0.0015  0.3116  0.2561
26879W        W44403   2.232   6.797  14.492 -0.1567  0.1455 -0.0784
26880W        W44404   0.263   6.027  11.095  0.0750  0.0603  0.0851
26881W        W44405   5.421  15.992  12.386 -0.2919  0.1799  0.3800
26882W        W44406  16.739   3.471  13.843 -0.0724  0.2466 -0.1624
26883W        W44407  16.751  14.580  11.652  0.3172 -0.2173  0.2349
26884W        W44408   2.584   5.820   2.193 -0.2262 -0.0850  0.1718
26885W        W44409   8.575   2.803   4.329  0.3236  0.1184  0.0824
26886W        W44410  10.658  16.917   0.274 -0.2898 -0.0708  0.4058
26887W        W44411  15.637  12.981  13.727  0.0998 -0.0018 -0.0571
26888W        W44412   8.683   3.727   1.221 -0.3728  0.3210 -0.0752
26889W        W44413   7.806   5.989   2.161  0.2335  0.0990 -0.1292
26890W        W44414   8.467  10.846  12.889  0.0577 -0.0867  0.2854
26891W        W44415   2.138   1.798   2.290  0.3193 -0.1241  0.0144
26892W        W44416  12.783  17.221  14.632 -0.2633 -0.3926  0.0818
26893W        W44417  17.351  17.379  14.697 -0.1901  0.3882 -0.0899
26894W        W44418   8.109   3.976   0.324 -0.1167 -0.1458  0.1852
26895W        W44419  12.845   7.481   2.147  0.0133 -0.1860  0.3359
26896W        W44420  12.441   1.329  15.351  0.1380 -0.2232 -0.4839
26897W        W44421   1.965  10.755   4.866 -0.0792  0.0777  0.1628
26898W        W44422   5.848  15.462  13.998  0.2037 -0.0617  0.1243
26899W        W44423   6.751   5.252  15.979 -0.0100  0.1847  0.1057
26900W        W44424  15.749  17.978  14.087 -0.0175  0.1678  0.2461
26901W        W44425   8.768  17.333  13.262  0.0438 -0.2014  0.0347
26902W        W44426  14.449  15.338   2.349 -0.0215  0.0110  0.0779
26903W        W44427  16.772   9.997  13.434 -0.0104  0.0762  0.1009
26904W        W44428   6.714  12.836   1.229  0.0192 -0.1799  0.0558
26905W        W44429   4.398  10.033   1.155 -0.1076  0.2643  0.2025
26906W        W44430   3.598   4.719  12.713  0.0520 -0.0823 -0.1623
26907W        W44431   6.317  13.083  11.698 -0.1209  0.0117  0.0044
26908W        W44432  14.229   3.985   3.707 -0.1929 -0.1316  0.1838
26909W        W44433   2.732  14.813   1.875 -0.0058 -0.0069 -0.1199
26910W        W44434  10.882  16.691  14.388  0.2252  0.1770 -0.0843
26911W        W44435   9.912  13.002   0.209 -0.2721 -0.1110 -0.1020
26912W        W44436   4.844  16.480   1.486  0.0586  0.0801 -0.0168
26913W        W44437   3.114  15.451  13.642  0.1846  0.2400 -0.0829
26914W        W44438  16.247   9.612  11.645  0.1256 -0.0289 -0.0115
26915W        W44439   7.620  10.994   4.094 -0.2681  0.0448  0.0886
26916W        W44440  16.610  17.561   0.747 -0.1620 -0.3746 -0.3268
26917W        W44441  10.015  12.553  12.786 -0.2863 -0.0601  0.0650
26918W        W44442  10.093   7.282  12.355 -0.0611  0.0305  0.1802
26919W        W44443   9.682   5.830  14.757 -0.0493 -0.0483  0.0703
26920W        W44444   1.250   5.642  11.339 -0.1077  0.0386  0.3830
26921W        W44445  17.760   6.127  15.184 -0.2753 -0.0486  0.1045
26922W        W44446   2.324   6.947  12.938 -0.1385  0.0490 -0.1752
26923W        W44447   0.990   5.973  13.131  0.1219  0.1549 -0.0741
26924W        W44448   1.693   8.599  16.029 -0.1452 -0.2202 -0.1665
26925W        W44449  12.735  13.240   2.421  0.0971  0.1885 -0.1629
26926W        W44450   9.492   3.741   2.256 -0.0223  0.1430 -0.2271
26927W        W44451   4.617   0.934   2.450  0.0200  0.0533 -0.0887
26928W        W44452   5.422  18.079  11.036  0.4203 -0.1103 -0.0869
26929W        W44453  10.531  16.959  10.329  0.0150  0.0318  0.0321
26930W        W44454  13.412  10.343  11.304  0.0718 -0.0442  0.1740
26931W        W44455   0.643  17.953  13.871 -0.3115 -0.2511 -0.0165
26932W        W44456  14.488   0.509  14.910  0.1531 -0.0893 -0.2907
26933W        W44457  14.338   3.301   3.378 -0.0294  0.2794 -0.1709
26934W        W44458   5.724   8.552   1.916  0.0455 -0.0106  0.1423
26935W        W44459   6.000   7.106  11.220  0.2798  0.0382  0.1401
26936W        W44460   4.455   1.544  11.318 -0.4437 -0.0200 -0.1720
26937W        W44461   4.170   8.002  13.924  0.2638  0.0224  0.4203
26938W        W44462   5.708  13.821   1.648  0.0051 -0.2036  0.0987
26939W        W44463   9.778   1.278  15.656  0.3229 -0.2146 -0.0619
26940W        W44464   2.569   8.578  10.122  0.0387 -0.2973  0.0291
26941W        W44465   1.176  16.018   0.881  0.2954 -0.1801  0.2327
26942W        W44466  10.044   5.636  13.318 -0.1864  0.2843 -0.3183
26943W        W44467   5.272   7.073  13.932  0.1437 -0.0353  0.2299
26944W        W44468   5.450   2.705  11.239 -0.1172  0.1725  0.2448
26945W        W44469   3.583   4.992   1.878 -0.1883  0.2064 -0.1859
26946W        W44470   5.155  16.926   2.272 -0.1438  0.2958  0.2647
26947W        W44471   6.286   5.147   0.158 -0.0431  0.0128 -0.1304
26948W        W44472  12.060   4.990  14.461  0.0157 -0.0098  0.2080
26949W        W44473  11.178  15.244   0.478  0.0169  0.1214 -0.2631
26950W        W44474  13.948   2.097  15.645 -0.1154 -0.0378  0.0893
26951W        W44475   3.299  11.099  12.011 -0.2458  0.0099  0.1553
26952W        W44476  11.573  16.796   4.591 -0.0183 -0.2138  0.0420
26953W        W44477   8.913  11.828   0.628  0.0944  0.3315 -0.2246
26954W        W44478   1.231   3.231   2.810  0.0367 -0.0676  0.0269
26955W        W44479   0.839  14.223   5.174  0.0445 -0.1844 -0.0850
26956W        W44480   7.047   9.773   3.049  0.0814 -0.4296  0.2635
26957W        W44481  14.397   6.477  15.689 -0.0328  0.0812  0.2252
26958W        W44482   9.959   5.124  11.546  0.3211 -0.0475 -0.1476
26959W        W44483  10.395  18.126   2.048 -0.0788 -0.1337 -0.1491
26960W        W44484  12.074  13.989   2.086  0.1121  0.1738  0.1920
26961W        W44485   3.126   4.633  12.991 -0.2654 -0.3317 -0.2059
26962W        W44486   4.113   0.998  15.950 -0.1721  0.0230  0.1862
26963W        W44487   4.989  15.400  13.719  0.0261  0.2852 -0.0790
26964W        W44488   6.139  13.121   2.865  0.0835  0.1470 -0.1591
26965W        W44489  11.839   5.821   2.207 -0.0264 -0.3021  0.0606
26966W        W44490   4.903   4.775  14.107  0.1377  0.0012 -0.1040
26967W        W44491  16.706   5.873   2.902  0.0199 -0.4067  0.2163
26968W        W44492  18.009   1.706  15.581 -0.0083  0.0604  0.1418
26969W        W44493   3.516   3.819   1.296 -0.0223 -0.0042 -0.1762
26970W        W44494  17.956   2.232  15.656  0.0665 -0.0573 -0.1285
26971W        W44495  12.564   8.533   2.047  0.1068  0.1756 -0.0891
26972W        W44496   6.867   3.624   3.112 -0.0358  0.0520 -0.1007
26973W        W44497  14.239  11.268  13.023 -0.1518  0.1686 -0.0424
26974W        W44498  11.158   0.034  11.677 -0.2312 -0.1528 -0.2496
26975W        W44499   3.232  15.786  12.954  0.1488  0.1777  0.1208
26976W        W44500  10.536   5.574  12.279 -0.0667 -0.1793 -0.0787
26977W        W44501  14.602   7.422   4.767  0.2294 -0.0794 -0.2457
26978W        W44502   3.194  16.538  13.035 -0.1302  0.0196 -0.0530
26979W        W44503  13.167  14.771  15.725 -0.1630  0.1775  0.0182
26980W        W44504   5.562  15.114  14.842 -0.1044  0.2630 -0.1817
26981W        W44505   5.251   9.475  15.364  0.0890  0.3313 -0.2480
26982W        W44506  13.307   4.969   4.580  0.1670 -0.1078  0.4735
26983W        W44507   0.593   9.366   3.567 -0.0317 -0.2488  0.0916
26984W        W44508   0.058  10.480   0.982  0.2120  0.1106 -0.0273
26985W        W44509   2.194   6.621   4.499 -0.0001  0.1921  0.1577
26986W        W44510   8.137   9.575   1.464  0.0376 -0.2220  0.3176
26987W        W44511  10.439  10.566   4.845 -0.3035  0.1410 -0.3316
26988W        W44512   4.722   1.091  10.558 -0.2277  0.0534  0.0121
26989W        W44513  10.366   3.834  12.661 -0.2254 -0.1450 -0.1112
26990W        W44514   3.185  17.377   0.425 -0.0366  0.0808 -0.0938
26991W        W44515   9.367   5.436   0.999  0.0486  0.2934  0.0816
26992W        W44516  10.621   6.243  13.683 -0.1265 -0.0811 -0.1210
26993W        W44517   5.334   0.368  10.692  0.1013  0.0102 -0.2795
26994W        W44518  15.685   5.219  12.465 -0.0035 -0.2841 -0.0781
26995W        W44519  12.055   7.980  13.967  0.1309  0.2660 -0.3594
26996W        W44520  14.702  11.726   0.575  0.1654 -0.1422  0.1059
26997W        W44521  12.574   3.628   0.778 -0.0275 -0.3002 -0.0370
26998W        W44522  14.142  11.718   1.137  0.2892  0.1525 -0.0969
26999W        W44523   4.571  16.854  11.219  0.1359 -0.2728  0.1092
27000W        W44524  16.333  13.786   0.356 -0.0334  0.0582 -0.0351
27001W        W44525   7.477  12.282  14.084  0.2108 -0.2738 -0.0422
27002W        W44526  10.871  10.072  11.432 -0.1547 -0.0184 -0.2194
27003W        W44527  12.728   9.258   5.161  0.0974  0.1523 -0.0746
27004W        W44528   0.884   5.010  12.951  0.1107  0.2573  0.0114
27005W        W44529   0.785   6.594   1.179 -0.1282  0.0833 -0.4339
27006W        W44530   8.501  13.861  11.989 -0.0109  0.1918  0.3531
27007W        W44531   3.415  12.443   1.648  0.2457  0.2971  0.0658
27008W        W44532   2.149  11.523  14.375 -0.0340 -0.2852 -0.0260
27009W        W44533   7.191   9.469   1.422 -0.0015  0.0379 -0.1184
27010W        W44534   7.886  12.398   1.559 -0.0506 -0.1017 -0.0263
27011W        W44535   8.591  13.425  15.807 -0.0156  0.1322  0.0782
27012W        W44536  16.412  11.927   2.502 -0.0328  0.1878  0.3103
27013W        W44537  16.580   7.944  12.738 -0.0824 -0.0851  0.1530
27014W        W44538   1.261   7.348   0.619  0.0020 -0.0057  0.0259
27015W        W44539  10.864   8.858  12.799  0.5258 -0.3106 -0.0284
27016W        W44540  11.998   8.791   4.833  0.1233 -0.0999 -0.0512
27017W        W44541   5.485   3.768   4.932  0.3974 -0.0946 -0.0186
27018W        W44542   9.382   2.035   1.948 -0.0785 -0.0071  0.1225
27019W        W44543   8.839   2.492   2.926 -0.2039  0.0946 -0.0999
27020W        W44544   7.874  16.795   1.825 -0.1943 -0.2786 -0.1829
27021W        W44545  13.831   4.575   3.530 -0.2405  0.1770 -0.0759
27022W        W44546  12.285   1.361  14.063  0.0147 -0.1540 -0.0833
27023W        W44547   2.433   7.761  15.218 -0.0723 -0.0371  0.1084
27024W        W44548   8.595   7.443  15.672  0.0677  0.0902  0.2333
27025W        W44549  12.326   7.257   1.102  0.2415 -0.1823  0.0193
27026W        W44550  10.813  16.983  11.441  0.2155  0.1146 -0.0103
27027W        W44551   0.839  12.808   3.883  0.0617  0.1386 -0.0615
27028W        W44552   8.275   9.020   1.874 -0.2441 -0.2772 -0.0590
27029W        W44553  14.686   8.077  13.254 -0.1687 -0.1825 -0.1659
27030W        W44554  13.078  16.653  11.589  0.1400 -0.0187  0.1519
27031W        W44555  17.255   6.054  12.473 -0.0554  0.3265 -0.0256
27032W        W44556   0.913  12.179  12.885  0.0453 -0.1403 -0.0073
27033W        W44557  17.722   2.940   2.307  0.0461  0.0816 -0.1528
27034W        W44558  17.239   0.904  12.654 -0.2133 -0.0229 -0.1452
27035W        W44559   7.269   6.141   4.041 -0.4067  0.1141  0.0821
27036W        W44560   9.434   6.812  13.457  0.1653  0.1503 -0.0614
27037W        W44561   5.362  17.308   4.854  0.1833  0.3187 -0.1111
27038W        W44562  10.963   2.096   4.454  0.1241  0.0616 -0.0432
27039W        W44563   3.162   1.701   1.399  0.1887 -0.1701 -0.0390
27040W        W44564   0.351   9.731   0.744  0.1558 -0.3771  0.2478
27041W        W44565   5.760   1.573   1.153 -0.1852  0.0278  0.0203
27042W        W44566   6.345   5.821  14.517 -0.1098  0.0474 -0.1244
27043W        W44567   4.971  10.554  11.656 -0.0675  0.0299  0.1283
27044W        W44568  11.139   1.992   0.406  0.0960  0.2471 -0.0307
27045W        W44569   7.573   2.466   1.641 -0.1441 -0.1111  0.2680
27046W        W44570  16.275   7.393   2.767 -0.1363  0.0467 -0.0449
27047W        W44571  14.151   6.288   1.037  0.0562 -0.1096  0.0655
27048W        W44572  11.374   6.790  13.351  0.0658 -0.2236  0.1035
27049W        W44573  14.472   5.503  15.502 -0.3835 -0.1574  0.2406
27050W        W44574  15.955   5.931   0.303  0.2598 -0.0816  0.2000
27051W        W44575   5.310   7.311  13.233 -0.0242 -0.0198 -0.0364
27052W        W44576  14.072   3.422  10.322 -0.0429  0.0097  0.2225
27053W        W44577   2.398  15.927   1.345  0.3148 -0.1974 -0.1367
27054W        W44578  13.784   6.315  14.889 -0.0712 -0.0938  0.0632
27055W        W44579   2.286  10.381  10.502 -0.2633  0.0339  0.0200
27056W        W44580  10.803   4.768  13.390  0.1818 -0.2656 -0.0665
27057W        W44581  11.378  15.158  15.640 -0.1723 -0.0952 -0.2985
27058W        W44582  11.736   2.036  14.189  0.3373  0.1231  0.3380
27059W        W44583  13.782   0.569   3.343  0.4151 -0.1149  0.1712
27060W        W44584  11.621   5.975  15.142  0.3442  0.0751  0.3096
27061W        W44585   3.134   9.558   0.148  0.1499 -0.3042  0.1303
27062W        W44586  12.981  15.615   3.158  0.1353 -0.0274 -0.1443
27063W        W44587   2.325  10.443  12.704  0.0395  0.0331  0.1642
27064W        W44588   5.925  13.886   0.339  0.0775 -0.1673  0.0419
27065W        W44589  12.919   8.938   1.982  0.2570 -0.0889 -0.2105
27066W        W44590   9.510   2.727   0.921 -0.0841  0.0135 -0.1684
27067W        W44591   8.322   9.858  13.119 -0.1238 -0.3015  0.2891
27068W        W44592   0.534   1.068   4.855  0.1245 -0.0851 -0.2435
27069W        W44593   2.195   8.281  11.002 -0.1441  0.2184 -0.1383
27070W        W44594  10.560   9.051   5.235 -0.0390 -0.0098 -0.0838
27071W        W44595   3.976  10.639   5.467  0.0309 -0.0347 -0.2551
27072W        W44596  10.212   7.101  13.871  0.3111  0.0803 -0.2053
27073W        W44597  17.926  14.780  14.956  0.0209 -0.1362  0.1505
27074W        W44598  15.646  12.612   3.101 -0.1736  0.3156 -0.0370
27075W        W44599   1.642   2.960   1.713 -0.0331  0.0838 -0.1197
27076W        W44600   2.279   1.879  15.901  0.0576 -0.1425  0.3570
27077W        W44601   5.476   6.268   4.129 -0.1765  0.1343 -0.0938
27078W        W44602  16.902  15.972   1.112 -0.3743  0.0318  0.0496
27079W        W44603   3.165  11.549  13.181  0.2590  0.0315 -0.0443
27080W        W44604  12.851  10.984   2.102 -0.1002  0.1305 -0.1171
27081W        W44605   7.086  12.299  15.532 -0.0494  0.0046  0.2289
27082W        W44606  11.215   8.569   2.504 -0.0514  0.0608 -0.0724
27083W        W44607  16.719  14.246   1.354 -0.1374 -0.1196 -0.2269
27084W        W44608   2.653   7.208  12.636 -0.0780  0.1021  0.0144
27085W        W44609   3.546   8.559   1.061 -0.0057 -0.1976 -0.0296
27086W        W44610   0.075   0.514   5.621 -0.1101 -0.1348  0.1619
27087W        W44611   0.675   3.989  12.957  0.1447  0.2336 -0.2572
27088W        W44612   8.669   6.044   0.320  0.0264  0.0255  0.0266
27089W        W44613   9.554   6.261   4.190 -0.0984 -0.1621 -0.0940
27090W        W44614  13.032  13.832   1.801  0.0477  0.0640 -0.1409
27091W        W44615   6.833  12.342   0.711 -0.1721 -0.0510 -0.1087
27092W        W44616  13.958   9.708   2.594  0.1436  0.0229  0.3213
27093W        W44617   7.230   7.861  16.007  0.1070  0.2624  0.0218
27094W        W44618   5.931   3.481  13.766 -0.1974  0.0439 -0.1858
27095W        W44619  18.020  10.604   4.129 -0.1813 -0.1386 -0.2516
27096W        W44620   3.132   2.144  14.839  0.1556  0.0684 -0.0249
27097W        W44621  12.292  17.627   4.504 -0.1820 -0.0102  0.0845
27098W        W44622   8.097  10.279  15.330  0.1390  0.0769 -0.1042
27099W        W44623   6.151  16.726   4.389  0.1735 -0.1065 -0.3841
27100W        W44624   0.637   0.019  14.915 -0.2960  0.0263  0.0274
27101W        W44625   0.239   6.962   3.662  0.3723 -0.1893  0.1420
27102W        W44626  18.042  12.316   0.384 -0.2774  0.0968  0.0150
27103W        W44627  17.556   4.073  10.928  0.3080 -0.2294 -0.0018
27104W        W44628  17.325  14.648   4.031 -0.1655  0.1226  0.1934
27105W        W44629  12.305  11.505   1.686  0.1919 -0.0288  0.1403
27106W        W44630  16.871  10.981   2.372 -0.0120 -0.1981  0.3826
27107W        W44631   1.318  10.441   3.427 -0.3162 -0.1211  0.0769
27108W        W44632  15.964   7.707  12.553  0.1541  0.0031  0.0454
27109W        W44633  13.855   2.621  16.006 -0.0124  0.2909 -0.0030
27110W        W44634   1.168   3.459   2.273  0.0479  0.1526 -0.1854
27111W        W44635   0.170  17.909  11.071  0.1396  0.1188 -0.0122
27112W        W44636  11.607  11.360   1.063 -0.0264 -0.2342  0.0355
27113W        W44637   1.017  14.213   3.479 -0.1096 -0.1775 -0.0874
27114W        W44638  14.707  17.818   0.205 -0.1301  0.0906  0.3059
27115W        W44639   3.392  16.320   0.413  0.0642  0.0263  0.0757
27116W        W44640   9.508   7.983  13.826 -0.1212  0.1274 -0.0965
27117W        W44641   9.436   7.093   4.753 -0.3783 -0.0286  0.2486
27118W        W44642  10.166   6.802   1.942 -0.0683 -0.0719  0.1166
27119W        W44643   1.304  12.846   2.682  0.0774  0.0747 -0.1650
27120W        W44644  17.908   6.952   3.833 -0.0826 -0.0446  0.0382
27121W        W44645   9.810  12.087  13.685 -0.1451 -0.1228  0.1093
27122W        W44646   0.516   8.155  12.440  0.4703 -0.2122 -0.2742
27123W        W44647   0.117  18.087  13.628 -0.1313 -0.2769 -0.1738
27124W        W44648   1.744  14.430   3.519 -0.0252  0.0538  0.3392
27125W        W44649  15.461   3.438   1.541  0.1834 -0.3233  0.1824
27126W        W44650  13.897   8.953  13.805  0.0884 -0.0766  0.1367
27127W        W44651  11.960  17.241  14.084 -0.0909 -0.0031  0.0463
27128W        W44652  13.056   6.035  13.904  0.1325  0.0648 -0.0025
27129W        W44653  13.339  16.984  12.408  0.2347  0.0945  0.1986
27130W        W44654  10.302   1.303   2.331  0.1137 -0.2989  0.0819
27131W        W44655   4.113   6.971   5.057  0.2296  0.0647 -0.1815
27132W        W44656   2.115  12.215  16.026 -0.0348  0.0908  0.2278
27133W        W44657  17.270   7.938  11.205 -0.1495 -0.2030  0.0718
27134W        W44658  13.608  16.751  13.156  0.1226 -0.1378 -0.0966
27135W        W44659  14.911   0.224  14.443  0.2546 -0.0399 -0.1522
27136W        W44660  10.489  17.183   2.065  0.2385  0.1194  0.1132
27137W        W44661   8.103   2.927  11.489  0.0246  0.0878  0.0890
27138W        W44662   3.510   4.261  15.713 -0.2815  0.0217  0.1560
27139W        W44663   9.041  16.117   3.445  0.2533 -0.0117  0.0383
27140W        W44664  15.421  15.272   0.021  0.0457  0.3064 -0.0266
27141W        W44665   0.075  11.864   0.496  0.1342  0.0874 -0.0376
27142W        W44666  10.676  13.154  13.893 -0.1423  0.3156 -0.0140
27143W        W44667  16.153  10.460   0.588 -0.0089 -0.3291 -0.3204
27144W        W44668   0.402   1.961  15.595 -0.2918 -0.1088 -0.3462
27145W        W44669  15.492  16.038   0.460  0.0844  0.2224 -0.2552
27146W        W44670  18.002  16.595  15.516  0.2883 -0.1738  0.1414
27147W        W44671  13.147   2.887   3.832  0.1016 -0.1746  0.1352
27148W        W44672   2.849   1.751  15.758 -0.2316 -0.1218  0.1593
27149W        W44673  13.684   5.563  11.712 -0.0976 -0.0288 -0.2025
27150W        W44674  11.230  10.439   4.905  0.2114  0.0385  0.0148
27151W        W44675  11.239  12.703  15.638  0.0230 -0.0209 -0.0568
27152W        W44676   4.286   0.246  12.575  0.1363  0.0563  0.0685
27153W        W44677   7.156   9.954  14.832 -0.0615  0.3054 -0.2380
27154W        W44678   7.321   6.375  14.667 -0.2276 -0.3431 -0.2293
27155W        W44679  15.056  14.977  15.101  0.0774  0.0504 -0.0682
27156W        W44680   4.074  13.083  13.186  0.2388  0.0179  0.2017
27157W        W44681  13.051  10.031   3.848  0.0921  0.0926 -0.2532
27158W        W44682   4.839  12.673  11.337 -0.1099  0.3030 -0.0521
27159W        W44683   7.747  13.868   3.313  0.3369 -0.0349 -0.1278
27160W        W44684  16.059   2.224   4.510  0.0270  0.2571  0.0164
27161W        W44685  16.918   6.700   0.617 -0.2002  0.3535  0.0351
27162W        W44686  17.856   8.264   3.692 -0.2105 -0.1410 -0.1783
27163W        W44687  12.361  17.555  13.948  0.3289 -0.0754 -0.0361
27164W        W44688  11.916  17.548   3.070  0.0502  0.0581 -0.0539
27165W        W44689   7.562  14.669   0.071 -0.1061  0.2581  0.2481
27166W        W44690   2.880   4.564  10.998 -0.0313 -0.1987 -0.3111
27167W        W44691   9.322   7.336  12.280  0.1065 -0.1928 -0.1712
27168W        W44692  13.621  18.031  11.990 -0.1073 -0.1561 -0.0385
27169W        W44693   5.324  15.998  11.870 -0.0208 -0.2472 -0.3042
27170W        W44694   7.410  11.539  11.954 -0.1792  0.2490  0.1775
27171W        W44695   7.146  10.621  15.431  0.1078 -0.3943 -0.3681
27172W        W44696   4.948   5.256  11.958 -0.1998 -0.1068 -0.3152
27173W        W44697   4.740   2.938   3.123  0.2080  0.1733  0.2495
27174W        W44698   3.837  10.314  12.216  0.3246 -0.2787 -0.1780
27175W        W44699  14.593   7.357   0.705  0.0558 -0.0419  0.1579
27176W        W44700   9.185   2.534   1.733 -0.1418  0.3579 -0.0803
27177W        W44701  11.159  16.564   0.952 -0.3678  0.2925 -0.0658
27178W        W44702   3.551   7.682   2.825  0.1677 -0.1291  0.2704
27179W        W44703   6.027  17.424   3.701 -0.1148  0.0004 -0.0335
27180W        W44704   7.657   3.126   3.113 -0.0861  0.3606  0.0306
27181W        W44705  17.121   9.127   4.533  0.1316  0.3057 -0.0213
27182W        W44706   8.470   1.944   2.928  0.1503 -0.1647 -0.2960
27183W        W44707  13.878   0.226   1.076  0.1721 -0.1568 -0.3300
27184W        W44708  15.016  11.491   0.145 -0.1202  0.0256 -0.0211
27185W        W44709   6.375  13.042   4.704 -0.3803 -0.0342  0.1341
27186W        W44710   9.467   2.876   2.045  0.0563 -0.1557 -0.1397
27187W        W44711  10.025   0.891  11.729 -0.1714 -0.3185  0.0943
27188W        W44712  15.111  12.479  11.749 -0.1448  0.1384  0.3374
27189W        W44713  15.279   8.280  15.839  0.0135 -0.0502  0.0564
27190W        W44714   4.517  16.146   3.396  0.2784  0.2336 -0.1187
27191W        W44715  18.042   3.575  13.030 -0.0238 -0.2918  0.1134
27192W        W44716   0.986   3.062   1.248  0.1126  0.0598 -0.1512
27193W        W44717   2.697   4.634   4.079 -0.0668  0.1778 -0.1537
27194W        W44718  11.634   5.189  15.471 -0.0528  0.3624  0.1554
27195W        W44719   2.635   5.039  14.604  0.2129 -0.0123 -0.5679
27196W        W44720   0.607   1.918  13.774  0.0189  0.1405 -0.1327
27197W        W44721   3.159   1.501   2.671 -0.1532  0.0708 -0.2663
27198W        W44722  15.178   4.326  12.255 -0.0163 -0.2965 -0.0275
27199W        W44723   3.070  17.755  13.695  0.1812  0.0383  0.1321
27200W        W44724   0.407   9.676   2.824  0.0044  0.1492 -0.1093
27201W        W44725   3.803  17.414  13.138 -0.0659 -0.0219 -0.0529
27202W        W44726  11.190   6.815   5.367 -0.0687 -0.1803  0.0616
27203W        W44727   1.309  16.604   0.874  0.1055 -0.2076 -0.1559
27204W        W44728  18.027  13.887   4.429  0.1050  0.1565  0.0894
27205W        W44729  16.360  11.206  13.237 -0.0239 -0.0115 -0.2657
27206W        W44730  13.381  14.296  13.595 -0.1287 -0.2512  0.0821
27207W        W44731   6.684  17.833  14.839 -0.2533  0.0638  0.2337
27208W        W44732   9.665  14.298   1.492 -0.1198 -0.2882  0.1036
27209W        W44733   7.965   3.142  11.972  0.1221 -0.3250 -0.2975
27210W        W44734  13.182  14.976  11.965 -0.0791 -0.1214 -0.1410
27211W        W44735   5.385  17.182   0.942  0.0394  0.2155 -0.2797
27212W        W44736  16.589  16.290   3.021  0.1673  0.3037 -0.0732
27213W        W44737   5.692   8.201   0.945  0.1869  0.3001 -0.0002
27214W        W44738   4.963   0.362   0.931 -0.1222  0.0441  0.0266
27215W        W44739   8.054  16.809  12.920 -0.2677  0.0142  0.3033
27216W        W44740  11.031   4.334  12.006 -0.1916  0.1862 -0.0159
27217W        W44741   4.157  12.456  11.836 -0.2684  0.1548 -0.0672
27218W        W44742   1.073   2.229   0.835  0.1155  0.0281  0.1452
27219W        W44743   0.450  16.467   4.857  0.1154 -0.0644 -0.1030
27220W        W44744  10.212   3.562  15.065 -0.1721  0.1505  0.0879
27221W        W44745  11.083   2.481  11.710  0.1679 -0.2889  0.0717
27222W        W44746   0.387   1.210   0.531 -0.1994  0.3082  0.0821
27223W        W44747  11.952   7.968   0.969  0.2256 -0.2916 -0.3968
27224W        W44748  15.723   8.865   3.507 -0.2045  0.2143 -0.0190
27225W        W44749   3.866   7.147   1.483 -0.2397 -0.0948  0.1541
27226W        W44750  17.176  11.555   4.497  0.1158 -0.1905  0.2614
27227W        W44751  17.426   1.170   3.772 -0.2916 -0.1080  0.1728
27228W        W44752   9.229   9.995   5.138  0.1476 -0.1502 -0.3362
27229W        W44753  10.309   2.720  12.321  0.2032 -0.0600  0.1527
27230W        W44754   0.417  15.331   3.026  0.1837  0.1067  0.2197
27231W        W44755   7.558   1.887  12.276 -0.0264  0.0661  0.1171
27232W        W44756  10.695   6.775  11.828  0.0550  0.1453 -0.2533
27233W        W44757  15.575  18.093  14.605  0.0176  0.2579  0.3978
27234W        W44758  11.650   0.827  12.747  0.3274  0.0289 -0.2783
27235W        W44759  15.609   8.441  15.457 -0.0725 -0.4068  0.1862
27236W        W44760   2.148   8.291   5.206  0.2254  0.0223  0.0361
27237W        W44761   1.665   7.304   4.382 -0.1440 -0.1250 -0.0771
27238W        W44762   7.571  12.505  15.406  0.0121  0.5813 -0.0406
27239W        W44763  13.746   8.098  15.957  0.2122  0.0798  0.1572
27240W        W44764   6.786   3.229  11.075  0.2354 -0.4339  0.2148
27241W        W44765   6.979   2.178  12.811  0.2082 -0.2548 -0.0910
27242W        W44766   1.976  17.873   3.923 -0.0129 -0.1135 -0.1725
27243W        W44767  12.957   4.379  12.937  0.1878  0.2042  0.1008
27244W        W44768   1.919   8.831  12.883 -0.1373  0.0505  0.1999
27245W        W44769  13.799   8.628   1.734 -0.1005  0.0189  0.1726
27246W        W44770   3.025  17.515   3.330 -0.0753 -0.2861 -0.1040
27247W        W44771   1.103  12.443   5.040 -0.0762  0.0791  0.0160
27248W        W44772   7.650   2.415   4.324  0.1361  0.0584 -0.2155
27249W        W44773   4.181   9.432   4.217  0.0186  0.1430 -0.0082
27250W        W44774   2.760  16.250   1.108 -0.2894 -0.6752 -0.1763
27251W        W44775   8.510   9.402   4.924  0.2236  0.1599  0.1497
27252W        W44776  11.531   8.714   0.337  0.0491  0.1042  0.2293
27253W        W44777  17.053  15.633  12.386 -0.0166  0.1418 -0.2917
27254W        W44778  15.194   7.391  15.450  0.0824 -0.0548 -0.2189
27255W        W44779   3.021   7.894   4.684  0.0339 -0.0215 -0.1594
27256W        W44780  14.098   4.713  15.146  0.2247 -0.2008 -0.1957
27257W        W44781   9.255   5.916   1.780  0.1391 -0.1869  0.0331
27258W        W44782   0.550  14.099   3.611 -0.1075 -0.1353  0.1001
27259W        W44783   2.484  10.648   3.625 -0.1010  0.1242 -0.0761
27260W        W44784  17.257   9.503   3.155  0.1246  0.1228 -0.0286
27261W        W44785  18.130  14.004   4.968 -0.3457  0.0326 -0.5177
27262W        W44786  11.192  16.190  11.760  0.2061 -0.3216 -0.0255
27263W        W44787   2.743   6.545   1.740  0.1332  0.2160  0.3129
27264W        W44788  17.954   6.191  15.676 -0.0595 -0.0611  0.3454
27265W        W44789   7.771  15.610  12.472  0.2069  0.4428  0.0770
27266W        W44790  11.359   1.009  14.082  0.1262 -0.0358 -0.3709
27267W        W44791  16.709  10.170  15.617 -0.1142  0.0139  0.2122
27268W        W44792   5.246   0.288  14.204  0.0013  0.2345 -0.0261
27269W        W44793   2.523  16.625  15.996 -0.0111  0.3351  0.2479
27270W        W44794  12.310  15.994   2.737  0.1681  0.0887 -0.0886
27271W        W44795   7.998   5.174   3.189 -0.0480  0.0801  0.0088
27272W        W44796   8.487  18.135  13.107 -0.0917 -0.1072  0.0972
27273W        W44797   5.850   4.404   5.079 -0.0315 -0.1993  0.3254
27274W        W44798   2.787   5.262   2.964  0.0815  0.2225 -0.0364
27275W        W44799  17.387  14.374  14.563 -0.2310  0.2573  0.1346
27276W        W44800   2.679  16.152  14.783 -0.1537 -0.0709 -0.1831
27277W        W44801   9.025   9.984   2.245 -0.2649 -0.3395  0.0113
27278W        W44802  14.212  15.218   1.258 -0.0881  0.0946  0.0495
27279W        W44803  13.859   4.375   1.896  0.1561  0.0353  0.0563
27280W        W44804  13.651   2.413  10.477  0.0344  0.1326 -0.1703
27281W        W44805   2.194  18.075  13.050 -0.2885 -0.3150 -0.1709
27282W        W44806   2.535  13.656  13.199  0.0922  0.1204 -0.0843
27283W        W44807   3.062   5.799  12.748  0.0990  0.2445 -0.0665
27284W        W44808   1.886  10.977   2.421  0.2146  0.0701 -0.1510
27285W        W44809   4.661   1.217   1.509  0.3296 -0.1612  0.0076
27286W        W44810  14.143  10.339   1.613  0.0739 -0.2512 -0.0864
27287W        W44811   7.995  13.895   0.245  0.1471 -0.3459  0.2184
27288W        W44812  13.408   9.225   1.789  0.0451 -0.0499  0.1160
27289W        W44813  15.765   5.040  13.304 -0.3178 -0.0143  0.0011
27290W        W44814   1.260   1.239  11.134 -0.0267  0.0675 -0.0882
27291W        W44815   0.587   5.088  11.414 -0.2173 -0.1844  0.2410
27292W        W44816  13.426  13.510  12.382 -0.2348  0.3318  0.0951
27293W        W44817   2.944   5.717   1.716  0.3895 -0.1041  0.2226
27294W        W44818  16.794   0.527   4.683  0.0935 -0.0743  0.2344
27295W        W44819   5.642  18.022   4.409  0.1080  0.0400  0.0288
27296W        W44820  11.894   0.955   1.780 -0.0697 -0.0562 -0.1005
27297W        W44821   2.425  14.538   4.619 -0.0706 -0.1097  0.0506
27298W        W44822   0.351  16.056  15.014 -0.2787 -0.0046  0.0582
27299W        W44823   1.858  17.752   2.629  0.2405 -0.0213  0.0705
27300W        W44824  13.869   0.765   1.032 -0.1520 -0.0844  0.0810
27301W        W44825   4.047   4.421  11.786  0.2418 -0.1254 -0.0736
27302W        W44826  15.019   6.850   4.539  0.3629 -0.0327 -0.0159
27303W        W44827  14.483   1.996  13.726  0.0616 -0.2408  0.0189
27304W        W44828  11.710   3.763   0.708  0.0198 -0.3848  0.0151
27305W        W44829  16.056   5.749  15.111  0.2264 -0.1285  0.0762
27306W        W44830   5.484   6.287  14.598  0.4008  0.1340 -0.0772
27307W        W44831   0.201   4.440   3.109 -0.3298 -0.2265 -0.0562
27308W        W44832   9.262  15.647  15.842  0.1298 -0.0850 -0.0681
27309W        W44833   1.221  15.646   2.313  0.1029  0.1016  0.1127
27310W        W44834   6.484  13.056   0.875  0.0765  0.3015 -0.0222
27311W        W44835  12.782  14.857   2.061 -0.2546  0.0321  0.2023
27312W        W44836   1.857  15.246   0.348 -0.1099 -0.0372 -0.2639
27313W        W44837  13.756   5.077   4.486 -0.1795  0.1373 -0.3686
27314W        W44838  10.954   2.889  10.806 -0.1412 -0.2476  0.2748
27315W        W44839   3.394  11.412  15.193  0.2888  0.2932  0.2070
27316W        W44840  11.419  17.335   2.977 -0.0455 -0.1036  0.3026
27317W        W44841  12.881  11.213   3.958  0.1693  0.0259 -0.1935
27318W        W44842  12.626  12.913  14.783  0.3209 -0.0379  0.1108
27319W        W44843   2.164  12.290   1.898  0.1061 -0.1493  0.0969
27320W        W44844   6.924  15.539   1.307  0.1291  0.3986  0.2140
27321W        W44845  12.819   2.712   4.329 -0.0217 -0.2002 -0.0468
27322W        W44846   6.075  14.498   0.500 -0.0432  0.0602  0.0033
27323W        W44847  10.820  16.360   4.203  0.3893 -0.4151  0.2284
27324W        W44848  10.650   7.203  14.485  0.2469 -0.2352  0.1197
27325W        W44849   0.823   6.055  12.218 -0.2602 -0.0198  0.1204
27326W        W44850   6.128   6.463  12.655  0.0716 -0.1266  0.2649
27327W        W44851   9.674   9.516  10.430  0.0898  0.2412 -0.0233
27328W        W44852   3.640   1.199   5.569  0.2833 -0.0376 -0.0776
27329W        W44853  11.560   4.386  12.154  0.1226  0.1490  0.0282
27330W        W44854   0.549  10.323  13.862  0.0392  0.2194 -0.0234
27331W        W44855   7.213   2.999  14.778  0.0013 -0.0756  0.3168
27332W        W44856  13.837  11.567   4.432 -0.2546  0.0976 -0.0576
27333W        W44857   9.360  15.023  15.653 -0.2516 -0.3315 -0.0846
27334W        W44858   3.732  15.859   3.015  0.1894 -0.0932 -0.0597
27335W        W44859   9.589   2.629  15.353 -0.0939  0.2134  0.1208
27336W        W44860   6.887   2.027  14.187 -0.1518 -0.2340 -0.0329
27337W        W44861  12.760   9.220  14.239  0.0958  0.2166 -0.3259
27338W        W44862  12.811  16.102   2.987  0.1495  0.0894 -0.4561
27339W        W44863  18.000   8.916   0.179 -0.0571  0.3016  0.0124
27340W        W44864   0.868  15.973  14.915 -0.0493  0.1469  0.0094
27341W        W44865   3.288  12.845  12.511 -0.1224 -0.0073  0.3105
27342W        W44866  12.265  15.910  11.757  0.2771 -0.0667 -0.2586
27343W        W44867   3.724   6.688  13.422 -0.3550 -0.2865 -0.0654
27344W        W44868  13.799   4.363  14.472 -0.1594  0.0014 -0.0537
27345W        W44869  14.700   2.918  13.479  0.0413 -0.3143  0.2385
27346W        W44870  14.134  17.303   2.583  0.0707 -0.0252 -0.0959
27347W        W44871   1.788   9.930   3.059  0.4132  0.3440  0.1334
27348W        W44872   7.085   6.848   2.924 -0.1987  0.2685 -0.2387
27349W        W44873  16.095   8.869  15.479 -0.4315 -0.0045  0.0535
27350W        W44874   5.153  11.551   4.888  0.1370  0.1825 -0.2164
27351W        W44875   0.484   7.382   0.373 -0.1816  0.1010 -0.0846
27352W        W44876  10.459  15.329   2.685 -0.2768  0.2252 -0.2667
27353W        W44877  10.397   6.236   1.282  0.1142 -0.1751  0.1323
27354W        W44878  15.984   5.374   1.587  0.1263  0.2070  0.0444
27355W        W44879   4.311   9.597   4.682 -0.0359  0.2345  0.0175
27356W        W44880   5.941   0.703   4.088  0.2152 -0.1227 -0.2047
27357W        W44881   6.715   9.307   4.512 -0.1924  0.1421 -0.2153
27358W        W44882   6.015   4.253  11.139  0.2327  0.3755  0.0664
27359W        W44883  10.831  15.240  15.725 -0.0399 -0.1575 -0.1986
27360W        W44884   2.902   1.386   4.746  0.1608 -0.2724 -0.3729
27361W        W44885   8.485   2.998  11.079 -0.0575  0.0328 -0.0273
27362W        W44886   2.176   3.821   1.437  0.1078 -0.3119 -0.1427
27363W        W44887   1.558   5.592   0.583 -0.1935 -0.2096  0.1603
27364W        W44888  12.971   0.715  14.063 -0.1488  0.0172  0.1260
27365W        W44889  12.500   5.666  13.330 -0.1660  0.0007  0.2258
27366W        W44890   1.046   8.653   4.532  0.0151 -0.3149 -0.0517
27367W        W44891  12.242  17.867  11.401  0.2955  0.1593 -0.0820
27368W        W44892   9.709   2.207  12.927 -0.1018  0.1716  0.0137
27369W        W44893  12.932   3.627   3.384  0.1142  0.0248 -0.0835
27370W        W44894   2.840   4.559  13.435 -0.1905  0.3068 -0.2664
27371W        W44895   0.746  16.474  13.723  0.1983  0.0229  0.3690
27372W        W44896   4.948  10.497  14.487  0.0284 -0.0493  0.0455
27373W        W44897   6.396  13.518   3.575 -0.0160 -0.2624  0.0185
27374W        W44898  16.244   2.009  15.206  0.0790  0.4583  0.0785
27375W        W44899   3.939  10.271  14.924 -0.2068  0.2723  0.1435
27376W        W44900  11.080  11.500   1.104  0.1930  0.0735  0.0650
27377W        W44901  13.627  15.526  11.467 -0.2338 -0.1421  0.1604
27378W        W44902   6.209   0.777  11.464  0.0474  0.0613  0.1766
27379W        W44903   0.663   1.651   4.254  0.0533 -0.2463 -0.2044
27380W        W44904   5.611   2.582   3.145  0.2361 -0.2894 -0.1718
27381W        W44905  12.048  14.059  14.790 -0.0090  0.1977  0.0998
27382W        W44906   8.476  13.368  12.830  0.0547 -0.0123  0.1010
27383W        W44907   7.213  10.199  10.670 -0.1057 -0.2138  0.1277
27384W        W44908  12.757   7.551  14.636 -0.0213  0.3022  0.1594
27385W        W44909   0.845  14.717   4.915 -0.0880  0.3298 -0.0785
27386W        W44910  13.792  12.825  11.474  0.0684 -0.0077 -0.3054
27387W        W44911  12.995   3.630  14.199  0.2017  0.0992 -0.5082
27388W        W44912   3.456  16.838   3.150 -0.1606 -0.3498 -0.0465
27389W        W44913   0.998  12.958  15.715 -0.0944 -0.1269  0.0868
27390W        W44914   8.161   8.536  10.947 -0.0606  0.1232 -0.1032
27391W        W44915   9.506  15.474   0.900  0.4343 -0.3773 -0.1719
27392W        W44916   6.068   6.986  11.708  0.1026  0.0385 -0.0501
27393W        W44917   6.692   1.562  14.946 -0.1435  0.0166  0.0298
27394W        W44918  14.542   6.366   3.392 -0.2914 -0.2303 -0.1114
27395W        W44919   3.481   2.756  14.036  0.0405  0.0811  0.0427
27396W        W44920  15.505   2.069   3.185 -0.2254 -0.0209  0.0215
27397W        W44921   9.630   4.160   0.939  0.2081  0.0132 -0.0374
27398W        W44922   5.290  12.472  11.835  0.2715 -0.0043  0.1686
27399W        W44923   2.131   9.568  13.808 -0.0836 -0.2205  0.0700
27400W        W44924  10.108   6.287  13.597  0.2286  0.0058  0.2651
27401W        W44925   2.319  16.169   2.399 -0.0420 -0.1405 -0.0473
27402W        W44926   3.195   6.270  15.454 -0.3045  0.0238 -0.1950
27403W        W44927   0.642  12.289   2.317 -0.3724  0.1225 -0.1521
27404W        W44928  11.512   3.425  15.273 -0.3989 -0.1970 -0.1866
27405W        W44929  17.801   6.589  12.370 -0.2814  0.1204 -0.1626
27406W        W44930   0.696   3.341   0.904  0.0657  0.0754 -0.0014
27407W        W44931  13.156  17.878   3.447 -0.1533  0.3429 -0.3526
27408W        W44932  14.032  11.765  13.962  0.1329 -0.1361 -0.1361
27409W        W44933  12.294  10.073   2.685 -0.0663 -0.0866  0.0721
27410W        W44934   2.259   1.726  10.373  0.0968  0.2364  0.2360
27411W        W44935  16.843   9.426   2.836  0.1357  0.0088 -0.1104
27412W        W44936   4.876   8.029  12.478  0.2004  0.0553  0.1596
27413W        W44937   7.080   1.661  12.647  0.1930  0.2211  0.0927
27414W        W44938   9.430   4.515  15.520  0.0904 -0.1504  0.2475
27415W        W44939   9.920  17.768  15.890 -0.0473  0.0361 -0.2364
27416W        W44940  10.194   1.834  13.475 -0.3132 -0.0006 -0.2782
27417W        W44941   1.690  17.068   3.428  0.0194  0.0403  0.1658
27418W        W44942  17.272  16.492   1.264  0.1142 -0.0630 -0.3872
27419W        W44943  11.505  14.331  11.571 -0.0867 -0.2178 -0.1566
27420W        W44944   8.277   4.720   1.379  0.1031 -0.1743 -0.3569
27421W        W44945   6.484  14.046   2.742 -0.1779 -0.2588  0.2799
27422W        W44946  14.405  10.564  11.458  0.0450 -0.1850  0.1008
27423W        W44947   9.579   6.772  11.702  0.1080 -0.0928  0.0642
27424W        W44948  10.322  10.121  11.438  0.1338 -0.1428  0.1696
27425W        W44949  16.391  14.477  14.535 -0.0358 -0.1793 -0.0591
27426W        W44950   5.691   7.062  14.893 -0.1527 -0.4788 -0.0542
27427W        W44951  14.446   9.657  13.017 -0.2169 -0.0557 -0.2578
27428W        W44952   9.385  13.095   0.074 -0.1864 -0.0612  0.1429
27429W        W44953   6.651  10.492  14.938 -0.0161  0.3093 -0.2990
27430W        W44954  10.050  17.399   4.784  0.0334  0.0106 -0.2602
27431W        W44955   8.289   4.581   3.963  0.1316  0.0349 -0.2647
27432W        W44956  12.224   1.106  15.828 -0.3100  0.1488  0.0389
27433W        W44957   0.396   5.377  14.103  0.0109  0.1746  0.0690
27434W        W44958  14.512  12.841  12.819 -0.0545  0.0335 -0.0851
27435W        W44959  11.127   6.060  15.187 -0.0121  0.4848  0.0241
27436W        W44960   6.579   5.050  13.403 -0.1736 -0.0638  0.0045
27437W        W44961   2.686   2.811   1.784 -0.1532 -0.0503  0.0475
27438W        W44962  12.067  18.043  15.364 -0.0648 -0.1986  0.1057
27439W        W44963   8.217   2.083  15.119 -0.2941  0.0167 -0.0810
27440W        W44964   4.429   8.792  10.755  0.1945  0.0167  0.0272
27441W        W44965  17.432  13.365  14.084  0.0867  0.1205  0.0703
27442W        W44966   6.080  10.984   3.873  0.1831 -0.1384  0.1136
27443W        W44967  15.420  14.646   1.765  0.3227 -0.0022 -0.0364
27444W        W44968  14.704   5.703  12.799  0.0802  0.3335  0.0897
27445W        W44969  11.017  11.639  15.687 -0.0379  0.1670 -0.2528
27446W        W44970   7.950   8.563  11.434  0.0909 -0.0598 -0.1722
27447W        W44971  14.194  11.984  14.422 -0.1312  0.3230  0.1026
27448W        W44972  17.816   5.747   2.948 -0.1720  0.1653 -0.0397
27449W        W44973  15.773  18.101   5.193  0.1359 -0.1053 -0.0328
27450W        W44974   2.712  10.136   4.358 -0.1989  0.1075 -0.0850
27451W        W44975  14.943  11.682  14.462 -0.1730 -0.1348 -0.0176
27452W        W44976   1.777   6.631   1.522  0.0733 -0.3499  0.4191
27453W        W44977   5.514   2.009  10.670  0.2080 -0.1166  0.1072
27454W        W44978  16.093  13.944  14.924 -0.1140 -0.1562  0.0853
27455W        W44979   0.159   0.044   3.745 -0.1617  0.1446 -0.1260
27456W        W44980  11.814  16.071  11.773  0.0799 -0.0269 -0.2185
27457W        W44981   7.353   0.333   3.980 -0.1622 -0.0736  0.2903
27458W        W44982  12.337  14.372   2.656 -0.0398 -0.1797  0.1505
27459W        W44983   2.644  17.085  14.782 -0.2469 -0.0129 -0.0446
27460W        W44984  11.719   6.092   2.907  0.1628  0.3343  0.0912
27461W        W44985  10.249   7.087  13.371  0.1696  0.1247 -0.1223
27462W        W44986   2.062   0.310   0.211 -0.2799  0.2775 -0.0799
27463W        W44987  13.219  12.515  12.231  0.0138  0.0329 -0.1630
27464W        W44988   9.995   4.739  14.052 -0.3155  0.3990 -0.0248
27465W        W44989   7.447  10.045   4.324  0.1748 -0.5580  0.1347
27466W        W44990  13.625   1.155   3.414 -0.0110  0.3426 -0.0051
27467W        W44991  16.355  15.311  11.611  0.0709  0.1368  0.1711
27468W        W44992  12.698   7.513  15.580  0.0634  0.2208 -0.0495
27469W        W44993  10.408  11.817  11.824  0.0526 -0.0192 -0.2217
27470W        W44994  13.038  12.090  15.222  0.0375  0.0645  0.0989
27471W        W44995  11.798   9.920   3.944  0.0461 -0.0321  0.2551
27472W        W44996  12.703  17.585   3.305 -0.0834  0.2946 -0.0864
27473W        W44997   5.473   1.059   4.232  0.0267  0.1041 -0.0685
27474W        W44998  15.905   7.662   2.954  0.0695  0.2237 -0.1141
27475W        W44999  15.458   2.006   3.712  0.2341  0.1182 -0.1140
27476W        W45000   0.655   0.986   2.304  0.1534  0.1120 -0.0562
27477W        W45001   3.923  17.802   3.252 -0.1434 -0.1264 -0.1418
27478W        W45002  13.522  10.065   5.055 -0.2458 -0.0289  0.0195
27479W        W45003  16.581   6.955  12.939  0.1916  0.3145  0.2029
27480W        W45004   1.047  14.077   1.182  0.0175  0.2211  0.1229
27481W        W45005  14.121   4.845  10.672 -0.1524  0.0591  0.0087
27482W        W45006  16.492  13.806   5.495 -0.2186 -0.0467  0.0657
27483W        W45007   9.737   3.190  12.875 -0.1925 -0.1090 -0.1213
27484W        W45008   5.876   3.122   1.172 -0.0458  0.2051 -0.0775
27485W        W45009   4.635   8.759   1.276 -0.0303  0.0991  0.2019
27486W        W45010   7.560   6.911   2.402 -0.0133 -0.0442 -0.1044
27487W        W45011   8.450   9.453   1.856 -0.0477  0.0686 -0.1318
27488W        W45012   5.798   7.429   4.985 -0.1092 -0.2210  0.2272
27489W        W45013   6.372   2.783   4.415 -0.2545 -0.1007  0.0155
27490W        W45014   9.912   7.490  14.962  0.0290  0.0102 -0.1002
27491W        W45015  17.294  12.409   1.579 -0.0048  0.1671  0.0447
27492W        W45016   6.435   6.331   0.690  0.1197 -0.0034  0.2527
27493W        W45017   1.907  10.571   3.629  0.1533  0.2547 -0.1584
27494W        W45018  14.439  13.117  11.876 -0.2531  0.0321 -0.0542
27495W        W45019   9.260  10.177  13.183  0.0613 -0.1890 -0.1293
27496W        W45020   3.798   1.975  13.074  0.1422  0.2639  0.1557
27497W        W45021   2.540   9.278  11.500 -0.1268  0.4583  0.3134
27498W        W45022  12.376   9.670  15.020  0.1894 -0.0097 -0.1403
27499W        W45023  14.632  15.628   5.212 -0.2688 -0.0827  0.2871
27500W        W45024   4.206  12.383  13.544 -0.0982 -0.0850  0.0009
27501W        W45025   1.314   4.418  13.607  0.1151  0.4605  0.1741
27502W        W45026   3.059   8.698  14.964 -0.1714  0.0690  0.0757
27503W        W45027  13.396  16.656   6.325  0.2532  0.1891 -0.0156
27504W        W45028  15.596   4.831   2.131  0.1688  0.1060 -0.1047
27505W        W45029   1.216  13.740  15.469 -0.0119  0.1508  0.1491
27506W        W45030   4.438  12.460  12.765 -0.0892  0.0733 -0.0291
27507W        W45031   6.980   3.827  15.818  0.0993 -0.0363  0.3172
27508W        W45032  10.805  15.733  13.658 -0.1128 -0.0317  0.1125
27509W        W45033   7.068   4.197   1.547 -0.0385 -0.3063  0.0616
27510W        W45034   5.615  14.936  15.308 -0.0890  0.1836 -0.2604
27511W        W45035   5.939  17.674   2.806  0.1016 -0.0318  0.0525
27512W        W45036  13.543  13.619  13.147 -0.1318 -0.1517  0.1654
27513W        W45037  12.141   6.278  11.254  0.0731 -0.0047 -0.0137
27514W        W45038   5.365   1.225  14.408  0.1080 -0.1176  0.2365
27515W        W45039   6.526  10.023  14.823  0.2367 -0.0196  0.0230
27516W        W45040  11.767   8.604  13.542  0.0979  0.0861  0.0241
27517W        W45041  13.795   8.737  13.036  0.0105 -0.1179  0.1187
27518W        W45042  17.951  10.296   4.577 -0.0282  0.1146 -0.1786
27519W        W45043   0.913   2.983  11.749 -0.0480 -0.2559  0.0271
27520W        W45044   2.160   1.772   4.014 -0.0800  0.2048 -0.0799
27521W        W45045  17.933   6.688   1.484 -0.2439 -0.1041  0.0256
27522W        W45046   5.879   9.083  10.740 -0.0854 -0.0704  0.0877
27523W        W45047   1.586  13.094  13.349  0.0571 -0.3055 -0.0632
27524W        W45048  11.150   0.669  14.427  0.0478  0.3024  0.0819
27525W        W45049  16.759  15.981   3.392 -0.0862  0.0958 -0.1167
27526W        W45050   1.558  15.529   3.762 -0.1012 -0.0512  0.0956
27527W        W45051   1.176   9.822  14.514  0.3225 -0.0241  0.0447
27528W        W45052   0.292   1.004   3.656  0.0956 -0.3158  0.1227
27529W        W45053  10.029   3.886   2.831  0.1634  0.4006 -0.0763
27530W        W45054  17.637   5.666   3.897  0.2588  0.1016  0.2434
27531W        W45055   7.563  17.393   0.372 -0.0378 -0.0809 -0.3016
27532W        W45056  13.195  12.196   0.788 -0.0909 -0.2101  0.1874
27533W        W45057  13.704   4.424  15.282 -0.2005  0.1167 -0.1562
27534W        W45058   1.531   8.133  11.770  0.0867 -0.2451  0.1683
27535W        W45059   0.008   2.544   2.890 -0.0918  0.1084  0.1694
27536W        W45060  11.065   9.307  12.729 -0.0548 -0.0390 -0.2339
27537W        W45061   8.601  16.231   3.106  0.1999 -0.2120 -0.0643
27538W        W45062   5.060  11.223  10.904  0.0453  0.0559 -0.0146
27539W        W45063   8.667  17.526  12.332 -0.1217 -0.1136 -0.0591
27540W        W45064  17.037  11.930  13.178 -0.0222 -0.1046  0.0752
27541W        W45065  13.956  15.836   2.977 -0.0553 -0.1129  0.2111
27542W        W45066   1.177  10.954  12.770 -0.0333 -0.0917 -0.1177
27543W        W45067   7.502  12.856   1.244 -0.1156  0.1371 -0.0594
27544W        W45068  10.382  15.898   2.029  0.1017 -0.2936  0.0134
27545W        W45069   5.648   5.316  15.157  0.0785  0.0930  0.0547
27546W        W45070  12.488  10.994   0.267  0.3263  0.2585  0.1140
27547W        W45071   9.023   6.360   4.223  0.0752  0.1109  0.1309
27548W        W45072  10.623  11.049   1.121  0.2293  0.0575 -0.0936
27549W        W45073  14.289  14.541  10.669 -0.0919 -0.0176  0.1524
27550W        W45074   1.243   0.832   1.520 -0.2387  0.3003  0.2165
27551W        W45075   8.228   2.983  13.659  0.1106  0.1547 -0.1023
27552W        W45076   7.619   8.852  14.900 -0.1637  0.3978  0.0474
27553W        W45077  13.885  13.206   3.856 -0.2358  0.2116  0.1386
27554W        W45078  11.234   3.847  11.212  0.1422 -0.2044  0.3547
27555W        W45079   0.896  14.147  11.435 -0.2996  0.0323  0.2546
27556W        W45080   6.484  12.103   2.037 -0.1704 -0.1021 -0.1906
27557W        W45081   6.514   9.974  14.021  0.0510 -0.3264  0.1114
27558W        W45082   3.986  10.636  13.516 -0.1742 -0.2843  0.1786
27559W        W45083   6.838   5.416   1.733  0.0165 -0.1100 -0.0124
27560W        W45084  11.882   6.702  13.188  0.0504 -0.0293 -0.0757
27561W        W45085   7.333  12.869  13.372 -0.1010  0.0708  0.2425
27562W        W45086  14.686  17.809  14.867 -0.0987 -0.0649 -0.0961
27563W        W45087   9.404  16.636   2.308 -0.2719  0.2086  0.0199
27564W        W45088   6.615  12.616   2.047  0.0163  0.1994  0.1301
27565W        W45089   1.593   9.834  11.685  0.0241  0.0155 -0.0423
27566W        W45090  15.577   7.357   4.591  0.3098 -0.0153 -0.0925
27567W        W45091  13.335   0.417  15.640 -0.0670 -0.1947 -0.2293
27568W        W45092   9.450   2.509  11.123 -0.1118 -0.1046 -0.1326
27569W        W45093  13.132   8.341  11.532 -0.1179  0.2326 -0.0282
27570W        W45094   3.092  16.455   2.394 -0.0661 -0.2142 -0.1470
27571W        W45095  10.952  17.187  14.454  0.1753  0.0464 -0.1565
27572W        W45096   1.314   2.318   4.221  0.0163 -0.1911  0.0318
27573W        W45097   6.414   3.824   3.205  0.0481 -0.0408 -0.1899
27574W        W45098  17.315  15.916   3.321 -0.0397  0.1315 -0.0617
27575W        W45099  15.713  12.035   4.215  0.3320  0.0446  0.0636
27576W        W45100  17.576  14.271  14.135 -0.0325  0.0486  0.1743
27577W        W45101  12.796  14.371   1.868  0.3319 -0.0609 -0.2102
27578W        W45102  10.094  17.977  13.419  0.0869  0.0339 -0.0524
27579W        W45103   4.690   7.854  14.162 -0.0420  0.0408  0.0613
27580W        W45104   1.089   2.772  10.218  0.1742 -0.4795 -0.0107
27581W        W45105   5.244  17.312  12.315 -0.1513 -0.1735  0.0278
27582W        W45106   6.025   2.122   4.079 -0.1678 -0.1828 -0.0722
27583W        W45107  14.158   6.238   4.210 -0.0361 -0.0446  0.0893
27584W        W45108   7.312  13.186   0.522  0.1118  0.2578  0.0235
27585W        W45109   3.462   1.511   3.150  0.1065  0.1008  0.6217
27586W        W45110   7.852   0.477   3.774  0.3180 -0.0277 -0.0257
27587W        W45111   9.466  14.269   4.415  0.0148  0.3400 -0.2050
27588W        W45112   6.821   7.152  15.617  0.0589  0.0632 -0.1172
27589W        W45113   8.819  15.943   1.068  0.3077 -0.0196  0.1556
27590W        W45114  17.451   6.294   4.953 -0.0229  0.1835  0.3484
27591W        W45115   5.556  17.453  12.730 -0.0019  0.2280  0.2026
27592W        W45116  16.808  15.410   3.641 -0.3761 -0.1215  0.1134
27593W        W45117  15.903  15.922  11.858  0.0173  0.2635  0.3351
27594W        W45118  16.566   2.389  15.317  0.2698  0.0030  0.1627
27595W        W45119   6.839  11.128   2.180  0.0983 -0.0370 -0.3212
27596W        W45120   0.024   6.412   4.153 -0.0971 -0.2884 -0.2778
27597W        W45121   6.361  15.370   2.839  0.1848  0.0921 -0.1496
27598W        W45122  12.359   7.855  11.319  0.3675  0.0721  0.0743
27599W        W45123   4.918  16.768  15.403  0.1311  0.1706 -0.1631
27600W        W45124  17.614   6.605  15.535  0.0676  0.0105 -0.1855
27601W        W45125  10.715   5.514  11.592 -0.0380 -0.1331 -0.1396
27602W        W45126  13.944  10.798  14.230  0.4111 -0.1915 -0.2314
27603W        W45127   4.476   7.050  14.533 -0.1863 -0.1574  0.0302
27604W        W45128  16.721  14.190  15.514  0.0634 -0.0076 -0.1197
27605W        W45129   0.544  16.880  12.892  0.2417  0.0397 -0.1298
27606W        W45130   8.840  16.426  14.966 -0.0640 -0.0616  0.2927
27607W        W45131   8.057   0.909  15.686  0.3529  0.3383 -0.1365
27608W        W45132  15.922  10.280   4.733  0.0311  0.1099  0.2260
27609W        W45133  17.722   2.419  12.301  0.0279 -0.1178 -0.1061
27610W        W45134  12.463   5.433  14.523  0.0488 -0.3732  0.1107
27611W        W45135   7.214  14.937  12.722 -0.0413 -0.1746  0.0603
27612W        W45136   8.596   2.014  11.086  0.1598 -0.3939  0.1367
27613W        W45137   2.643  11.626  15.729  0.1457  0.2800  0.0394
27614W        W45138   7.854  14.985   2.728 -0.1378  0.2693  0.1600
27615W        W45139   1.275  13.882   0.362 -0.1021 -0.1480  0.0071
27616W        W45140  10.120   6.178   5.873  0.6805 -0.0720  0.2529
27617W        W45141  13.779  16.175  14.817  0.2865 -0.1495 -0.0265
27618W        W45142   8.017  11.415  11.315  0.0781  0.0773 -0.1162
27619W        W45143   8.991   4.067   2.842 -0.2101 -0.1374  0.0813
27620W        W45144  14.833  16.543   4.532 -0.1096 -0.2661  0.3381
27621W        W45145   4.380   8.668  11.460 -0.0248  0.0359  0.3936
27622W        W45146   0.015   4.875  13.496 -0.0562 -0.1285  0.0098
27623W        W45147   6.062  17.387  14.303  0.3567  0.0017 -0.2015
27624W        W45148   6.930  13.294   0.910  0.0001 -0.0475  0.1057
27625W        W45149   0.504   3.458  15.381 -0.1576 -0.1943  0.1851
27626W        W45150   8.737   6.153  14.889 -0.0708 -0.1856 -0.2504
27627W        W45151  15.144   4.527   3.716  0.0193 -0.1744  0.0555
27628W        W45152   6.046   8.872   3.156 -0.0157  0.1509 -0.3652
27629W        W45153   4.987   5.406   5.025 -0.0422 -0.0785  0.1823
27630W        W45154  16.001   2.716   1.207  0.3232  0.1747 -0.0575
27631W        W45155   8.026   2.905   2.398  0.0151 -0.0137  0.1055
27632W        W45156  17.706   7.580  13.424  0.0290  0.3987 -0.0963
27633W        W45157   1.488   4.182  11.138  0.1128  0.1990  0.1202
27634W        W45158   9.991  16.553   3.962  0.2775  0.2316  0.0302
27635W        W45159  17.404  13.606   2.070  0.1442 -0.0177  0.2540
27636W        W45160   4.412   0.155   4.246 -0.0986 -0.2097 -0.1806
27637W        W45161   0.214  12.865   3.750 -0.3239 -0.0088  0.0944
27638W        W45162  12.087   5.562   3.700 -0.0635 -0.3488 -0.0081
27639W        W45163  17.583  11.331   1.359  0.0492 -0.1833  0.2134
27640W        W45164  11.191   5.845   1.538  0.0820  0.1899 -0.0091
27641W        W45165   1.793  14.994  14.808  0.1750 -0.1681 -0.0496
27642W        W45166   2.741   4.020  14.641 -0.2153 -0.0584 -0.1490
27643W        W45167  17.429  14.077   1.928  0.2311  0.0453 -0.1864
27644W        W45168   3.609  10.806   5.150 -0.0082 -0.1633 -0.0216
27645W        W45169   6.016   7.129  13.860  0.2367  0.1697 -0.1102
27646W        W45170   2.664   6.811   4.346 -0.1145  0.0743 -0.0033
27647W        W45171  12.279   6.593  13.718 -0.1645 -0.1025 -0.0983
27648W        W45172  16.544  11.726  14.573  0.1043 -0.0025 -0.3520
27649W        W45173   2.870   6.602  13.469 -0.2113 -0.0662  0.1258
27650W        W45174   6.829  17.852  12.258  0.0982 -0.0445 -0.3673
27651W        W45175   3.479  11.810   4.424  0.0458  0.1533  0.0100
27652W        W45176  17.846  17.417   4.924  0.3918  0.0421 -0.1691
27653W        W45177   3.660   6.199   2.690  0.3228 -0.1931  0.0156
27654W        W45178   1.302  11.800   2.798  0.3943 -0.0739 -0.1069
27655W        W45179  14.348   2.044  13.233  0.1218  0.5358 -0.2039
27656W        W45180   4.239  11.240  15.063  0.0818  0.0326  0.1477
27657W        W45181   1.853  13.149   1.585 -0.0962  0.1179 -0.3150
27658W        W45182   2.260   6.192   3.931 -0.0209 -0.2054 -0.1360
27659W        W45183   4.234  11.739  15.919 -0.0146  0.3403  0.1197
27660W        W45184   7.274  10.342   0.637 -0.2187 -0.0872  0.1489
27661W        W45185  14.034   3.289   0.209  0.0202 -0.2147 -0.0687
27662W        W45186   6.181   2.752   0.871  0.0694  0.0593  0.0277
27663W        W45187  13.479   8.388  13.143 -0.1373 -0.0884  0.0850
27664W        W45188   6.547  11.481  13.656  0.1681  0.1818 -0.0093
27665W        W45189  15.661   0.411  12.253 -0.0543 -0.1270  0.0754
27666W        W45190  15.276   0.960  14.390 -0.1685  0.0241 -0.2164
27667W        W45191  12.897  12.178  12.613  0.2462 -0.2090 -0.1158
27668W        W45192   1.754   9.787   0.714  0.1318  0.0163 -0.0119
27669W        W45193  17.989   9.322   4.776 -0.2018 -0.2293 -0.2271
27670W        W45194   0.112  15.663   1.768  0.1089 -0.0323  0.0281
27671W        W45195   5.233  12.955  12.526  0.1850  0.1648  0.2067
27672W        W45196   1.429   5.792   5.926  0.0276 -0.0404  0.4664
27673W        W45197  17.324  14.585   0.338  0.2907 -0.0264 -0.0614
27674W        W45198   7.125   4.744  13.940  0.4042 -0.1827 -0.2946
27675W        W45199   9.242  13.750  12.645 -0.1885  0.5378 -0.0703
27676W        W45200   6.296  15.400  11.709  0.2279 -0.2084 -0.3812
27677W        W45201  15.453  15.311  14.455 -0.3499  0.1469 -0.2899
27678W        W45202  10.774   8.844   2.391 -0.0577  0.0199  0.1888
27679W        W45203   0.286   3.531  12.198 -0.1242  0.1268 -0.0830
27680W        W45204   6.838  12.163   2.466 -0.1047 -0.0469 -0.0944
27681W        W45205  16.073   2.814  14.804  0.0990 -0.1928  0.1014
27682W        W45206   0.472  14.621  14.410  0.1377 -0.4761  0.3122
27683W        W45207   9.659   3.736  15.208  0.0096  0.1347  0.0552
27684W        W45208   9.895  14.437   2.755  0.0788  0.1660 -0.0991
27685W        W45209  14.275   4.243   1.588 -0.2106 -0.0238  0.1458
27686W        W45210   7.256  12.193   2.787  0.2257  0.1589  0.3519
27687W        W45211   0.219   7.372  14.245  0.0725 -0.1338 -0.2816
27688W        W45212  11.312  16.242   0.518 -0.0621  0.0091 -0.2861
27689W        W45213  16.599  17.766  12.859  0.2520  0.0710  0.1682
27690W        W45214  17.346   6.444   0.394 -0.0528  0.2687 -0.1028
27691W        W45215   4.381  15.770  12.351 -0.0454  0.1189  0.1353
27692W        W45216  16.385   2.825  15.209 -0.4850  0.0921  0.0545
27693W        W45217   1.376  10.439   4.449  0.1518  0.2663  0.2435
27694W        W45218  14.923  17.477  13.051  0.0163 -0.0892 -0.2030
27695W        W45219   7.493   0.120   4.868 -0.0017  0.1326 -0.1727
27696W        W45220   1.480   8.089   2.390  0.3599 -0.1741  0.1311
27697W        W45221  12.330   3.696  13.035 -0.1225  0.0138  0.1708
27698W        W45222   7.913  15.490  14.516  0.1906 -0.2169 -0.0394
27699W        W45223  13.723  14.632  13.817 -0.1845  0.1015  0.1458
27700W        W45224   5.962  11.075  16.006  0.0376  0.0713  0.0151
27701W        W45225   6.695   1.565  15.439  0.2504  0.0354  0.0786
27702W        W45226   9.896  16.619  13.013  0.0588  0.0966  0.1611
27703W        W45227   0.095   7.927   3.879 -0.1689 -0.0490 -0.0642
27704W        W45228   0.594  11.267  12.779  0.1998 -0.3077  0.0435
27705W        W45229   5.982   1.130   4.316  0.0195 -0.1432  0.1316
27706W        W45230  15.936  17.890  13.667 -0.1409 -0.1297 -0.1099
27707W        W45231   4.944  13.947   1.764  0.3562 -0.1440 -0.0528
27708W        W45232  13.183   2.165  15.243 -0.1606  0.2325  0.2017
27709W        W45233  12.125   0.611   2.216 -0.0063 -0.3496  0.1140
27710W        W45234  12.658   0.230  12.129 -0.1062 -0.3052  0.1604
27711W        W45235   2.026   5.682  14.434 -0.0468 -0.0068 -0.3339
27712W        W45236  17.386   8.389   0.465  0.0620  0.0354  0.1173
27713W        W45237   4.957   8.950  15.235 -0.2532 -0.1350 -0.0637
27714W        W45238  13.518   1.296  15.411 -0.2086 -0.1328 -0.0893
27715W        W45239   6.311  14.448  11.064 -0.3155 -0.0765  0.0616
27716W        W45240  11.947   4.231   0.792  0.0475 -0.0757  0.0332
27717W        W45241   8.098  16.267   0.500  0.2057 -0.0883  0.0469
27718W        W45242  14.400  15.663   1.472  0.2142  0.2777 -0.0964
27719W        W45243   1.641   3.463  12.752  0.3296 -0.0443 -0.3436
27720W        W45244  15.917   4.026   2.218 -0.0481  0.0571  0.1662
27721W        W45245   6.299   9.057  12.904  0.0547 -0.1249 -0.0706
27722W        W45246   5.359   6.084  11.439 -0.0202  0.0719  0.0620
27723W        W45247   4.353   6.653  11.274  0.0216 -0.1923 -0.1106
27724W        W45248   4.692  15.954  14.870  0.0089 -0.2736  0.1873
27725W        W45249   2.084  11.177   6.222 -0.2125 -0.3363  0.0252
27726W        W45250   3.808  16.813  14.063 -0.1443 -0.0106 -0.1316
27727W        W45251  10.771  13.042  15.459 -0.0534  0.2948  0.2357
27728W        W45252   2.609   7.509   1.178 -0.1877 -0.4281 -0.0648
27729W        W45253  17.547   6.069  13.634  0.0312 -0.0212  0.0131
27730W        W45254  16.841  13.046   1.998  0.2066 -0.0710  0.1473
27731W        W45255   3.878   8.954   5.206  0.3450  0.2973  0.1444
27732W        W45256   0.587   7.828   4.461  0.1205  0.0430  0.1109
27733W        W45257  16.350  15.544   4.515  0.0308 -0.0099 -0.0882
27734W        W45258  11.245   3.457  15.986 -0.0033 -0.1001  0.0844
27735W        W45259  16.024  11.223  14.917  0.1135  0.0138  0.3498
27736W        W45260  15.827  14.463   4.129 -0.3854  0.3972 -0.2835
27737W        W45261   2.012  15.389  15.785 -0.0765 -0.1852  0.0699
27738W        W45262   0.222  10.468   3.229 -0.1962 -0.3114 -0.0651
27739W        W45263  17.824  16.261   4.076  0.1548  0.0987 -0.2742
27740W        W45264   3.285   2.374  10.928  0.0035 -0.1484 -0.0909
27741W        W45265   0.906  17.799  13.435 -0.0697 -0.0563 -0.0934
27742W        W45266  12.121  16.275  15.572 -0.1865  0.0841 -0.0114
27743W        W45267  11.516   1.396  11.254 -0.1752  0.2001  0.1046
27744W        W45268  10.143   7.271  11.854 -0.0038 -0.1491  0.1059
27745W        W45269   6.549   1.501   1.372  0.2721 -0.1337 -0.1485
27746W        W45270  17.944  12.316   2.736  0.0070 -0.0295  0.1143
27747W        W45271  14.263   1.511  12.397  0.0561  0.1550  0.1646
27748W        W45272   5.962  16.672  12.671  0.3903  0.2897 -0.1039
27749W        W45273   9.336   7.195   4.223 -0.0331 -0.2296 -0.3109
27750W        W45274   3.831  15.694   1.697  0.0167  0.2214  0.3904
27751W        W45275   5.607  11.419  15.477 -0.0473 -0.3065 -0.4091
27752W        W45276  10.590   4.666   2.084 -0.0192  0.1127 -0.1789
27753W        W45277   5.178   7.914   1.839 -0.2957  0.1646 -0.1433
27754W        W45278  12.281   8.638  13.154 -0.1324  0.0739 -0.0415
27755W        W45279   3.713  17.979   2.680  0.4310 -0.2731 -0.1996
27756W        W45280   0.512   0.291  13.775  0.3896  0.1310  0.0917
27757W        W45281  17.920   2.246  13.105 -0.2134 -0.1198  0.0245
27758W        W45282  14.575  13.340   1.849  0.0076 -0.0689  0.1489
27759W        W45283   7.015   0.183  14.058 -0.0424  0.0307 -0.0916
27760W        W45284  10.462  17.294   2.702  0.0052  0.2793 -0.0193
27761W        W45285   4.695  16.227  12.141 -0.2016 -0.1417  0.0991
27762W        W45286  14.290  12.613   1.617 -0.3566 -0.1974 -0.1513
27763W        W45287  14.805   9.047   2.812 -0.2904  0.1257 -0.3204
27764W        W45288   9.683   8.529   0.074 -0.0162  0.1431  0.1297
27765W        W45289  15.164  17.061   0.797  0.0244  0.0753  0.2340
27766W        W45290   7.204  10.866  13.965 -0.0022 -0.0804 -0.2689
27767W        W45291  14.898  14.747  12.713  0.0758 -0.1727 -0.3894
27768W        W45292   0.916   9.874   0.193  0.1314 -0.1908  0.0509
27769W        W45293   5.129   5.630  13.935  0.1352 -0.3850  0.4915
27770W        W45294   0.008  11.084   4.429 -0.3311  0.1249 -0.1311
27771W        W45295   8.955   9.922  12.267  0.0645 -0.4041  0.1898
27772W        W45296  14.604   3.481  12.077  0.0089 -0.1301 -0.1002
27773W        W45297   6.583   5.276  11.825 -0.0030  0.3624 -0.0759
27774W        W45298   2.950   9.123  11.817  0.3026 -0.0539 -0.2224
27775W        W45299  17.686  10.278  14.737  0.2879  0.1428 -0.0172
27776W        W45300   6.902   2.916  13.971  0.3293  0.3300 -0.3189
27777W        W45301  12.115  15.475  13.536 -0.0500  0.0659 -0.0482
27778W        W45302  12.855  17.287  14.123 -0.3579  0.1262 -0.0844
27779W        W45303  15.581   9.569  15.539 -0.2929  0.0131  0.1017
27780W        W45304   6.791  14.916  15.091  0.1313 -0.0010  0.0529
27781W        W45305   3.158  11.499  15.635 -0.1511  0.1231 -0.2577
27782W        W45306   4.118  15.812   4.269  0.1947  0.1308  0.2266
27783W        W45307   7.105  17.763   3.343  0.3549 -0.0138  0.3086
27784W        W45308  10.071   1.292  15.001 -0.1378  0.0825  0.1964
27785W        W45309   1.755   6.169   1.359 -0.2547 -0.0022  0.0575
27786W        W45310   2.913  15.371   4.229  0.0411 -0.2216  0.1786
27787W        W45311   5.995   6.829  12.988 -0.2920  0.0300  0.0401
27788W        W45312   5.924  14.585  14.479  0.0867 -0.0186 -0.0492
27789W        W45313   8.343   1.691   4.292  0.1863  0.0620 -0.1341
27790W        W45314  15.182   1.612   1.488 -0.0545  0.0479  0.1820
27791W        W45315  15.008  18.098   4.711 -0.3834 -0.1436 -0.0130
27792W        W45316   3.324   8.776   4.355 -0.0290 -0.1430  0.2517
27793W        W45317   2.796  11.783   5.455 -0.1283 -0.0327  0.1049
27794W        W45318   2.897   7.354  14.398 -0.0728  0.3682  0.1212
27795W        W45319   4.484  13.782   1.912  0.2168  0.1491  0.1753
27796W        W45320   7.825  17.122  12.641  0.1875  0.0415  0.0446
27797W        W45321  11.557  14.767  12.320 -0.0658  0.0908  0.1108
27798W        W45322   3.728   3.351   2.209  0.0197 -0.1961 -0.2813
27799W        W45323  15.591  15.822  10.988  0.1521 -0.0082  0.0643
27800W        W45324   3.247  14.332  12.110  0.2080  0.0103 -0.0771
27801W        W45325   9.400  12.097   2.990  0.2372 -0.2172  0.0802
27802W        W45326   7.188   7.569  15.569  0.1761 -0.0113  0.0797
27803W        W45327   1.978  17.356   4.693 -0.1281 -0.3213 -0.0310
27804W        W45328   4.545  15.543  11.931 -0.0850 -0.0913 -0.0244
27805W        W45329   0.519   0.540  14.852 -0.2429 -0.0356  0.0918
27806W        W45330   5.397   3.977  15.334 -0.1280 -0.0869  0.0571
27807W        W45331   7.309  16.737  13.169 -0.0829 -0.1487 -0.1011
27808W        W45332  12.236  16.938  12.457  0.1158 -0.4422  0.4041
27809W        W45333  11.302   9.863  11.476 -0.4046  0.0772  0.2252
27810W        W45334  10.374   9.971   2.076  0.2888  0.2183  0.2486
27811W        W45335  12.549  17.982  15.703 -0.3500  0.0361  0.0491
27812W        W45336   9.499   5.582  13.984  0.0178  0.0638  0.3406
27813W        W45337  15.377   0.281  11.484  0.4728 -0.0585 -0.1993
27814W        W45338   3.539   2.256   2.666  0.0256  0.1087  0.0375
27815W        W45339   4.136  15.905   2.527 -0.2408 -0.3527 -0.2142
27816W        W45340  11.972  13.976  15.276 -0.0221 -0.1019  0.1273
27817W        W45341   2.169  18.017   4.691  0.0673  0.0811 -0.1986
27818W        W45342   9.513  10.005  15.984 -0.1348  0.0256  0.2088
27819W        W45343   1.734   6.329  11.245  0.2869  0.0134 -0.1013
27820W        W45344   3.494   1.955   2.270  0.0228 -0.4010  0.0613
27821W        W45345  16.937   1.901   2.992  0.3148  0.0364 -0.1190
27822W        W45346   0.870   6.075   3.567 -0.0515 -0.0549  0.1304
27823W        W45347  10.682   0.025  12.356 -0.1590 -0.0508 -0.0959
27824W        W45348   0.037  17.049  11.560  0.1902 -0.1315 -0.0115
27825W        W45349  12.604  15.359   0.602 -0.2186 -0.0928 -0.1199
27826W        W45350  15.159  15.075   0.378 -0.2065  0.2558 -0.0769
27827W        W45351   5.612   3.069  13.811 -0.2161  0.2402 -0.1859
27828W        W45352   5.907   2.280   1.816 -0.1633  0.0065  0.3234
27829W        W45353   5.056   9.241  14.383 -0.2088 -0.0095  0.1277
27830W        W45354   0.311   1.485  15.421 -0.0316 -0.1204  0.3561
27831W        W45355  17.047   3.719   3.180 -0.0485 -0.0695 -0.0582
27832W        W45356  13.952   7.581   4.675 -0.3283  0.2079  0.2951
27833W        W45357  10.372   2.009  15.665 -0.2156 -0.1812  0.0278
27834W        W45358   4.335   5.233  13.626  0.0112 -0.0183 -0.0646
27835W        W45359   7.674  15.903   4.211 -0.1445  0.2040 -0.0380
27836W        W45360  15.928  12.764  12.574  0.1331 -0.1575  0.1861
27837W        W45361   5.911   9.460  13.083  0.0842 -0.1704  0.0166
27838W        W45362   2.078  12.683   2.315  0.1632  0.0644 -0.1239
27839W        W45363   7.538  14.722   1.208  0.1218  0.0473 -0.0563
27840W        W45364   6.914  14.344   3.493  0.0065 -0.0692 -0.0847
27841W        W45365  12.764  15.685   4.953 -0.1768  0.0720  0.2935
27842W        W45366   4.667  10.497   1.760  0.0343  0.3946  0.0706
27843W        W45367  12.565  17.878  13.614  0.0214 -0.1779 -0.0957
27844W        W45368  17.778   3.784   4.927 -0.1428  0.0765 -0.2278
27845W        W45369  10.974  11.804   4.651  0.2433 -0.1235 -0.2543
27846W        W45370  18.119   0.194   4.259 -0.0521  0.2743  0.0701
27847W        W45371  16.557  12.316   1.179 -0.1966 -0.0203  0.0293
27848W        W45372  15.437  15.590  15.537 -0.1135  0.0467  0.1171
27849W        W45373   7.874   6.265   3.058 -0.1065  0.1897  0.0376
27850W        W45374  12.716   1.869  13.488  0.0379  0.1136 -0.0822
27851W        W45375   2.041  15.654   1.678  0.3113 -0.1693 -0.2616
27852W        W45376  16.979   4.689   3.597 -0.1206  0.0583 -0.2748
27853W        W45377   0.005   2.853  11.667  0.1327 -0.0326 -0.2598
27854W        W45378  11.798  17.695   3.569 -0.0904  0.0083  0.2948
27855W        W45379  16.517  16.820   3.899 -0.0518  0.4125 -0.0042
27856W        W45380   6.131   8.789   2.085  0.3172 -0.0087  0.0483
27857W        W45381  13.019  13.834   4.278  0.1121 -0.2381 -0.0435
27858W        W45382  15.931   9.443  14.640  0.2174  0.0122  0.2018
27859W        W45383   9.485   3.940  14.005 -0.0301 -0.1545  0.0334
27860W        W45384   5.965  11.091  15.126  0.3264  0.0882 -0.1838
27861W        W45385   7.817   7.762  12.701 -0.0002 -0.2996  0.1222
27862W        W45386  12.232   4.086  13.344 -0.2840  0.0751  0.0498
27863W        W45387   2.527   2.081   2.415  0.0803  0.2251  0.0681
27864W        W45388   7.448   4.297   2.441 -0.1982  0.0524  0.0439
27865W        W45389   9.240   3.401   0.778  0.1114  0.3688 -0.0335
27866W        W45390   9.125   8.968   1.021  0.0576 -0.1951 -0.0545
27867W        W45391   1.709  14.025   4.864 -0.2910  0.4249 -0.2602
27868W        W45392   3.579   5.019   0.044 -0.1571 -0.2658 -0.1521
27869W        W45393   3.949   8.830  12.817  0.3506  0.0219 -0.0330
27870W        W45394  13.794  11.489   2.628 -0.5334 -0.0398 -0.2035
27871W        W45395   7.932  16.966   0.571 -0.2566 -0.2872  0.0517
27872W        W45396  18.127  15.289   4.993 -0.3677 -0.0823  0.0927
27873W        W45397  12.667  15.228   4.145 -0.0719  0.0650 -0.0416
27874W        W45398  17.616   0.125   1.970 -0.0474 -0.0544  0.0236
27875W        W45399   1.170   2.872   3.204 -0.0660 -0.1449 -0.0008
27876W        W45400  15.250   3.746  13.327 -0.1016  0.0162 -0.0005
27877W        W45401   8.122   3.661   0.738  0.1637 -0.3081  0.2555
27878W        W45402  16.833  12.129  11.952 -0.3338  0.0461 -0.2185
27879W        W45403   0.846  12.825  14.793  0.2520  0.0383 -0.1973
27880W        W45404  16.587   4.227  14.506  0.0489  0.2812  0.0652
27881W        W45405   4.725   5.221  12.391 -0.1237 -0.0009 -0.3153
27882W        W45406   4.625   2.254  12.031  0.1065  0.0199  0.1720
27883W        W45407  13.743  15.715   4.344  0.0281  0.0197  0.1227
27884W        W45408   7.241   7.637   0.423 -0.0258  0.2334 -0.0222
27885W        W45409  11.617  13.368  12.548  0.2846  0.0786  0.0941
27886W        W45410   0.859   2.791   2.824  0.1168 -0.0005  0.0066
27887W        W45411  17.687   7.009  14.790  0.0162 -0.0998 -0.2659
27888W        W45412  12.925  14.253  11.681  0.1045 -0.0118  0.0982
27889W        W45413   1.672   2.176   2.215  0.0980 -0.0866 -0.0919
27890W        W45414   8.522  15.231  13.215  0.2283  0.1502 -0.1585
27891W        W45415  15.453   7.208   1.854 -0.0344 -0.1041  0.2495
27892W        W45416   9.824  15.522  13.565  0.0224 -0.1374 -0.1190
27893W        W45417   3.394   9.549   3.787  0.0797  0.2360 -0.2722
27894W        W45418   3.132   4.586   4.919 -0.1982  0.0259 -0.1683
27895W        W45419   6.009  16.892   0.658 -0.1536  0.4627  0.0669
27896W        W45420   5.753   4.950   2.531 -0.1953  0.1627 -0.1718
27897W        W45421   6.410  10.890   4.219 -0.0876 -0.0329  0.0740
27898W        W45422   8.346   4.543   4.466 -0.0446 -0.0954 -0.1098
27899W        W45423   8.869  12.583   1.221  0.3138 -0.0077  0.0785
27900W        W45424  13.309  10.534  12.699  0.0965  0.1025  0.0888
27901W        W45425   4.081  16.365  15.254 -0.1114 -0.4128  0.0189
27902W        W45426   8.209   3.790  11.537 -0.0549  0.3047  0.0628
27903W        W45427  13.555   3.511   0.278  0.2394 -0.3104  0.1711
27904W        W45428  16.419   0.919  12.809  0.1275 -0.2772 -0.0227
27905W        W45429  17.794  14.143  13.655 -0.5089 -0.2192  0.0366
27906W        W45430   7.042  14.163   4.337 -0.2429 -0.0371  0.0318
27907W        W45431  11.106  17.063  13.979 -0.1377 -0.1512  0.2330
27908W        W45432   5.025  15.117   3.079  0.1377  0.0660 -0.0580
27909W        W45433  11.730   3.610   1.236 -0.1722  0.3351  0.2255
27910W        W45434   9.752   1.688  13.238 -0.1220  0.0928 -0.0752
27911W        W45435  16.979  10.551  15.518  0.1344 -0.1537 -0.0851
27912W        W45436   1.641   1.039   4.756  0.2341 -0.0857  0.4948
27913W        W45437  17.655   9.810  16.046  0.3143 -0.0958  0.2268
27914W        W45438  11.089   4.537  11.567 -0.3137  0.2429 -0.2160
27915W        W45439   3.792   7.361   4.868 -0.1212  0.3455  0.1337
27916W        W45440  13.177   3.687  10.098  0.1263 -0.2545 -0.1950
27917W        W45441   2.750   5.906   4.662  0.0342  0.1572 -0.0042
27918W        W45442  13.323   1.967  14.672  0.1049  0.0229 -0.0392
27919W        W45443   4.724  12.998  15.855 -0.3319  0.0193  0.1992
27920W        W45444   4.142   8.716  15.396 -0.1028 -0.1851 -0.1792
27921W        W45445   5.578  16.272  15.341 -0.3317 -0.0593 -0.2214
27922W        W45446   5.592   9.971   4.434  0.1507  0.3261 -0.3652
27923W        W45447   1.772  17.487   3.073 -0.0820  0.4534 -0.4203
27924W        W45448   5.645   9.685  13.459  0.2030  0.2841 -0.1967
27925W        W45449   2.662   4.258   5.626  0.3261  0.0610  0.0235
27926W        W45450   8.611  16.144   3.730  0.0482  0.0868 -0.0570
27927W        W45451   9.137   8.005  12.725  0.2206 -0.0015 -0.1206
27928W        W45452   4.143   1.066   0.377 -0.0257 -0.0837  0.1547
27929W        W45453  10.339   2.092  10.558 -0.3185  0.0783 -0.0728
27930W        W45454   2.421   3.584   2.789 -0.0088  0.0374 -0.0117
27931W        W45455   5.245   0.132   0.083 -0.1411  0.1669  0.0294
27932W        W45456   2.010  16.334   4.766 -0.0715  0.1361 -0.1457
27933W        W45457   9.459   6.625   5.113  0.0944 -0.1128 -0.3966
27934W        W45458  14.562   6.340   2.906  0.3973  0.2616 -0.3706
27935W        W45459  15.803   3.232  14.671  0.2191 -0.1763  0.0311
27936W        W45460  13.617   2.758  15.108  0.3078  0.1205  0.0025
27937W        W45461   9.172   1.950  14.228  0.0697 -0.2470  0.4437
27938W        W45462  10.363   5.562   3.489  0.2902  0.0210 -0.0054
27939W        W45463   4.286   2.201   1.029  0.0944  0.0549  0.0030
27940W        W45464   0.164   5.559   3.542 -0.0763 -0.0357 -0.2298
27941W        W45465  17.899   0.967  14.679 -0.0162 -0.2435 -0.0523
27942W        W45466  14.519   5.068   4.488 -0.1266 -0.2515  0.1888
27943W        W45467   7.161  12.411   2.161  0.0178 -0.1097  0.2305
27944W        W45468   0.425   4.915  13.866  0.1849  0.2925 -0.1604
27945W        W45469   5.458  10.431   2.498 -0.1416 -0.0444  0.1959
27946W        W45470  14.900  17.201  12.611 -0.0209  0.3612  0.0660
27947W        W45471  10.207   8.278   1.215 -0.2593  0.2167 -0.2212
27948W        W45472   2.586  11.736  12.516 -0.0058 -0.0445 -0.0448
27949W        W45473  11.814   2.312   1.058 -0.1873  0.3639 -0.0358
27950W        W45474   1.289   2.714  13.944  0.1171  0.0237  0.4257
27951W        W45475  10.729  17.686   0.333 -0.3139  0.0753  0.0336
27952W        W45476  15.951  16.841  11.650  0.0663  0.0045  0.0095
27953W        W45477   1.807   4.395   3.681  0.1023 -0.3465  0.0457
27954W        W45478  16.286  16.197  15.590 -0.0689  0.0913  0.2373
27955W        W45479   9.178  12.183   2.551  0.0020 -0.4246 -0.1673
27956W        W45480   9.472  10.587   3.985  0.1366 -0.0864 -0.0145
27957W        W45481   4.908   7.500   3.157 -0.0282 -0.0737  0.2084
27958W        W45482   8.540   2.116  12.679  0.0651 -0.0119 -0.0968
27959W        W45483  15.020   0.228   4.244  0.1214  0.0786 -0.2833
27960W        W45484   6.443   8.857  15.481  0.0287 -0.1287 -0.2202
27961W        W45485   1.507  13.269  15.248  0.1060  0.1897  0.1804
27962W        W45486  10.785  14.639  11.940  0.0731 -0.2544  0.0359
27963W        W45487   6.941   1.592   3.859  0.0023  0.0312 -0.0372
27964W        W45488  13.952   9.436  14.090 -0.0094  0.2647 -0.0055
27965W        W45489  16.727  10.826   1.776 -0.3188 -0.2200 -0.1459
27966W        W45490  15.043  17.645  10.476 -0.4425  0.0767 -0.1046
27967W        W45491  14.138   4.075  15.415  0.0650  0.0434 -0.0567
27968W        W45492   1.164   7.933   0.216 -0.1217  0.1270 -0.3052
27969W        W45493  10.119   6.202   2.887  0.2749 -0.1443 -0.2964
27970W        W45494  13.204   2.301  15.838  0.0088 -0.1870  0.1309
27971W        W45495   6.675  15.698   0.849 -0.1259  0.0193 -0.3097
27972W        W45496  10.418  14.607  12.334  0.0218 -0.1165  0.0762
27973W        W45497  11.243  16.314   4.637  0.0532  0.2607 -0.3104
27974W        W45498  13.679   5.135  12.869  0.0078 -0.1149  0.0040
27975W        W45499   8.967  15.429   2.570  0.2726  0.0484  0.1148
27976W        W45500  17.778  17.869   5.711  0.1398  0.2961 -0.2712
27977W        W45501  12.210   7.427   4.724 -0.0221  0.5353  0.4017
27978W        W45502   2.246   1.758   3.009  0.1043  0.2717 -0.0932
27979W        W45503  15.604  13.972  13.741 -0.1138  0.0609 -0.1027
27980W        W45504  13.717  16.697  13.936 -0.0303  0.0526  0.0046
27981W        W45505  15.581  12.384  11.330 -0.1832 -0.0259 -0.3431
27982W        W45506   2.528  13.174  15.849 -0.3698 -0.1426  0.0354
27983W        W45507   5.474   7.071   2.422 -0.2254  0.3703 -0.1079
27984W        W45508   5.052  13.207   4.926  0.4788 -0.1191 -0.3683
27985W        W45509   1.982   6.574  12.183 -0.2572 -0.4053  0.1041
27986W        W45510   3.739   9.783  13.215  0.0652 -0.2737  0.1446
27987W        W45511   5.095  16.118   1.735 -0.1756 -0.0679  0.2930
27988W        W45512   2.984  14.302   5.353  0.0585  0.0917 -0.0828
27989W        W45513  14.872  17.637  12.328 -0.1635  0.0324  0.1604
27990W        W45514  10.707  12.131   5.581  0.1507  0.4170  0.2910
27991W        W45515   2.345  11.690   0.751  0.0335 -0.0303  0.0685
27992W        W45516  11.824   1.364  14.992 -0.1297  0.0038  0.0622
27993W        W45517  11.561   0.799   5.331  0.0809  0.1419 -0.0884
27994W        W45518  12.346   8.866   3.228  0.2389 -0.2767 -0.2425
27995W        W45519  11.892  15.504   2.894 -0.2594  0.3250 -0.0165
27996W        W45520  14.223   1.041   1.506  0.3017  0.0484 -0.0605
27997W        W45521  15.835   6.220   4.262 -0.2538  0.3024  0.1187
27998W        W45522  12.549   6.672  12.450  0.2633 -0.0080  0.3205
27999W        W45523   6.613   3.835  13.188  0.0940 -0.3127 -0.0040
28000W        W45524   5.447   3.774  14.866  0.2957 -0.4048 -0.0871
28001W        W45525   9.734  10.649   2.084  0.0189 -0.2009  0.2478
28002W        W45526   0.143   0.281  14.076 -0.2050 -0.0098  0.1146
28003W        W45527   8.314   5.934   2.219 -0.0629  0.1544 -0.2861
28004W        W45528  11.414  10.683  14.129  0.2344 -0.2410  0.1501
28005W        W45529   3.657   0.397  13.357  0.0324  0.0079  0.2353
28006W        W45530   0.707   9.279   4.425 -0.1352  0.1220  0.1611
28007W        W45531  17.664   6.836  13.039  0.0954 -0.2719 -0.1795
28008W        W45532  15.428  16.075  15.629  0.0985  0.3402  0.1285
28009W        W45533   1.750  13.648   3.178 -0.4237 -0.3882  0.0772
28010W        W45534   6.549   0.794  13.542  0.0461 -0.0432 -0.0450
28011W        W45535  13.311  17.727   2.512 -0.0375 -0.1524 -0.0307
28012W        W45536   0.493   7.293   5.095 -0.2531 -0.0544 -0.1177
28013W        W45537   5.961  11.757  14.806 -0.0185 -0.1416 -0.3652
28014W        W45538   5.854   1.885  14.291  0.1511  0.0019 -0.2105
28015W        W45539  15.453   3.585  10.405 -0.1614 -0.1779 -0.1445
28016W        W45540   7.304   4.339   4.136 -0.0690 -0.1451 -0.0367
28017W        W45541  12.596   8.946   0.301 -0.0527  0.0973  0.0269
28018W        W45542   4.202   6.753  15.572  0.0460  0.2851  0.2709
28019W        W45543  17.321   9.604  11.126 -0.2216 -0.4244 -0.2472
28020W        W45544   4.782  10.987  14.274 -0.1669  0.1403 -0.0590
28021W        W45545   8.545   0.186   3.234 -0.0349 -0.3059 -0.2190
28022W        W45546   4.766  11.938  10.527  0.0755  0.1333  0.0626
28023W        W45547   1.370  15.729   4.674 -0.0147 -0.0160  0.0948
28024W        W45548  13.709  12.923  14.833  0.2494 -0.0749 -0.2436
28025W        W45549  12.924   4.116  12.150 -0.1367  0.2786  0.0187
28026W        W45550   5.449   8.287  10.392  0.4880 -0.0464 -0.0563
28027W        W45551  13.292  11.372   2.706 -0.0347 -0.2462 -0.1910
28028W        W45552  12.690  13.525   1.952  0.1954  0.0315 -0.0424
28029W        W45553   4.741   4.990  13.415  0.1763 -0.1768  0.5336
28030W        W45554  15.733  13.499   0.019  0.1467  0.0138 -0.0746
28031W        W45555  11.893   5.347   1.935  0.1164  0.1641  0.0983
28032W        W45556   0.638   9.023   2.098 -0.0187  0.0226 -0.0107
28033W        W45557  17.017   4.804  15.329 -0.2288  0.1166 -0.1870
28034W        W45558  12.359   9.766  13.173 -0.1942 -0.0595  0.3509
28035W        W45559  11.874  14.177  13.296 -0.0167 -0.0808  0.0909
28036W        W45560  13.842   2.303   4.039 -0.0245  0.1308  0.0183
28037W        W45561  12.615   4.675   0.521  0.1050 -0.0178 -0.1683
28038W        W45562  13.670  17.044  13.560  0.1587  0.1368  0.3771
28039W        W45563  12.084   9.863  12.746 -0.1421  0.3576  0.1277
28040W        W45564  16.721  12.876   2.429 -0.0308  0.2429 -0.0147
28041W        W45565   3.717  16.877  11.121  0.0402 -0.1280 -0.2409
28042W        W45566  12.160  14.774   1.272 -0.1003 -0.0178 -0.2432
28043W        W45567  16.444   1.554   1.820  0.1405  0.1814  0.1986
28044W        W45568   5.344  14.969  12.337 -0.0144 -0.1188  0.2659
28045W        W45569   9.389  14.281  12.265 -0.2970  0.1013  0.2670
28046W        W45570   1.461  12.035   0.600 -0.0946  0.3117 -0.1721
28047W        W45571  15.957  13.991  16.044  0.2274 -0.0799 -0.2530
28048W        W45572   6.308  16.332  11.978 -0.2115  0.1551 -0.0134
28049W        W45573   3.375  13.538  15.598 -0.0162  0.0552 -0.1034
28050W        W45574  16.165  15.368   1.269 -0.1535 -0.2802 -0.0076
28051W        W45575  16.927  14.951  15.800 -0.2462  0.0577  0.2635
28052W        W45576   7.993  10.292  13.547 -0.0618 -0.0270 -0.0887
28053W        W45577  10.895  17.044  15.206 -0.1011 -0.0626 -0.1145
28054W        W45578  14.689  16.501   4.030  0.2042  0.0510 -0.0326
28055W        W45579  16.771   7.879   1.622  0.1822  0.0997 -0.2165
28056W        W45580  12.054  16.463  11.504  0.1416 -0.0036  0.0164
28057W        W45581   2.472  14.487   2.884  0.0589 -0.2160 -0.0650
28058W        W45582  16.075   6.390   0.241 -0.0750 -0.0292  0.0036
28059W        W45583  11.030   0.545   3.158 -0.0841 -0.0047 -0.3123
28060W        W45584  12.210   0.279  15.694  0.1548 -0.1206  0.1044
28061W        W45585  17.383  12.333   3.903 -0.2088  0.0410 -0.1703
28062W        W45586  10.036  13.912   3.949  0.0451 -0.0268  0.0626
28063W        W45587  12.272  16.076  14.501  0.0503 -0.2027 -0.3012
28064W        W45588  14.732   2.083  14.995 -0.0504  0.0170 -0.0823
28065W        W45589   2.413   9.392   4.050  0.0343  0.1610 -0.1044
28066W        W45590   2.466  14.702  15.029  0.0167  0.0865  0.1572
28067W        W45591   2.007  14.564   0.135  0.2817 -0.0344  0.1648
28068W        W45592   4.702  15.063   4.162 -0.2848  0.3163 -0.0135
28069W        W45593  10.248   7.379  14.312 -0.2679 -0.0793  0.3608
28070W        W45594   4.965  13.824   2.630  0.1872  0.0227  0.0253
28071W        W45595  11.078  15.784  13.252 -0.0287  0.1132  0.1503
28072W        W45596   7.890  10.512  14.756  0.0647  0.1411 -0.2094
28073W        W45597  10.371   1.898   2.109 -0.0067 -0.0107 -0.2591
28074W        W45598  14.871   6.674  11.834 -0.0621 -0.0367  0.1153
28075W        W45599  10.658  12.290  14.704  0.0761  0.0110 -0.1979
28076W        W45600  13.434  10.442  11.795  0.3238 -0.0142  0.4325
28077W        W45601   8.758   6.341   3.713 -0.2841  0.3167 -0.2264
28078W        W45602   4.480   5.396  15.680  0.0461  0.1190  0.1884
28079W        W45603  12.906   4.194  11.635  0.0296 -0.1685 -0.1928
28080W        W45604   1.474  16.530  12.492  0.1756  0.0067 -0.1396
28081W        W45605  10.743  10.335   5.182 -0.2058  0.0101 -0.0751
28082W        W45606   8.534  17.739  14.704 -0.2581 -0.1228 -0.2034
28083W        W45607   2.341  16.341  11.253  0.0055  0.1222  0.1224
28084W        W45608  17.953  11.122  12.646 -0.5112  0.0499 -0.1596
28085W        W45609  16.155   4.255  14.849  0.0661  0.0993 -0.1782
28086W        W45610  10.336  15.908  16.015 -0.3442 -0.0023  0.0653
28087W        W45611  15.282   7.424   2.301 -0.2108 -0.2873 -0.0299
28088W        W45612  18.018   4.095  11.074  0.1753 -0.0059  0.0833
28089W        W45613  14.188   3.125  14.282 -0.0950 -0.3247 -0.1214
28090W        W45614   0.854   7.569   2.141  0.3606 -0.1046  0.0411
28091W        W45615   5.018  13.417  15.586 -0.1114  0.0475  0.1612
28092W        W45616   2.977   7.298  13.021  0.0651 -0.0467 -0.0683
28093W        W45617  17.112   4.238  11.097  0.1950 -0.0776 -0.2288
28094W        W45618   1.785   2.996  15.706 -0.0028  0.0204 -0.0748
28095W        W45619  13.026   9.455   2.032 -0.0658  0.2412 -0.0057
28096W        W45620   3.052  10.277  13.610 -0.0565  0.1004  0.0016
28097W        W45621   8.365  10.109  11.367 -0.2793 -0.0899 -0.1076
28098W        W45622  14.108   1.508   5.667 -0.0465 -0.0820 -0.2165
28099W        W45623  10.684   5.947   3.388 -0.2292 -0.2623 -0.0331
28100W        W45624  16.653  15.231   1.460  0.0915  0.3357 -0.1054
28101W        W45625   6.750  10.475   3.018 -0.0622 -0.3109 -0.1668
28102W        W45626  12.209   0.902  10.640 -0.1030 -0.1103 -0.1508
28103W        W45627   5.579   6.708   0.561  0.3309  0.0170 -0.0571
28104W        W45628   1.158   8.736  13.482  0.1269  0.1815 -0.0925
28105W        W45629  10.162   2.843  15.287  0.1028 -0.0252  0.1921
28106W        W45630  11.082  14.965  11.144  0.2288  0.0860  0.0830
28107W        W45631   4.900   2.801   5.766  0.0697 -0.0416  0.1615
28108W        W45632  11.373  14.286   2.820 -0.2127  0.0457 -0.0184
28109W        W45633  17.675   5.315  14.163 -0.0923 -0.0122  0.0528
28110W        W45634   4.859  10.299   3.293 -0.2043 -0.0221  0.0620
28111W        W45635   6.197  13.132   3.828  0.1417  0.1299 -0.0469
28112W        W45636  17.932   9.564   0.920  0.2146  0.1362 -0.1146
28113W        W45637   8.196  13.043   0.126 -0.0883  0.0206  0.0034
28114W        W45638  13.016   9.244   1.490 -0.0113  0.3862 -0.1823
28115W        W45639   5.636  11.664  11.386  0.2947  0.1582  0.0084
28116W        W45640  12.881   6.926  13.175 -0.2212 -0.0347  0.3236
28117W        W45641   9.845   9.038  10.407 -0.0499 -0.1759 -0.1289
28118W        W45642  14.597   9.927   2.123 -0.2088 -0.0948 -0.2341
28119W        W45643   9.098  12.549  14.727 -0.1207  0.1734  0.1601
28120W        W45644  16.400   0.270   2.103  0.2378 -0.0974  0.2526
28121W        W45645   3.071  18.065   4.760  0.2194 -0.0399 -0.1124
28122W        W45646   5.860  13.686   1.017  0.0175  0.0428 -0.3411
28123W        W45647   5.424  12.947  12.049 -0.1869  0.1352 -0.1180
28124W        W45648   2.367  16.121   3.828  0.2046  0.0495  0.2858
28125W        W45649  13.991   1.784   0.141  0.1384 -0.2925  0.0298
28126W        W45650  14.615  14.791   2.287  0.1927  0.0717 -0.1712
28127W        W45651   0.199   0.838  14.599 -0.1219 -0.1370  0.2774
28128W        W45652   7.087  12.505  12.998 -0.1643 -0.4717  0.1677
28129W        W45653  12.277   3.253   1.001  0.1772  0.0381 -0.2367
28130W        W45654  17.993   2.077  12.116  0.0316  0.0048 -0.0242
28131W        W45655  16.565   3.669   3.473  0.0340  0.0452  0.4686
28132W        W45656  11.351   3.784   2.915 -0.1380  0.0227 -0.1381
28133W        W45657   1.267  11.396  16.025  0.0969 -0.2055 -0.2002
28134W        W45658  10.590  11.618  14.143 -0.0109  0.2086  0.0149
28135W        W45659   7.645   5.245  14.691  0.4403  0.2386 -0.0662
28136W        W45660  14.302   7.192  12.182  0.3991 -0.0169  0.1098
28137W        W45661  10.847  17.641  12.974 -0.0086 -0.0835  0.0637
28138W        W45662   2.303   0.316  12.338  0.0917  0.0636  0.3252
28139W        W45663  16.623   2.297   3.078 -0.2443 -0.1486  0.1292
28140W        W45664   4.149   8.374   6.329  0.1480 -0.0047  0.3668
28141W        W45665  16.147   1.699   5.329  0.1126  0.1081 -0.2629
28142W        W45666  17.497  14.790   3.062  0.0864  0.0524 -0.2362
28143W        W45667   8.790   7.175   2.212  0.0509 -0.1447  0.2578
28144W        W45668   7.209  11.626   3.508  0.1559  0.1071  0.0288
28145W        W45669  15.711  16.798   1.030  0.3782 -0.0251  0.1209
28146W        W45670  13.936   5.825   1.451  0.4453  0.3814 -0.3654
28147W        W45671   8.199  17.388  12.463 -0.0548  0.2092  0.1525
28148W        W45672   2.396  15.311   3.711 -0.2598 -0.0913  0.0377
28149W        W45673   4.281   9.169  12.081  0.0504  0.3498  0.2989
28150W        W45674  14.220  17.929   0.283  0.0656  0.1520  0.4178
28151W        W45675   5.452   5.893  12.632 -0.0751  0.2636 -0.2472
28152W        W45676  16.807   3.282   2.296 -0.0913  0.1298 -0.1690
28153W        W45677  10.307  12.704   1.429 -0.1228 -0.0908  0.0390
28154W        W45678   2.931   4.921  15.412 -0.0375  0.3667 -0.1914
28155W        W45679   9.273   5.966  13.785  0.3480 -0.3940 -0.0151
28156W        W45680   2.518  15.355   2.226 -0.1595  0.0180  0.2207
28157W        W45681   9.464   0.638  12.248 -0.1311  0.0701 -0.1375
28158W        W45682   4.696   2.655   4.252  0.1033  0.4313  0.0546
28159W        W45683  16.469   8.990   2.877 -0.1040  0.0668 -0.0897
28160W        W45684   2.346   2.418  12.477 -0.0850  0.1045  0.1497
28161W        W45685  11.421   3.251   0.989  0.1610 -0.2212 -0.1996
28162W        W45686   6.961  16.400   4.558  0.1453  0.0148  0.2484
28163W        W45687  10.349   5.715   1.077 -0.2682 -0.2025  0.2549
28164W        W45688   1.483  18.046   2.371 -0.3595 -0.0734  0.1655
28165W        W45689   3.771  12.120  11.694 -0.0094  0.1496 -0.1758
28166W        W45690  15.058  10.435   0.367 -0.0328  0.3894  0.1984
28167W        W45691   0.193   5.473   5.502  0.0628 -0.0873 -0.2890
28168W        W45692  17.048   0.632  11.959  0.3339 -0.0607 -0.4722
28169W        W45693  15.549  17.184   0.445  0.2025  0.1561  0.1857
28170W        W45694  16.452  10.436   1.731 -0.0530  0.2714  0.1386
28171W        W45695   3.019  15.061   4.785 -0.0429 -0.0763  0.1772
28172W        W45696   2.233   8.478  14.269  0.3942 -0.2208  0.1498
28173W        W45697  13.218  13.248  11.898  0.2520 -0.0624  0.1474
28174W        W45698   6.646   1.141   2.663 -0.1295  0.0838 -0.1937
28175W        W45699  14.039  16.449  12.024 -0.2772  0.3954  0.1625
28176W        W45700  14.606   7.574   1.546 -0.1615 -0.2064 -0.5077
28177W        W45701  15.467  10.686  12.041  0.1194 -0.1768  0.0048
28178W        W45702  15.740   1.670  12.477  0.0603  0.1524 -0.1679
28179W        W45703  17.650   0.545  13.381  0.4744  0.3408  0.3068
28180W        W45704  11.165  10.399  11.746  0.0747  0.4937 -0.0717
28181W        W45705  15.654   3.119  15.104 -0.0023  0.4550  0.0464
28182W        W45706  15.194  17.760   0.160  0.1461 -0.0728 -0.1369
28183W        W45707   8.701  14.406   2.493  0.0619  0.0817 -0.1400
28184W        W45708  15.695   5.313   4.109 -0.0626 -0.0245 -0.0743
28185W        W45709  13.913  16.153   5.316  0.1446 -0.0476 -0.0265
28186W        W45710   3.784   9.049  15.284  0.0425 -0.0638  0.0088
28187W        W45711  17.708  18.120   4.117 -0.0609  0.0429  0.0714
28188W        W45712  17.346   4.499   3.256  0.1982  0.0945  0.1941
28189W        W45713   0.917   3.103  14.644  0.1759  0.0015  0.1547
28190W        W45714  15.764  12.648   2.569  0.0353  0.0282 -0.0162
28191W        W45715  11.258  12.881  11.391  0.1808 -0.1046  0.1639
28192W        W45716  10.377  11.737  11.361 -0.0303  0.1816  0.1495
28193W        W45717   3.090   5.764  13.766 -0.0467  0.0923 -0.0747
28194W        W45718   1.999  14.855   3.191  0.0676 -0.3397  0.0092
28195W        W45719   7.356   5.543   3.298  0.0176  0.0434 -0.2097
28196W        W45720   3.922  15.484   3.581 -0.0792  0.2030 -0.0280
28197W        W45721   0.663  11.072  14.962 -0.3089  0.0186 -0.3046
28198W        W45722  15.091  11.115  11.870 -0.1134 -0.0305  0.1452
28199W        W45723   7.192   7.541  14.105  0.1742 -0.0323  0.0379
28200W        W45724   3.370   2.864  10.836  0.1180  0.2691 -0.4397
28201W        W45725  15.854  16.755  14.804 -0.0733  0.0156  0.1650
28202W        W45726  18.091  14.894  13.218  0.2523 -0.2660 -0.3185
28203W        W45727  11.857   0.373   1.936  0.3982  0.0676  0.1232
28204W        W45728   7.664  10.443   3.793 -0.2632  0.1717 -0.0691
28205W        W45729   3.246   4.790  15.805  0.1454  0.2027  0.0502
28206W        W45730   8.013   9.351   4.556  0.1153  0.0364 -0.1251
28207W        W45731  10.403  11.848   3.106  0.1444  0.0529 -0.1653
28208W        W45732  15.433  13.030  15.240  0.2208  0.1289 -0.0527
28209W        W45733  11.504   9.172   1.779 -0.1803 -0.1572  0.1151
28210W        W45734  13.774   5.135   1.453 -0.0579 -0.4149  0.0707
28211W        W45735   5.458   1.743  11.417 -0.0500  0.2054 -0.0919
28212W        W45736   8.937   5.945   3.933  0.2794 -0.1237  0.0842
28213W        W45737   5.170   9.645   5.684  0.3399  0.1058 -0.0217
28214W        W45738   2.708   0.259   4.083  0.0866 -0.2732  0.1304
28215W        W45739  12.106   5.324  13.500  0.0423 -0.2142  0.1126
28216W        W45740   2.066   4.316  14.244 -0.1857  0.0066 -0.1295
28217W        W45741   3.722   4.369   2.040  0.1436 -0.0704  0.0021
28218W        W45742   7.490   5.972   3.030  0.0222 -0.0525 -0.1883
28219W        W45743   5.692  13.473  13.200 -0.1009 -0.0573 -0.1050
28220W        W45744   8.894   9.385  12.395 -0.0528 -0.0568 -0.2446
28221W        W45745  10.202   1.754  15.176  0.1242  0.0042 -0.0344
28222W        W45746   7.857  13.703  12.516 -0.0308  0.0486  0.0435
28223W        W45747  16.384   4.511   1.737  0.3437 -0.1204 -0.3213
28224W        W45748  18.105   7.543  14.745 -0.0449  0.0408  0.1683
28225W        W45749   7.301   4.005   9.887  0.0359  0.2487  0.0427
28226W        W45750   2.900   3.894   2.420  0.0761 -0.1551 -0.1284
28227W        W45751   8.651   8.033  12.992 -0.0889  0.2449  0.0143
28228W        W45752   9.500  12.441   1.208 -0.0356 -0.0263 -0.3172
28229W        W45753   4.204   9.783  12.970  0.1410  0.0215 -0.1717
28230W        W45754   4.929   8.111   4.375  0.1075 -0.1769 -0.0568
28231W        W45755  15.371   3.363   2.478  0.0182 -0.2086  0.1636
28232W        W45756   6.870   3.141   3.646  0.2075  0.0357  0.2331
28233W        W45757   9.353  13.936  13.784 -0.0023  0.1874  0.0722
28234W        W45758   9.473   5.751  11.263 -0.0899  0.0975 -0.0023
28235W        W45759   9.121   7.108  13.765  0.0332  0.2457  0.2274
28236W        W45760  12.453  14.132  15.202  0.0231 -0.0720 -0.0943
28237W        W45761  12.020   5.885  12.022 -0.0303  0.2148  0.1060
28238W        W45762  16.349   7.250   0.253 -0.1741  0.2083  0.1007
28239W        W45763   3.550  13.586   2.126  0.0877  0.0118 -0.2042
28240W        W45764   0.860   2.487  11.824  0.0309  0.3070  0.4086
28241W        W45765   6.586   1.203  14.667 -0.1365  0.2418 -0.1163
28242W        W45766  10.097  13.971  13.550 -0.2344  0.1615 -0.0671
28243W        W45767   6.255   8.783   5.124 -0.1076  0.2161 -0.0015
28244W        W45768   0.350   5.119  12.301 -0.1175  0.2477  0.2850
28245W        W45769   8.893   7.559   5.424  0.2801 -0.0526  0.1532
28246W        W45770   9.546   5.394   0.502 -0.2009  0.0104 -0.0667
28247W        W45771   0.891  17.628   3.046  0.1525 -0.0839 -0.0535
28248W        W45772  10.778   3.642   4.371  0.1192 -0.2253 -0.2469
28249W        W45773  11.418   8.267  13.350 -0.3022 -0.0794 -0.2539
28250W        W45774  14.392   4.338  13.924 -0.3772 -0.0153  0.1270
28251W        W45775   9.697   5.116  14.117 -0.2885  0.0801  0.1279
28252W        W45776  12.325  14.469   2.141  0.2385  0.1177  0.2783
28253W        W45777   8.157   3.710  10.732 -0.4062  0.1095  0.0683
28254W        W45778   3.907  12.198   2.493  0.1096  0.1333 -0.0013
28255W        W45779  11.125   3.983  14.741  0.2066  0.0441  0.1109
28256W        W45780  15.796  15.915  12.325 -0.0382  0.0592  0.0427
28257W        W45781   0.095   5.072   1.143  0.0181  0.2901 -0.1405
28258W        W45782  15.918   6.481  11.908  0.1710  0.0241 -0.0931
28259W        W45783   1.999  10.343   0.526 -0.0492  0.0418 -0.2575
28260W        W45784   0.319  15.488  11.473 -0.3815  0.0522 -0.2022
28261W        W45785   5.042   4.708   0.650 -0.2000 -0.1794 -0.4281
28262W        W45786   6.114  16.980   2.057  0.2499  0.1911 -0.2150
28263W        W45787   3.709   1.471  14.127  0.1946  0.2153 -0.1213
28264W        W45788   4.022   1.323  11.329 -0.2057 -0.0340 -0.0028
28265W        W45789  15.165  13.052   5.712  0.1270  0.1764  0.3494
28266W        W45790   1.705  14.603  13.215  0.0157  0.1005  0.2601
28267W        W45791   1.839  12.392  12.416  0.1817  0.2133 -0.1087
28268W        W45792  11.593  14.792   2.597  0.2028 -0.0118 -0.0139
28269W        W45793   3.757   3.747  13.158 -0.2023  0.1652  0.0269
28270W        W45794   6.203   1.283   1.644  0.1413 -0.1457 -0.0355
28271W        W45795   9.634  11.512   2.942 -0.0438  0.0859  0.0277
28272W        W45796  16.778   3.713   2.659  0.0584 -0.1386 -0.0716
28273W        W45797  11.222  11.404   3.186 -0.1465  0.2996 -0.1706
28274W        W45798   7.455  10.141  10.090  0.0389 -0.2209 -0.3801
28275W        W45799  10.201  13.372  12.497  0.0154 -0.0952 -0.3364
28276W        W45800   0.566  16.961   4.043 -0.0493 -0.2692 -0.0675
28277W        W45801  12.086   4.240   1.860 -0.0253 -0.1427 -0.1493
28278W        W45802   6.329  10.881  12.193 -0.0820 -0.0858  0.0868
28279W        W45803  13.842   0.952  13.699  0.0137 -0.2739 -0.4871
28280W        W45804   2.765  12.567  15.103 -0.0816  0.3279  0.1122
28281W        W45805   0.567   8.555   1.443  0.0983  0.2736  0.2088
28282W        W45806   0.226  16.948   2.636  0.2349  0.1301  0.0972
28283W        W45807   6.367   6.649  15.518 -0.0316  0.0689 -0.1780
28284W        W45808  11.172   2.010   2.940 -0.0784  0.2815 -0.3165
28285W        W45809  11.293  11.374  11.623  0.3383 -0.1274 -0.0923
28286W        W45810   6.616   6.852   0.840 -0.1702  0.0441  0.1111
28287W        W45811  10.912  13.510   1.141 -0.0254 -0.1907 -0.0837
28288W        W45812  13.547  14.640  12.144  0.1131  0.0960 -0.0257
28289W        W45813   5.086   1.885   2.038 -0.0095  0.0358  0.0412
28290W        W45814   6.444  17.349   1.895 -0.1195  0.0928 -0.5860
28291W        W45815   6.681  15.133   2.202 -0.1137  0.1387  0.0211
28292W        W45816   3.244   8.464  13.200 -0.1676 -0.1516 -0.1713
28293W        W45817   5.751   2.237  11.253 -0.0060  0.1828  0.2113
28294W        W45818   0.898   8.533   2.881 -0.0900 -0.1606 -0.0237
28295W        W45819   6.611  10.877   3.246 -0.1833  0.0301  0.1611
28296W        W45820   8.073  10.219  16.050 -0.1932 -0.3700 -0.1441
28297W        W45821   8.648  11.483  14.963 -0.0216  0.1392 -0.0016
28298W        W45822  14.942  10.430  14.762 -0.0381 -0.2803 -0.0073
28299W        W45823   8.234   7.156  11.956  0.1400 -0.1159 -0.1511
28300W        W45824   9.966  12.079   5.146  0.1152  0.0132  0.0054
28301W        W45825   3.160   2.335   5.452  0.1755 -0.0925 -0.2685
28302W        W45826  10.966   7.386  15.404  0.1465  0.0363 -0.2276
28303W        W45827   7.089  15.588  13.578 -0.1420  0.5877  0.2189
28304W        W45828  17.928   6.308  13.203  0.0837  0.0500  0.1111
28305W        W45829   5.482   5.767   1.749  0.0915  0.0595 -0.1581
28306W        W45830  17.620  16.293   3.024 -0.0341 -0.0508  0.2175
28307W        W45831  13.922  10.683  15.667 -0.2198 -0.1041 -0.2001
28308W        W45832   1.383   2.435   3.263 -0.0163  0.0163  0.2106
28309W        W45833   9.935   9.841   2.425  0.2922  0.1390 -0.1505
28310W        W45834  10.690  15.102  13.119  0.0663 -0.1441  0.2021
28311W        W45835  10.073   3.718   0.379 -0.2728 -0.0757  0.2343
28312W        W45836  10.553   2.724  11.851 -0.0839  0.0542  0.0686
28313W        W45837   9.413  11.182   3.289 -0.4209  0.2088  0.0421
28314W        W45838   5.184  16.858  13.355  0.0360 -0.2087 -0.0785
28315W        W45839  14.669  13.193   0.952  0.1929  0.0613 -0.0298
28316W        W45840   2.145  16.479   1.462 -0.1343  0.0015 -0.0191
28317W        W45841   8.370  12.740  15.825  0.0341 -0.1170 -0.0942
28318W        W45842   2.811  15.265   0.898  0.1989  0.0515 -0.0377
28319W        W45843   9.020   5.444   1.729 -0.0191 -0.1698 -0.0421
28320W        W45844   6.209   5.049   2.250  0.2391 -0.0978  0.0949
28321W        W45845   2.026  17.556  13.796 -0.1915  0.0933 -0.1510
28322W        W45846  16.965  15.413  12.890  0.0312 -0.1217 -0.0368
28323W        W45847  10.025   5.941   1.447  0.3721 -0.2470 -0.0056
28324W        W45848   5.337  14.325  16.009 -0.0794  0.0138  0.2781
28325W        W45849  13.777  17.540   4.263 -0.2779  0.4636 -0.1625
28326W        W45850  15.189  12.548  13.580  0.0003  0.0050  0.1992
28327W        W45851   8.165  15.233   5.995  0.0405  0.0376  0.1685
28328W        W45852  15.867   8.637  11.995 -0.0146  0.1096 -0.0079
28329W        W45853  14.183   7.571   2.365 -0.0059  0.1750 -0.0591
28330W        W45854   7.099   0.932   0.147 -0.0881  0.0679 -0.2270
28331W        W45855   3.708   4.867  14.877 -0.1867 -0.2718  0.3255
28332W        W45856   6.488   3.065  15.494  0.1103 -0.0994  0.0019
28333W        W45857   3.639  17.148  10.356  0.0678 -0.1123 -0.1549
28334W        W45858  13.179  13.705   3.819  0.2748 -0.1844  0.1860
28335W        W45859  15.223  16.090  12.266 -0.2726  0.1826  0.2057
28336W        W45860   9.429   3.709   3.376  0.0206 -0.1815  0.0459
28337W        W45861  18.061   6.553  11.528 -0.0480  0.2802  0.1676
28338W        W45862  11.216   8.682   3.944  0.1449 -0.2258  0.1035
28339W        W45863   6.556   9.253   4.032 -0.0712  0.1021  0.1246
28340W        W45864   6.143   4.719  12.924  0.0383  0.0966 -0.0545
28341W        W45865   4.824  15.979  14.346  0.0476  0.0219 -0.1159
28342W        W45866  14.014   9.289   3.467 -0.5390  0.2536  0.1782
28343W        W45867  18.101   2.054   0.026  0.0466 -0.0281  0.0210
28344W        W45868   1.463  15.963   3.555 -0.0954 -0.1756 -0.2014
28345W        W45869  13.704  12.313   2.966 -0.1927  0.2942 -0.1119
28346W        W45870  11.852  13.888  11.617 -0.0816 -0.2948 -0.1423
28347W        W45871   9.234   5.444   4.652  0.0698 -0.0366 -0.0343
28348W        W45872   6.864  12.432   2.970  0.1102  0.0999  0.1262
28349W        W45873   0.738   9.311  14.712 -0.0308 -0.2224  0.1478
28350W        W45874   9.147   2.227   0.948  0.2321 -0.2548  0.1067
28351W        W45875  15.477  14.099  11.142 -0.3598 -0.2754 -0.3301
28352W        W45876  16.103  13.540   1.261  0.1243  0.2573  0.0586
28353W        W45877  13.088  14.025   2.726  0.2243 -0.1604  0.2825
28354W        W45878   6.739   5.224  15.122  0.1493  0.0055 -0.3459
28355W        W45879   1.502   9.708   3.869  0.5122  0.0649 -0.2007
28356W        W45880  15.626   5.208   3.121  0.0902 -0.0714  0.0331
28357W        W45881  15.144   8.943  13.505 -0.1621 -0.2904  0.1178
28358W        W45882   2.028  10.814   2.967 -0.0530  0.3015 -0.1079
28359W        W45883  11.099   2.527   2.111  0.0010  0.2740  0.1308
28360W        W45884   1.763   1.593   1.909 -0.0457  0.1868 -0.1914
28361W        W45885   9.831   3.585   1.926  0.0709  0.1700  0.2084
28362W        W45886   8.891   6.607  14.486  0.0541 -0.0360  0.1664
28363W        W45887   4.703  12.886   3.527 -0.0344  0.1778 -0.2860
28364W        W45888   2.246   5.304  13.525  0.1167  0.1288 -0.0299
28365W        W45889  11.027  12.318  15.798 -0.1713  0.0429  0.0749
28366W        W45890  13.560   4.094  13.575 -0.0847 -0.4620  0.0584
28367W        W45891   3.333  16.105  14.413  0.1661 -0.2796  0.3701
28368W        W45892   3.010  11.994   4.123  0.3084 -0.1679  0.3508
28369W        W45893   3.920   1.350   0.771  0.0909  0.3341 -0.1281
28370W        W45894  12.301   5.556   2.265 -0.1793 -0.3272 -0.1284
28371W        W45895  15.009   2.035   1.739 -0.2586 -0.0567  0.0326
28372W        W45896  10.895   0.113  11.253 -0.1206  0.3078  0.0501
28373W        W45897  10.626   1.463  14.334 -0.2340  0.3640 -0.0908
28374W        W45898   8.944   0.770  14.092 -0.1310  0.1784 -0.0193
28375W        W45899   9.473   4.255   0.046  0.0046  0.1395  0.3114
28376W        W45900  16.495   5.828  12.041  0.1252  0.2573  0.2442
28377W        W45901   4.413  14.522   3.619 -0.1169 -0.2065  0.1812
28378W        W45902   6.271   7.467   2.612  0.1104 -0.0884  0.0888
28379W        W45903   4.558  13.744   4.792  0.0198  0.2500 -0.2085
28380W        W45904  15.928  10.212   3.507 -0.0787  0.0413  0.0239
28381W        W45905   6.704   2.664  13.594  0.1383 -0.2620  0.2182
28382W        W45906  12.074   6.847   1.981 -0.1547 -0.1713 -0.0443
28383W        W45907  14.070  15.717  15.648 -0.2224  0.0795  0.0833
28384W        W45908   4.236  16.968  12.553  0.0103 -0.1739 -0.0675
28385W        W45909  13.886   1.368   2.485  0.0351  0.1041 -0.2513
28386W        W45910  17.252   1.781  12.738 -0.1656 -0.1036  0.1694
28387W        W45911  14.797   2.827   2.722 -0.0379  0.2397 -0.1392
28388W        W45912  15.158   9.210  15.765  0.0959 -0.0823  0.0713
28389W        W45913   0.073  16.982  13.625  0.4235 -0.3093 -0.2512
28390W        W45914  11.614   2.909  15.215  0.0936  0.1130 -0.1525
28391W        W45915   2.743  14.349  11.981  0.0089 -0.1391  0.3335
28392W        W45916   4.158  15.565  15.576 -0.2636 -0.0574  0.2572
28393W        W45917   7.811   3.191  10.806  0.0356 -0.0917 -0.0775
28394W        W45918  15.122  10.503  10.678 -0.0605  0.0241 -0.1291
28395W        W45919  12.550   1.954   0.271  0.3171  0.2071  0.0703
28396W        W45920  15.321  13.843   1.476 -0.0229  0.3641  0.0200
28397W        W45921   6.680   0.755  15.989  0.0600  0.1316 -0.0094
28398W        W45922   8.097   0.230  11.941  0.0866  0.1008  0.2291
28399W        W45923  10.318   3.078  14.792  0.0096  0.0373  0.0168
28400W        W45924   7.485  11.216  10.434 -0.2040 -0.1768  0.0243
28401W        W45925  15.854   1.411  15.675  0.0563 -0.2040  0.0452
28402W        W45926   6.367   3.996  12.520  0.4144 -0.1261 -0.1813
28403W        W45927   8.801   4.041  12.330 -0.0580 -0.0004  0.0070
28404W        W45928  15.619  11.746   3.017  0.1897 -0.3894  0.2608
28405W        W45929  10.301  15.317  15.469  0.2004  0.3532 -0.1661
28406W        W45930  13.952   4.279   4.499 -0.1726  0.2102 -0.2435
28407W        W45931  10.539  14.445   1.502 -0.0906  0.3060  0.0373
28408W        W45932  12.408  13.252   3.597  0.3088 -0.1161  0.0691
28409W        W45933   6.830  11.389   3.678 -0.0528 -0.0404 -0.0439
28410W        W45934  12.058   6.306   2.060  0.1230 -0.0991 -0.1492
28411W        W45935  17.631   5.135  14.599  0.1601 -0.1080 -0.0395
28412W        W45936   5.753  12.654   5.243  0.0312 -0.3159  0.1105
28413W        W45937   6.722  13.609   4.017  0.1175 -0.1385 -0.1509
28414W        W45938  15.497   3.631   4.256 -0.3583 -0.1078  0.0555
28415W        W45939   6.137   0.288  11.314  0.1525  0.1308 -0.1064
28416W        W45940   7.680  12.854   4.376  0.2780 -0.1415  0.0092
28417W        W45941   2.785  17.688   5.884  0.0085  0.1690 -0.0022
28418W        W45942   3.585  10.385   2.396  0.1810  0.2927  0.1047
28419W        W45943   4.240  16.293   3.836  0.3167  0.0028 -0.0867
28420W        W45944   0.698  13.640  12.077 -0.1837 -0.0056  0.0288
28421W        W45945   3.147  10.019   4.154 -0.0589 -0.1969  0.1536
28422W        W45946   2.971   3.551   2.881 -0.1920  0.1920 -0.1519
28423W        W45947   3.659   4.651   4.230  0.1692 -0.0200  0.0436
28424W        W45948  13.157   1.772   1.893  0.2535  0.1435 -0.0468
28425W        W45949  12.360  17.133  13.733 -0.1249 -0.0167  0.0186
28426W        W45950  10.442  15.658   4.705 -0.3012  0.0555 -0.0948
28427W        W45951  10.429  11.645  16.053  0.0898 -0.2354  0.2530
28428W        W45952   3.321   8.221   5.090  0.1471 -0.3059  0.1262
28429W        W45953   0.312   6.293   0.168  0.1306  0.0410  0.0032
28430W        W45954   3.438   8.658   0.555 -0.3698  0.0594  0.0622
28431W        W45955  13.793  11.880  11.435  0.0496  0.2428  0.0203
28432W        W45956  17.086   2.006   1.656 -0.0858 -0.0759 -0.0407
28433W        W45957  12.229  12.398  13.462 -0.1590  0.0094 -0.0811
28434W        W45958  15.251   5.592   3.284  0.0092 -0.0637  0.1925
28435W        W45959   3.738  13.195   0.486  0.1248 -0.4558  0.0251
28436W        W45960   8.416   3.116   0.535 -0.0640  0.3126 -0.2455
28437W        W45961   8.480   9.235   1.292  0.0040  0.0786  0.0234
28438W        W45962   4.110   1.910   2.098 -0.3476  0.1127 -0.3780
28439W        W45963   2.685   8.154  14.933 -0.0786 -0.0892  0.0344
28440W        W45964   5.548   8.184  13.074 -0.4768 -0.0886 -0.1810
28441W        W45965   8.241  15.944   2.864 -0.1656 -0.0831 -0.0939
28442W        W45966  14.985   8.449   5.557 -0.1303  0.2362 -0.1595
28443W        W45967   0.128  13.183  15.233 -0.0082 -0.0580  0.0453
28444W        W45968   6.859  17.815   1.916  0.0732 -0.0758 -0.1366
28445W        W45969   5.105  10.177   1.841  0.1591  0.2223 -0.0497
28446W        W45970   5.148  12.717  14.411  0.1378  0.1696 -0.0135
28447W        W45971  15.738  15.938  15.175 -0.2509 -0.1772  0.3715
28448W        W45972   8.633  13.003  12.430  0.2694  0.0388 -0.2880
28449W        W45973  13.096   8.748   4.102 -0.1478 -0.4014  0.2668
28450W        W45974   0.843   2.468   0.501 -0.0834  0.0063  0.1899
28451W        W45975  16.243   1.543   0.220 -0.0257  0.3212 -0.0421
28452W        W45976  15.350  15.935  14.607 -0.2125  0.1143 -0.3652
28453W        W45977  16.816  13.417  13.982 -0.1929 -0.0988 -0.1118
28454W        W45978  12.148   7.600   0.728 -0.2273  0.0270 -0.1190
28455W        W45979  17.094   9.611   4.427 -0.2347 -0.1936  0.0847
28456W        W45980   2.397   3.303   2.171 -0.1705  0.3262 -0.1961
28457W        W45981  10.818  16.077   4.758  0.0898  0.1257 -0.1660
28458W        W45982   2.156  16.255   0.057 -0.1778 -0.0883 -0.0667
28459W        W45983   0.010   1.378   0.811 -0.1806  0.3859 -0.0840
28460W        W45984  11.707  10.244  14.905 -0.0401  0.0044 -0.3597
28461W        W45985   3.255   5.836  11.185 -0.0027  0.0548  0.1016
28462W        W45986   7.692  11.372   1.297 -0.3921 -0.1230 -0.2678
28463W        W45987  16.390  11.430   6.085  0.1777  0.0287  0.0950
28464W        W45988   2.715  13.132   4.442 -0.1591 -0.0532 -0.1122
28465W        W45989   2.212  11.843  12.993  0.0460 -0.1159 -0.1971
28466W        W45990   9.762  14.772  15.351  0.3223 -0.1104 -0.2322
28467W        W45991  18.016   8.071  13.335  0.0736  0.1531 -0.0132
28468W        W45992   2.398   1.966   1.521  0.0089  0.4149  0.0433
28469W        W45993   8.966  18.084   3.515 -0.0112 -0.1377 -0.0711
28470W        W45994   7.264  16.639  11.451  0.4121  0.0003  0.0578
28471W        W45995  17.306  16.387   4.023 -0.5291  0.2537  0.0502
28472W        W45996  13.274   4.346  12.516  0.2190  0.0193 -0.0869
28473W        W45997   4.475   4.924   0.420 -0.1387 -0.1759 -0.0975
28474W        W45998   2.013   8.872   1.806 -0.0313 -0.2484  0.2171
28475W        W45999  14.421   8.887  11.749 -0.1646 -0.0298 -0.1599
28476W        W46000   0.130   6.165  12.869  0.1942  0.1208 -0.1857
28477W        W46001  13.795  11.428  14.976  0.6676  0.0779  0.0770
28478W        W46002   2.431   9.771   2.385 -0.0264 -0.1789  0.0277
28479W        W46003  11.099  18.030  12.610 -0.1349  0.4006  0.1256
28480W        W46004  16.247  13.474  15.978  0.1583 -0.1618  0.1580
28481W        W46005  12.704   3.327  13.742  0.2043 -0.1698  0.2303
28482W        W46006  12.627   5.243  12.361 -0.0204 -0.1056 -0.2219
28483W        W46007   9.508   2.524   0.129 -0.0730  0.2075 -0.0807
28484W        W46008  15.180  16.829   1.627  0.1666  0.0212  0.3582
28485W        W46009   8.591   8.461   4.638  0.1282 -0.1396 -0.2013
28486W        W46010   3.290  11.578   1.029  0.4543 -0.1352 -0.1956
28487W        W46011   2.304   6.201  11.140 -0.2817 -0.3747  0.1011
28488W        W46012   1.506  17.711  13.883  0.2373 -0.0456 -0.1989
28489W        W46013   2.465   8.844   4.627 -0.2662  0.0472  0.1862
28490W        W46014   1.309   3.008  15.437 -0.2138  0.0010  0.0325
28491W        W46015  10.200   8.659  14.709  0.1185 -0.1869 -0.2592
28492W        W46016   4.166   7.503   3.690  0.3165 -0.0977  0.3876
28493W        W46017   0.480  17.317  11.048  0.1435 -0.0996  0.0319
28494W        W46018   2.654  17.784  13.949  0.2547 -0.0913  0.3310
28495W        W46019   3.063   3.619  14.736 -0.0741 -0.1393  0.0090
28496W        W46020  13.270  17.099  12.939  0.1927  0.0224 -0.1191
28497W        W46021   0.985   5.002   5.466 -0.0878 -0.1713  0.1535
28498W        W46022   8.289  10.276   3.207  0.0887  0.1016  0.1179
28499W        W46023  11.703   6.789  11.917 -0.2504 -0.1649 -0.0790
28500W        W46024  10.884  16.691  15.856  0.0451 -0.2302 -0.0803
28501W        W46025   7.326   2.532   0.480  0.2860  0.0417 -0.1467
28502W        W46026   7.892   1.295   3.705  0.1143  0.1884 -0.0131
28503W        W46027  14.297   8.002  12.959 -0.3891  0.1549  0.0251
28504W        W46028   0.434  13.622   3.800 -0.0539 -0.1525  0.1931
28505W        W46029  14.659  14.106  14.874  0.3114  0.0621 -0.1123
28506W        W46030   9.467   6.031  12.911 -0.0429  0.2715  0.1716
28507W        W46031  14.082  17.428   0.518 -0.0801  0.1953  0.4161
28508W        W46032  12.623  10.000  14.669 -0.1001  0.1477  0.1173
28509W        W46033  12.593  10.982  13.700  0.0606 -0.2642  0.1663
28510W        W46034   3.217  16.473  11.861 -0.0149 -0.1355 -0.0674
28511W        W46035  16.974   6.271   3.168 -0.1338 -0.0875  0.2734
28512W        W46036   0.082   7.176   9.769  0.0305 -0.1452  0.1441
28513W        W46037  12.175  10.415  14.510 -0.1326  0.0875  0.2711
28514W        W46038   8.948   8.778   0.448  0.3480  0.0353  0.1629
28515W        W46039   0.801  16.868   4.841  0.0890 -0.1635 -0.1569
28516W        W46040   5.438  14.823  15.858 -0.0752 -0.0439  0.2247
28517W        W46041  10.080   0.878  13.144  0.2081  0.6542 -0.4472
28518W        W46042   9.101   5.768  11.654  0.0228  0.1354  0.1643
28519W        W46043   5.360  12.445  12.335  0.0511 -0.2994  0.0850
28520W        W46044  12.933  15.911  13.225 -0.0950 -0.3363 -0.0797
28521W        W46045  17.832  13.353  12.580 -0.1914  0.1096 -0.0671
28522W        W46046   3.966  14.542   3.336  0.3274  0.2745 -0.1433
28523W        W46047   6.741  17.393  11.207  0.0512  0.2301 -0.0127
28524W        W46048   9.152   9.644  11.250 -0.1384 -0.1042  0.1548
28525W        W46049  12.130  17.843   1.235 -0.2957 -0.0586  0.2615
28526W        W46050   2.806  16.089   1.590  0.1503  0.1807 -0.0367
28527W        W46051   6.783   8.206  12.463  0.1031  0.4214 -0.0880
28528W        W46052  17.020   4.246  13.635  0.2679 -0.2758  0.2451
28529W        W46053   9.889  10.330  11.506  0.0203 -0.1867  0.0627
28530W        W46054  12.652  16.128   0.145  0.1130 -0.0262 -0.1264
28531W        W46055   4.351   0.012  15.395  0.3712 -0.0296  0.2147
28532W        W46056  14.456   7.892  12.485  0.2091 -0.0023 -0.1907
28533W        W46057  11.039   1.992   3.544 -0.1102  0.4370 -0.1345
28534W        W46058   4.098   8.486  14.010  0.1511  0.0998 -0.1211
28535W        W46059   1.340  11.376  11.575  0.1685 -0.2095  0.1483
28536W        W46060   6.085   9.963   4.463 -0.0836  0.0595 -0.1699
28537W        W46061   7.567  12.928   2.313 -0.1737  0.0344  0.2851
28538W        W46062  17.702  14.299  12.068 -0.0589 -0.0687  0.5060
28539W        W46063  13.228   3.686  15.579  0.1304 -0.0403  0.1787
28540W        W46064  15.549   1.687   2.462  0.1563  0.0089 -0.2871
28541W        W46065   8.544   5.895   2.684 -0.1192  0.0138  0.0230
28542W        W46066   5.724  15.839   4.847  0.1500 -0.1416 -0.0406
28543W        W46067   6.125  10.231  12.928 -0.0024 -0.0200  0.0107
28544W        W46068  16.683   4.116  12.352 -0.2134  0.0920  0.0324
28545W        W46069  12.130   2.856  11.441  0.0483 -0.2065  0.1028
28546W        W46070   9.650   3.472  13.803  0.0507  0.1343  0.1193
28547W        W46071   4.899   8.812  11.496 -0.0093 -0.0435 -0.3128
28548W        W46072  12.085  11.003   1.617 -0.1836 -0.1612  0.0912
28549W        W46073  10.699   2.772  12.689  0.4705 -0.2472  0.0386
28550W        W46074   2.145   5.225  14.397  0.2369  0.2455  0.0246
28551W        W46075  14.951  10.809   1.917 -0.0572 -0.2215  0.1628
28552W        W46076   0.203  13.448   2.811 -0.1597  0.1654 -0.0936
28553W        W46077  14.360  13.271  14.113 -0.4371 -0.2465  0.0662
28554W        W46078  15.995   3.708  14.926 -0.1543 -0.2638  0.2883
28555W        W46079  10.596  17.204  14.775 -0.0827  0.0767  0.2170
28556W        W46080  14.442   6.493   3.920 -0.3461  0.2643 -0.1122
28557W        W46081  17.085   1.381  12.469 -0.0593  0.3009  0.0709
28558W        W46082   4.039   9.901   4.380 -0.1109  0.1336  0.0756
28559W        W46083   6.509   3.219   3.274  0.2065  0.0025  0.1047
28560W        W46084  17.018   1.865  10.746  0.1565  0.0049 -0.0251
28561W        W46085   6.855  15.576   5.930 -0.1063 -0.2078  0.1390
28562W        W46086   3.860   7.645   4.437  0.1856  0.1988  0.1506
28563W        W46087   6.771   2.771  12.137  0.1228 -0.0807  0.0307
28564W        W46088  18.115   8.517  10.597 -0.1072 -0.0378  0.2052
28565W        W46089   8.960  11.943   0.087  0.1862  0.0840  0.2096
28566W        W46090  13.452  13.408  14.597  0.1784 -0.2456  0.2611
28567W        W46091  15.314  14.508  11.967  0.1480 -0.1102 -0.0486
28568W        W46092   0.128  17.946  14.261 -0.2046  0.1240  0.4517
28569W        W46093  13.644   3.180   5.507 -0.0890  0.3548 -0.1010
28570W        W46094  15.895   6.192  15.774 -0.0617  0.1737  0.3286
28571W        W46095  16.671   3.337  12.521  0.0890 -0.0222 -0.1834
28572W        W46096  10.407   6.482   2.171 -0.1088  0.0774  0.0379
28573W        W46097  14.955   5.601  14.842 -0.0855 -0.0971  0.2562
28574W        W46098   6.130   6.484  13.463  0.1779  0.2516 -0.3297
28575W        W46099  10.859  11.938  16.021  0.0468  0.0326 -0.0147
28576W        W46100   4.014  15.398  13.480  0.1098  0.3383 -0.1313
28577W        W46101   4.327  15.834  13.715  0.1470 -0.2311  0.0536
28578W        W46102  18.042   1.236   2.639  0.2982 -0.0877  0.1620
28579W        W46103   1.730  11.759  13.219 -0.1129 -0.0964 -0.2755
28580W        W46104   1.053  15.741  14.331 -0.0641 -0.1007  0.0882
28581W        W46105   2.163  13.877  11.745 -0.0204 -0.3081 -0.0219
28582W        W46106   9.735   3.380   9.902 -0.0524  0.0222 -0.0434
28583W        W46107   7.137   5.705   0.731 -0.0420 -0.0665  0.1045
28584W        W46108   7.368   4.195   4.558  0.1531 -0.1455 -0.2160
28585W        W46109  14.995   9.827   0.355 -0.1357 -0.1355 -0.3073
28586W        W46110   5.301  10.523   2.036 -0.0621 -0.0640 -0.0392
28587W        W46111  10.558   5.333   1.742 -0.1401 -0.1035 -0.1307
28588W        W46112  11.917   0.347   0.934 -0.1015  0.1602 -0.3231
28589W        W46113  16.916   0.997  14.687 -0.2733  0.0180  0.3482
28590W        W46114  13.985   3.388  13.345  0.0123  0.3387 -0.0264
28591W        W46115   7.622   3.659   3.901 -0.3307  0.0685 -0.3052
28592W        W46116  13.395   2.831  15.809  0.0631  0.2906 -0.1426
28593W        W46117  12.654   3.731  11.256  0.1036  0.1400 -0.1612
28594W        W46118  14.890  11.686   3.739 -0.0994  0.0249  0.3319
28595W        W46119   7.051  15.285  14.011 -0.1614 -0.0102  0.1666
28596W        W46120  13.322  17.831   5.036  0.1550  0.2947 -0.3522
28597W        W46121   7.438   5.722  15.905  0.0657 -0.0403  0.4375
28598W        W46122   7.247   1.473  14.042  0.1408 -0.0494 -0.0247
28599W        W46123   5.936   1.032  11.980 -0.1044 -0.1792 -0.1002
28600W        W46124  10.184  17.828  12.950 -0.2759 -0.2211  0.3178
28601W        W46125  16.155  10.804   1.521 -0.2760  0.1177  0.0001
28602W        W46126   5.885   8.166   0.509 -0.3369 -0.1948  0.3434
28603W        W46127  12.195   9.401   4.797 -0.4023  0.2631  0.2497
28604W        W46128  12.516   3.126  15.305  0.1540  0.2902 -0.0004
28605W        W46129   3.023   3.365  10.058 -0.0925  0.0307 -0.2609
28606W        W46130  17.155   6.509  11.707  0.0118 -0.3747 -0.2276
28607W        W46131   8.228   8.292  10.486  0.0779  0.3858 -0.0999
28608W        W46132   8.148  10.493   0.544 -0.1279  0.2884 -0.2989
28609W        W46133   7.462   2.160  12.716  0.1790  0.2895 -0.0994
28610W        W46134  14.422   6.997   3.841 -0.1946  0.1532  0.0466
28611W        W46135  17.405  12.764   4.847 -0.2079  0.1539 -0.1106
28612W        W46136  14.863  12.457  12.771 -0.2820  0.3573  0.0493
28613W        W46137  17.954  10.064   3.232 -0.1904  0.2219 -0.1174
28614W        W46138   6.212   4.285  15.953  0.3225  0.2277 -0.3403
28615W        W46139   9.636  11.475  14.100 -0.0434  0.1984  0.1159
28616W        W46140   3.759  16.177   4.734  0.0926 -0.4173 -0.1594
28617W        W46141  12.882  16.173  12.713 -0.1227  0.1780 -0.2274
28618W        W46142  13.616  13.103   1.972  0.0409  0.0453  0.1192
28619W        W46143   1.191   4.469   2.801 -0.0291 -0.0351  0.2784
28620W        W46144  16.948   3.325   4.581  0.1202  0.1175 -0.1976
28621W        W46145   8.131   5.292   1.222 -0.0736 -0.1048 -0.3061
28622W        W46146   4.495  12.438  12.246 -0.0959  0.3034  0.1507
28623W        W46147  10.584  10.804   0.642 -0.0854 -0.0655 -0.1456
28624W        W46148  10.473   1.105  14.661  0.1205  0.0595  0.0143
28625W        W46149   9.987   9.687  13.849  0.1529  0.0874  0.1038
28626W        W46150  17.551  12.332  13.331 -0.0360 -0.1057  0.1166
28627W        W46151   4.208  10.014   0.673  0.0333 -0.1713 -0.0467
28628W        W46152  16.480   6.924   1.660 -0.1911 -0.1998  0.1272
28629W        W46153   0.164  16.242   5.210  0.0573  0.0013  0.3964
28630W        W46154  16.120  14.512  11.927  0.1457  0.1384  0.0559
28631W        W46155   1.311  13.881   3.577  0.0528  0.1692 -0.4767
28632W        W46156  13.651  10.156   3.235  0.0582  0.1123 -0.1298
28633W        W46157  16.024   8.076  11.998  0.4013 -0.0977 -0.3691
28634W        W46158  13.264   2.699  14.799  0.0081  0.2380 -0.0789
28635W        W46159  16.917   1.301  11.993  0.0018  0.0056  0.0511
28636W        W46160   7.149   1.896  13.742 -0.0242  0.3082 -0.1278
28637W        W46161   7.339   9.517  13.013 -0.0893  0.1261  0.0759
28638W        W46162   0.590   1.050  14.804  0.1054 -0.0402 -0.2984
28639W        W46163   4.580  11.572   2.044 -0.2001 -0.5705 -0.0288
28640W        W46164  12.328   8.981   3.686  0.1682  0.0634  0.1650
28641W        W46165  17.218  15.008   4.875 -0.0036 -0.0691 -0.0707
28642W        W46166  14.313   8.886   2.037 -0.0025  0.0543  0.0566
28643W        W46167  18.100   9.775  15.879 -0.0347  0.0234 -0.0595
28644W        W46168  16.137   6.206   2.526 -0.2363 -0.3256  0.1458
28645W        W46169  15.630   5.698   2.901  0.2188  0.0530 -0.0778
28646W        W46170   6.386  16.130   4.703 -0.2218 -0.3580  0.2167
28647W        W46171  17.182   8.257   3.598 -0.4012 -0.0108 -0.4358
28648W        W46172   4.471  12.567   0.100  0.2052  0.0862  0.0533
28649W        W46173   6.218  14.895  11.818  0.0431 -0.1009  0.2080
28650W        W46174   5.840   3.770  15.165 -0.0276  0.0942 -0.3486
28651W        W46175   1.833   9.703   4.300 -0.1400 -0.3325  0.1366
28652W        W46176   8.277   2.727  15.631 -0.0900  0.1404  0.5311
28653W        W46177  15.765   9.914   4.428  0.2019  0.0326  0.0746
28654W        W46178   2.064   7.513  15.532 -0.3448  0.3002 -0.2509
28655W        W46179   7.162  16.545  12.425  0.1519  0.2765 -0.1748
28656W        W46180   3.900  11.098   2.606 -0.0963 -0.3727 -0.3945
28657W        W46181   9.104   8.503   2.040 -0.0133 -0.1176 -0.2717
28658W        W46182  13.848   7.060   5.411  0.0780 -0.3957  0.2610
28659W        W46183  12.976   1.743  14.341 -0.1114  0.8151  0.1366
28660W        W46184   5.196  11.482  13.897  0.0701  0.3251 -0.0196
28661W        W46185   4.530  16.726   2.345 -0.1031  0.1155 -0.0234
28662W        W46186  15.551  17.844   3.805  0.1316  0.2204 -0.3255
28663W        W46187   8.796  15.280   4.094 -0.0701 -0.0431  0.1360
28664W        W46188   9.079   8.146  13.691  0.1640  0.1045 -0.2289
28665W        W46189   6.703  10.356   1.224  0.1056  0.0335  0.3209
28666W        W46190   9.144   2.781   2.610  0.3615  0.0330 -0.2187
28667W        W46191   7.333  14.289  13.419 -0.1401  0.0557 -0.0321
28668W        W46192   3.607  17.846  12.073 -0.3724  0.2002 -0.0451
28669W        W46193  10.806  17.125  12.805 -0.0755 -0.3051  0.2431
28670W        W46194   8.070   0.191   1.628  0.2837  0.1627 -0.0614
28671W        W46195   1.540   5.607   3.848  0.4493 -0.1743 -0.0873
28672W        W46196   0.270  14.043   2.758  0.2111  0.0660  0.1726
28673W        W46197  13.323   3.842  12.317  0.1923  0.1217  0.1971
28674W        W46198  15.178  11.744  13.276  0.3635 -0.2613  0.0141
28675W        W46199   1.620   1.525   2.425  0.0116 -0.1842 -0.3569
28676W        W46200  12.480  17.889   5.022  0.0775  0.0061 -0.3010
28677W        W46201  14.007  17.618   3.855 -0.1709  0.0952  0.0361
28678W        W46202  13.256  10.361  13.942  0.1596 -0.3241  0.2761
28679W        W46203   5.663   2.850   4.047  0.3388  0.0489 -0.2271
28680W        W46204  15.043  15.183   3.373  0.0509  0.0260 -0.0433
28681W        W46205  11.861  12.738   4.840 -0.2216 -0.1972  0.1272
28682W        W46206   3.452   6.716  12.526  0.2672 -0.1831  0.2732
28683W        W46207   1.855   2.021  14.473  0.3544  0.1222  0.1923
28684W        W46208  16.613   5.783  11.548 -0.2582  0.0451 -0.1727
28685W        W46209  11.502   3.312   2.799  0.0449 -0.0354  0.0788
28686W        W46210  12.678  11.642   2.889 -0.0928  0.4010  0.0147
28687W        W46211  10.650   8.796  14.619  0.1395 -0.0085 -0.2447
28688W        W46212   1.487   1.881  13.561  0.1078 -0.2514 -0.1753
28689W        W46213  13.829  10.099   4.071  0.1277 -0.0273 -0.1821
28690W        W46214   7.046  13.168   4.067 -0.2641  0.1697  0.1491
28691W        W46215   1.796   0.866  12.874  0.1988  0.0818  0.0882
28692W        W46216   0.037  10.268   1.841 -0.0921  0.3812 -0.1652
28693W        W46217  11.423  15.137  13.566 -0.4457  0.0464 -0.2446
28694W        W46218  13.324   1.606   2.419 -0.3050  0.1125 -0.0602
28695W        W46219   6.072   4.289   3.225  0.1023 -0.1598  0.1686
28696W        W46220   1.631  10.922   3.282  0.2422 -0.0283 -0.3344
28697W        W46221  16.186   5.433   2.028 -0.1382 -0.0655  0.0525
28698W        W46222   3.660   3.571   3.556 -0.0745 -0.0712  0.0582
28699W        W46223  12.940  14.290  14.953  0.2127  0.2141 -0.1259
28700W        W46224   8.107  10.752  15.191 -0.2479  0.2682 -0.0330
28701W        W46225   8.989  13.189  15.628 -0.2908  0.1357 -0.0310
28702W        W46226  15.349   3.068   0.838 -0.0472  0.0930  0.2752
28703W        W46227   5.233  11.828   0.376  0.2143  0.0423 -0.2366
28704W        W46228  13.110  14.741  15.221  0.0345 -0.0221 -0.1912
28705W        W46229  10.980  16.534  12.649 -0.2445 -0.0181  0.3546
28706W        W46230   3.253  12.108   2.285 -0.2042 -0.0505  0.2735
28707W        W46231  10.289  11.489   3.693 -0.2900  0.1387 -0.1976
28708W        W46232   5.997   0.597  12.879 -0.0590  0.2340 -0.0714
28709W        W46233   5.110   8.890   4.015  0.1641  0.0712 -0.3134
28710W        W46234  11.495   0.067  13.183  0.3828 -0.1319  0.0166
28711W        W46235  15.398   6.519   2.411  0.0424  0.0143 -0.1050
28712W        W46236  16.264  15.762   2.971 -0.3855  0.0914 -0.1258
28713W        W46237  16.093   2.797   0.386 -0.0603  0.1929  0.0779
28714W        W46238   8.238  16.724   0.895  0.0816  0.0550  0.2806
28715W        W46239  18.009  17.401  14.192  0.1244  0.1311 -0.1681
28716W        W46240   7.223  10.992   1.197  0.0916 -0.2691 -0.2631
28717W        W46241   6.089  14.705   1.661 -0.0106  0.1997  0.0424
28718W        W46242   6.348  12.388   1.657 -0.0921  0.2581  0.0414
28719W        W46243  14.217  17.308   4.193  0.2447 -0.0657  0.0440
28720W        W46244   6.961  16.828  15.437 -0.1508 -0.0896  0.0059
28721W        W46245   4.438  12.272  11.349  0.1973  0.0892  0.3176
28722W        W46246  18.093   5.592  11.599  0.2358 -0.1208  0.0126
28723W        W46247   9.948  11.858  13.202  0.0577  0.2748 -0.2265
28724W        W46248  17.278   2.883   2.623 -0.0045  0.3389 -0.1878
28725W        W46249  10.521   7.396   1.322 -0.0377  0.2600  0.2810
28726W        W46250   2.386   1.276   5.734  0.0250 -0.0987 -0.3038
28727W        W46251  13.880   1.619  15.332 -0.1979 -0.0300  0.0283
28728W        W46252  12.008  14.785   5.284 -0.0038  0.2128  0.1005
28729W        W46253   2.609   6.021  12.726 -0.0124 -0.3102 -0.0828
28730W        W46254  12.632  12.099   3.759 -0.0704  0.0041 -0.0315
28731W        W46255  17.155   4.891   4.880 -0.1344 -0.1399 -0.0446
28732W        W46256   5.888  16.720  14.431  0.0845 -0.1748 -0.1306
28733W        W46257   7.118  11.848  13.000 -0.3462 -0.0235 -0.0631
28734W        W46258   5.006  15.618   1.233 -0.0166  0.0876 -0.5365
28735W        W46259  17.459   4.094  13.800 -0.2255 -0.2114  0.1182
28736W        W46260  11.330   8.966  12.512 -0.1441 -0.1550 -0.3188
28737W        W46261   8.390  15.304  15.434  0.0691 -0.1112 -0.0801
28738W        W46262  10.635   5.068  12.248  0.0997 -0.1047  0.0125
28739W        W46263   9.958   2.442  11.073  0.0009  0.2957 -0.0504
28740W        W46264   7.117   0.095   1.910 -0.0871 -0.2755  0.0206
28741W        W46265   6.889  17.293  15.086 -0.0141 -0.0381 -0.2839
28742W        W46266   3.529   1.842  11.731  0.0326  0.0567 -0.2292
28743W        W46267  14.128   0.867  14.829 -0.0399 -0.2114  0.0138
28744W        W46268  10.273  11.033  12.740 -0.1671  0.0007 -0.3316
28745W        W46269  10.451  12.324   3.247 -0.0400  0.0331 -0.4994
28746W        W46270   5.384   8.992  14.786  0.3039 -0.1783 -0.1934
28747W        W46271   5.622   8.880   3.875 -0.0415 -0.0389  0.0346
28748W        W46272  11.932   7.745   4.048 -0.1159 -0.2279 -0.1380
28749W        W46273   8.019  12.863   3.205  0.1028 -0.2435  0.0161
28750W        W46274   8.782   6.170  11.469 -0.2369  0.1827  0.1294
28751W        W46275   0.775   5.737  14.087 -0.1879  0.2330 -0.1720
28752W        W46276  16.255   6.608  11.523  0.1582 -0.0286  0.0733
28753W        W46277  16.292  13.822   4.673  0.0144  0.2047  0.3530
28754W        W46278  16.340   7.610   2.261 -0.4419 -0.0330  0.1492
28755W        W46279   5.195  14.347   4.727  0.2120 -0.0215 -0.1416
28756W        W46280   3.501  12.447   2.552  0.0467 -0.5367 -0.1362
28757W        W46281  17.701  10.290   1.091 -0.0250 -0.0467  0.0088
28758W        W46282  16.654  15.093   0.254  0.3545  0.1204  0.0110
28759W        W46283   5.362  10.889  11.678 -0.0521 -0.0334 -0.1134
28760W        W46284  10.757  17.289   1.130  0.0545  0.2310  0.2469
28761W        W46285  12.886   8.126   0.360  0.0876 -0.1246 -0.0709
28762W        W46286   7.663   6.712  14.422 -0.0861  0.0831  0.0112
28763W        W46287   6.821  12.675   5.540 -0.1838  0.1665  0.0028
28764W        W46288   9.259  11.197  12.764  0.0898  0.0473  0.1040
28765W        W46289  10.401  15.008  14.937 -0.2862  0.1204  0.2265
28766W        W46290  12.309   8.128  12.998  0.0301 -0.0750  0.3622
28767W        W46291   9.383   8.365   5.296 -0.3051 -0.1131 -0.0264
28768W        W46292   3.545  14.515  13.305  0.2021 -0.2002  0.2258
28769W        W46293   0.804   3.470   2.651 -0.1934  0.2576  0.0845
28770W        W46294   3.240  16.831  14.824 -0.3290 -0.2345  0.0744
28771W        W46295  15.907   0.941  11.410  0.1085 -0.0791 -0.1672
28772W        W46296   9.450  11.988  13.297 -0.1309 -0.3093  0.1532
28773W        W46297  14.676   9.248   2.270 -0.1544 -0.0134  0.1414
28774W        W46298  14.997  17.803  15.332 -0.0837 -0.0605  0.0086
28775W        W46299  13.306   8.322  14.741  0.0193 -0.3141 -0.3400
28776W        W46300  12.411   8.151   1.730 -0.3678 -0.2245 -0.0885
28777W        W46301  14.703   0.401   2.941  0.3419  0.1636 -0.0214
28778W        W46302  16.985   1.365   2.864  0.1963 -0.0135  0.3641
28779W        W46303   7.093   3.122   0.837 -0.1685 -0.2599  0.2860
28780W        W46304   9.269   7.164  10.821 -0.0666  0.3107 -0.1443
28781W        W46305  11.379  15.492   5.062  0.0123  0.1280 -0.2799
28782W        W46306  10.541  14.930  10.429 -0.0169  0.2512  0.0664
28783W        W46307   8.563  16.387   1.133 -0.0282 -0.0167  0.0264
28784W        W46308   0.148   5.182   0.292  0.1815  0.1756  0.0136
28785W        W46309   1.829  15.820  14.897 -0.1388 -0.1167  0.0201
28786W        W46310   6.306   6.096  12.066  0.1050 -0.1346  0.0288
28787W        W46311  17.140   3.413  12.915 -0.0364 -0.0319  0.0723
28788W        W46312   0.779   3.800  12.507 -0.0866  0.2297 -0.0241
28789W        W46313   5.014   5.231   1.905 -0.1224 -0.0307 -0.1838
28790W        W46314  13.069   0.283  12.442 -0.4022 -0.1438 -0.1753
28791W        W46315   1.737   7.742   0.314 -0.4282 -0.1057  0.1998
28792W        W46316  13.659   5.469   3.046 -0.2520 -0.0627  0.2314
28793W        W46317   4.003   5.256  15.803  0.2364 -0.3827  0.2835
28794W        W46318  10.760   1.949  10.659 -0.2788  0.2070  0.1727
28795W        W46319   1.636   9.933   1.201 -0.0612 -0.2237  0.1925
28796W        W46320   5.459  11.785  13.042 -0.0723 -0.2933 -0.1524
28797W        W46321  15.715  17.995  11.043  0.2639 -0.0635 -0.0103
28798W        W46322  14.306  16.862   2.906 -0.1162  0.0449 -0.0412
28799W        W46323  15.178   8.200  12.005  0.4046  0.2142  0.2726
28800W        W46324  10.935   1.309   2.064  0.0272 -0.1501  0.2483
28801W        W46325   0.744  17.258  12.594 -0.3267  0.1124  0.0473
28802W        W46326  13.344   5.919   0.391 -0.1317 -0.1939  0.1289
28803W        W46327  12.386   5.101  10.308  0.0478 -0.2600  0.3942
28804W        W46328  17.467   7.474   5.510  0.2512  0.1287 -0.1596
28805W        W46329  11.957   0.880  12.146  0.0021  0.0369 -0.2277
28806W        W46330  10.800   4.795  11.886 -0.2418 -0.1381 -0.0982
28807W        W46331  11.242   6.609   2.162  0.2728  0.2212 -0.2377
28808W        W46332  10.615   0.453   3.960  0.1641 -0.4530  0.0028
28809W        W46333   2.272  10.281   4.861  0.1471  0.2461  0.0405
28810W        W46334   6.228   2.281   2.705 -0.2801 -0.1321  0.4367
28811W        W46335  15.486   7.174  11.076 -0.0282  0.1467  0.1005
28812W        W46336   5.008   4.269  13.147 -0.0371 -0.0753  0.2508
28813W        W46337   9.376   4.232  13.041  0.0095  0.1677  0.1369
28814W        W46338   4.270   3.873  15.396  0.1847  0.3302 -0.2487
28815W        W46339  18.122   7.950  11.685  0.1435  0.1111 -0.2330
28816W        W46340   0.239   3.968  14.648 -0.2040 -0.0509 -0.0422
28817W        W46341   2.587   5.514  14.454  0.0770  0.1777  0.1124
28818W        W46342  13.059  10.204  14.785 -0.2571  0.1351  0.1890
28819W        W46343  10.128   9.606  14.865 -0.0361  0.0607 -0.0419
28820W        W46344  18.003  12.514   3.734  0.0992  0.0712  0.2144
28821W        W46345   5.602  15.382  11.203 -0.1211  0.0726  0.0845
28822W        W46346  17.773  18.002   3.509 -0.1101 -0.1198 -0.0394
28823W        W46347   1.637   8.885  14.464 -0.1299 -0.2154 -0.3432
28824W        W46348   6.975   4.209  15.132  0.0653 -0.2816 -0.0402
28825W        W46349   5.355  10.534  15.565 -0.0408  0.1490  0.0251
28826W        W46350  14.451   2.297  11.085  0.1279  0.0989  0.0904
28827W        W46351  13.852   0.016   4.387  0.4095 -0.3626  0.2211
28828W        W46352   5.145   8.800   2.681  0.0473 -0.2178  0.1755
28829W        W46353   8.913   8.049   5.128 -0.1099  0.0954 -0.2320
28830W        W46354  16.783   2.355   1.482  0.2218 -0.1377 -0.2485
28831W        W46355   4.924  10.895  13.402 -0.0947 -0.2277  0.1968
28832W        W46356   0.847  11.598   2.862 -0.1828  0.1724  0.0088
28833W        W46357   5.960  13.108   5.884 -0.1962 -0.1414  0.2142
28834W        W46358   2.883  10.765   1.855 -0.3924 -0.0968  0.2339
28835W        W46359   7.868   9.640   0.588 -0.0512 -0.1230 -0.0081
28836W        W46360   2.807  16.254   5.052 -0.2419 -0.0230  0.1226
28837W        W46361  17.264  17.481  15.221  0.3605 -0.3549 -0.1154
28838W        W46362   9.386   1.515   0.409 -0.0682  0.2096  0.3686
28839W        W46363   8.594  12.184  11.225  0.0150 -0.1757 -0.3289
28840W        W46364  10.628  16.768   3.006 -0.2741 -0.1027  0.1662
28841W        W46365   7.932   0.404   2.026 -0.1072 -0.0435  0.2611
28842W        W46366   3.025   5.564   3.838 -0.0837 -0.2512 -0.1560
28843W        W46367  17.322  11.051   3.738  0.1567  0.0051 -0.2444
28844W        W46368   3.165  14.022  15.786 -0.0748  0.0145  0.0005
28845W        W46369  10.182  15.371  13.151 -0.0581 -0.2532 -0.2556
28846W        W46370   9.156  10.638   3.003  0.1641  0.0117 -0.2011
28847W        W46371  10.662   5.016   3.098 -0.0473 -0.1257 -0.1324
28848W        W46372  13.976  18.095  13.798  0.0177  0.1102  0.0939
28849W        W46373  15.813  14.096  11.634  0.1434  0.1892  0.2819
28850W        W46374   3.938  13.678  14.532 -0.1594 -0.1738  0.1638
28851W        W46375  13.925   7.554  12.035 -0.0232  0.0828  0.2305
28852W        W46376  14.253  14.272   1.868 -0.0789  0.0548 -0.2893
28853W        W46377  12.590   8.740  15.160  0.1699 -0.0180 -0.3047
28854W        W46378  12.578   9.951  12.585 -0.0742 -0.3130 -0.1174
28855W        W46379   6.300   6.853   1.261  0.0881 -0.3088 -0.3088
28856W        W46380   9.912   0.861  12.238  0.0112  0.1593  0.0094
28857W        W46381   1.558   6.377  15.664 -0.1222  0.0256  0.3544
28858W        W46382   5.809   2.366  13.118  0.1450 -0.1303 -0.2801
28859W        W46383  16.003   6.644  10.042 -0.1403 -0.1038  0.0927
28860W        W46384   7.545   3.843   2.258 -0.0506  0.1210  0.2173
28861W        W46385   1.881   4.955   4.471 -0.1136  0.1692  0.3611
28862W        W46386   4.503  13.912  12.662  0.0432  0.0136  0.2342
28863W        W46387   8.808   4.871  14.022  0.1752 -0.2199  0.1298
28864W        W46388  12.097   1.291  13.116 -0.2436 -0.2317 -0.2833
28865W        W46389  15.375  18.017  10.651  0.0783 -0.0189 -0.0553
28866W        W46390  12.661   4.289   4.002  0.1915 -0.0108 -0.0584
28867W        W46391   1.478   9.526   0.412 -0.2571 -0.1912 -0.2496
28868W        W46392   6.786  11.868   2.911  0.2588  0.0781 -0.1011
28869W        W46393   2.010  16.125   3.373  0.1664  0.2059 -0.3220
28870W        W46394   4.550  14.296  15.420  0.1747  0.0160 -0.0237
28871W        W46395   9.133  13.188   5.962 -0.1060  0.0332  0.1067
28872W        W46396  12.261  10.768  10.487  0.0030 -0.1007 -0.1866
28873W        W46397  17.179   6.947  15.737  0.1212 -0.0134 -0.1415
28874W        W46398   4.623   9.119  14.548 -0.1681  0.1197  0.1257
28875W        W46399   8.103   3.692   3.619  0.1901  0.1438  0.0896
28876W        W46400   7.407  12.063  15.151 -0.1468  0.0282  0.1679
28877W        W46401   2.246   9.126  14.634  0.4199 -0.2517  0.3347
28878W        W46402   3.973   5.172   1.116  0.0967  0.0057  0.3955
28879W        W46403   2.407  14.548   0.915  0.0093 -0.1984  0.0037
28880W        W46404  12.963   5.534   0.548  0.1001  0.1979  0.0718
28881W        W46405   2.257   6.843   0.651 -0.0314 -0.0651  0.0665
28882W        W46406  15.134   7.591  12.578 -0.1063  0.0152  0.2442
28883W        W46407   2.093   7.192   1.431  0.1621  0.0035  0.2322
28884W        W46408   3.544  11.792   5.860  0.3686 -0.2424 -0.0355
28885W        W46409  13.221   7.287  12.964 -0.0881 -0.1815  0.1237
28886W        W46410  16.814   5.305   4.891 -0.1418  0.0773  0.2770
28887W        W46411  16.260  17.236   3.730 -0.4315  0.0681 -0.3513
28888W        W46412   5.572   2.628  16.033  0.1313  0.1862  0.0958
28889W        W46413  13.599   5.437  15.188  0.2628 -0.3070  0.2405
28890W        W46414   7.296   2.288  11.343  0.0328 -0.1768  0.1462
28891W        W46415  15.291   4.453  15.460 -0.1347  0.0763  0.1924
28892W        W46416   6.827  17.693  13.219  0.0687 -0.0682 -0.3998
28893W        W46417  15.579  10.756  12.891 -0.4675 -0.1509 -0.2000
28894W        W46418  13.592  10.574   3.823  0.3597 -0.2081  0.0926
28895W        W46419   7.121   1.514  10.640  0.6331 -0.1027 -0.0104
28896W        W46420   7.459  17.799  11.633  0.2170 -0.0052  0.3339
28897W        W46421  14.278   8.907  14.565  0.1189 -0.0443  0.1446
28898W        W46422   1.664  13.595  13.446 -0.1901 -0.0595  0.2019
28899W        W46423   5.377  15.689  15.965 -0.2346  0.2154  0.1562
28900W        W46424   3.786   8.293  13.643  0.1841  0.2331  0.1467
28901W        W46425   2.577   2.948  12.715  0.1208 -0.1406  0.0168
28902W        W46426  16.996   7.495  11.137  0.2118 -0.1537  0.1056
28903W        W46427   3.098   5.234  11.948 -0.1777  0.2053 -0.1514
28904W        W46428  14.578   0.596   0.383 -0.0360  0.3315  0.0586
28905W        W46429  16.299  16.639   4.340 -0.3788  0.2933 -0.1654
28906W        W46430  10.246  12.795   0.920 -0.0924 -0.0836 -0.4330
28907W        W46431  15.551   8.440  12.792  0.1925 -0.1650  0.3525
28908W        W46432  17.415   1.002   3.230 -0.0835 -0.2017 -0.2802
28909W        W46433   5.074   7.591  11.320 -0.0842  0.5264 -0.1562
28910W        W46434   4.322  15.003   3.169 -0.1340  0.0145  0.0579
28911W        W46435   5.945   3.727   0.038  0.2531  0.1005 -0.0370
28912W        W46436   5.781   6.278  11.107 -0.1595 -0.3933  0.2646
28913W        W46437   4.490   8.972  15.129 -0.0529  0.0401 -0.1170
28914W        W46438  10.951  17.274   4.649 -0.1223 -0.2372  0.0056
28915W        W46439  13.248  11.804   3.025  0.0266  0.1412  0.0377
28916W        W46440  15.976   9.823  11.146 -0.0051  0.0015 -0.2551
28917W        W46441   6.591   8.473  15.851 -0.0326  0.1165  0.2389
28918W        W46442   9.726  10.186   1.483 -0.1186  0.0813  0.0925
28919W        W46443   7.406  10.615   3.365  0.0402  0.0106 -0.0545
28920W        W46444  16.478  16.254  12.667  0.2539 -0.1085  0.1873
28921W        W46445   0.632  17.401  10.609 -0.1919 -0.0521  0.1451
28922W        W46446  14.590   3.721   4.278  0.0623 -0.0124  0.0436
28923W        W46447   4.607   9.373  13.497  0.1108 -0.1627 -0.1159
28924W        W46448   2.878   4.374   4.497  0.1330  0.0414  0.1966
28925W        W46449  10.470   5.557  13.111  0.1361  0.2041 -0.0085
28926W        W46450   3.361  15.027  13.433  0.3455  0.0392 -0.0697
28927W        W46451   2.899   9.653   2.547  0.1675  0.1920 -0.4782
28928W        W46452  15.751  13.694   4.848  0.0987 -0.1543 -0.3843
28929W        W46453   6.909  16.501  10.177  0.1625 -0.0562 -0.1445
28930W        W46454  16.372  10.694   3.141  0.1811  0.1954  0.0106
28931W        W46455   0.522  13.385   5.303  0.0333  0.0408  0.0129
28932W        W46456   0.293  17.437   0.457 -0.0382  0.3051 -0.2036
28933W        W46457  11.065   9.011  14.718  0.1795  0.0401 -0.1672
28934W        W46458  11.548  12.313  15.488  0.0210 -0.3489  0.0285
28935W        W46459   5.761  16.130   0.186  0.2544  0.0433  0.2287
28936W        W46460  16.902   6.566  12.692 -0.0911  0.1844  0.0801
28937W        W46461  14.094  12.355  15.910 -0.1355 -0.0602 -0.1949
28938W        W46462  10.496   0.939   3.949  0.1893  0.0719  0.1292
28939W        W46463   2.726  13.329   0.689 -0.2267  0.2905 -0.2248
28940W        W46464   0.470  13.629   5.748 -0.0430 -0.2590  0.0793
28941W        W46465  16.682   5.651   1.448  0.1499 -0.0792 -0.0338
28942W        W46466  16.500  12.027   2.995  0.1646 -0.1061  0.1510
28943W        W46467   5.790  14.149   4.688  0.3707 -0.0642 -0.1181
28944W        W46468  16.356   2.210  11.893 -0.1524  0.0510 -0.1785
28945W        W46469   2.474  12.909   4.826 -0.1228  0.1579  0.2349
28946W        W46470   4.643  17.626   1.221 -0.2342  0.0969 -0.0809
28947W        W46471  10.499  16.711   0.821 -0.0561  0.4270  0.2135
28948W        W46472  14.817  18.041  15.778  0.1808  0.1369  0.1311
28949W        W46473  12.237   5.044  13.113  0.1256 -0.0928  0.2078
28950W        W46474   6.547  14.840  13.332 -0.0019  0.1698 -0.2225
28951W        W46475  18.015   4.343  11.626  0.2044  0.0435  0.1081
28952W        W46476   2.292   5.249  11.418 -0.3689 -0.0811 -0.2239
28953W        W46477   3.799  13.240  15.606  0.1199  0.0769  0.1114
28954W        W46478  13.363   2.310   4.737  0.2073 -0.1067 -0.3567
28955W        W46479   9.983   6.798   0.135  0.2410  0.3410  0.4407
28956W        W46480   8.274   9.363  13.135  0.0987 -0.2149 -0.0196
28957W        W46481  13.548  13.257   0.652  0.2873  0.2895 -0.0617
28958W        W46482  10.213  16.340   1.735 -0.1013 -0.1932  0.0199
28959W        W46483   7.240  15.328   4.274  0.4270 -0.1921  0.3602
28960W        W46484   7.706  17.816   2.245  0.0163 -0.1045 -0.0859
28961W        W46485   4.008  17.485  14.666  0.1108 -0.0997  0.1914
28962W        W46486  11.593  12.222   2.703 -0.1550 -0.5079 -0.1777
28963W        W46487   8.027   7.598   1.168  0.1755 -0.1142  0.1701
28964W        W46488   5.580   4.814  14.982 -0.2732  0.0495 -0.2530
28965W        W46489  17.251  13.041  10.856  0.3004 -0.0819  0.0908
28966W        W46490  13.565   0.401  11.869 -0.0021  0.3281  0.0587
28967W        W46491  11.359  14.154   1.412 -0.1334  0.1477 -0.1115
28968W        W46492  13.182  17.568   5.885  0.1146 -0.0297 -0.3926
28969W        W46493   3.059  15.450   2.319  0.0631  0.3763 -0.1672
28970W        W46494   5.668   4.581   3.177  0.0377  0.0814  0.0271
28971W        W46495   2.936   7.048  15.423  0.3584  0.0797 -0.2508
28972W        W46496   6.517   9.951  13.007  0.0878 -0.2332 -0.1097
28973W        W46497  12.982  14.301  15.520  0.0178 -0.1404 -0.0104
28974W        W46498   3.532  11.250  12.910 -0.1993 -0.2270 -0.2765
28975W        W46499   6.789   4.464   3.987  0.0951 -0.1831 -0.0228
28976W        W46500  13.772  14.129  13.965 -0.0884  0.3113 -0.0527
28977W        W46501   5.715  14.943   1.914 -0.1466 -0.1807  0.0291
28978W        W46502   6.431   0.242  12.858 -0.0873  0.2296 -0.2961
28979W        W46503  12.608  12.090   4.297 -0.3916 -0.0305  0.0559
28980W        W46504  15.963   8.214   1.132 -0.0626 -0.0768 -0.1402
28981W        W46505   7.902  14.468   2.444  0.0051 -0.2028 -0.0004
28982W        W46506   4.178  16.030  15.725 -0.1421  0.1009 -0.0651
28983W        W46507  10.974  14.534  12.436  0.0591 -0.1376 -0.1414
28984W        W46508  13.699   2.464   0.379  0.0252 -0.2769  0.3463
28985W        W46509   3.847  17.742   0.581  0.0148  0.0668 -0.0895
28986W        W46510   7.351  15.700  14.316 -0.0211  0.3357  0.0339
28987W        W46511  13.302  16.966  13.932 -0.1736  0.0205 -0.0324
28988W        W46512   0.402  10.064  15.005 -0.1742  0.2838  0.2556
28989W        W46513   5.387   8.492   2.332 -0.3773  0.0642  0.0613
28990W        W46514   7.100   2.711  11.260 -0.0459 -0.0276 -0.0279
28991W        W46515  13.642  10.168   1.597  0.0620 -0.1931 -0.1569
28992W        W46516  10.146  11.867  15.368 -0.0156  0.0713  0.0405
28993W        W46517   9.060  10.487   3.609 -0.0798 -0.0840 -0.2087
28994W        W46518   6.586  17.915  11.779 -0.1466 -0.0225  0.0821
28995W        W46519   2.942  14.830   3.396 -0.5252 -0.0218  0.0012
28996W        W46520   7.387   7.724  11.788 -0.0441 -0.2995  0.1004
28997W        W46521   5.909  10.597  12.053 -0.0512  0.1989 -0.1297
28998W        W46522   2.737  16.637  11.507  0.1071 -0.1757 -0.4425
28999W        W46523   7.007  11.338   0.698 -0.1959 -0.0102 -0.0076
29000W        W46524  14.105  12.258  12.120 -0.1933 -0.0765 -0.2399
29001W        W46525   9.013  14.798   2.543  0.1619  0.2050  0.1290
29002W        W46526   0.207  17.520   5.149 -0.0396  0.0884  0.3963
29003W        W46527  14.231   9.693  15.346  0.2404  0.1717  0.2846
29004W        W46528  11.992   5.531   1.420 -0.1056 -0.0684  0.1061
29005W        W46529   9.817   4.783  12.350 -0.1847 -0.3000 -0.2091
29006W        W46530   2.526  16.156   3.277 -0.0946 -0.1702  0.1822
29007W        W46531  11.025  15.999  15.172  0.0437  0.0500  0.0686
29008W        W46532   3.859   2.851   4.889  0.2874  0.1590 -0.0672
29009W        W46533   5.674   8.583  12.748 -0.1338  0.1205 -0.0567
29010W        W46534  14.597   7.070   4.319 -0.3676 -0.0428  0.1180
29011W        W46535   6.659  13.953  14.185  0.4621  0.1371 -0.3163
29012W        W46536  15.610   9.239  14.213 -0.0101 -0.1801  0.0511
29013W        W46537   5.927  13.474  15.762  0.0621  0.2221 -0.0989
29014W        W46538  15.377   7.699   3.252  0.2167 -0.2986  0.2806
29015W        W46539   9.309  16.387  14.749  0.1849 -0.4781 -0.0406
29016W        W46540  17.509  15.873   0.587 -0.0186 -0.1586 -0.1927
29017W        W46541  17.696  10.741   0.180  0.0031 -0.2128 -0.2108
29018W        W46542   3.092   9.264  11.256 -0.1195  0.1227 -0.0865
29019W        W46543  12.205  10.191   2.199  0.2326  0.0746 -0.0850
29020W        W46544   1.036   6.497   0.258 -0.0629 -0.0309  0.2336
29021W        W46545  12.617   8.748   1.567 -0.0942 -0.1226  0.0939
29022W        W46546   2.318  15.575   0.065  0.3632  0.2669  0.0045
29023W        W46547  17.574  12.189  14.940 -0.1813  0.1021  0.0490
29024W        W46548   4.524   6.332   2.419  0.0438 -0.2212  0.4469
29025W        W46549   8.155   5.564   5.502  0.0029 -0.0329 -0.2557
29026W        W46550  15.501   9.437   2.865 -0.0415  0.0100  0.3383
29027W        W46551   6.807  10.605   2.014  0.2357  0.2411 -0.2103
29028W        W46552   7.088   2.586   0.002 -0.3077  0.0961  0.3541
29029W        W46553   7.627   2.154  10.773 -0.1096 -0.1940  0.1137
29030W        W46554   4.706   7.778   2.559  0.2966  0.0695  0.0596
29031W        W46555  13.865  14.806   1.132  0.3305  0.2138 -0.0448
29032W        W46556   7.073  14.555   0.937  0.2836  0.0185  0.0043
29033W        W46557   9.907  17.820  15.366 -0.0462  0.0558 -0.4057
29034W        W46558  12.891   0.061  14.819 -0.0628 -0.3678  0.0395
29035W        W46559   9.796  14.340   3.359  0.2418  0.0557 -0.2154
29036W        W46560  12.342   8.842   2.713 -0.0465  0.1909 -0.3467
29037W        W46561   7.387  17.565  12.957 -0.0308  0.2463 -0.1937
29038W        W46562  14.676  12.321   2.961  0.2517  0.1223  0.0317
29039W        W46563   7.711  11.640  16.003 -0.0106 -0.2937  0.1792
29040W        W46564  12.026  16.832  13.499 -0.2691 -0.0740  0.3309
29041W        W46565  16.735  14.855   5.421  0.2611  0.0342 -0.1294
29042W        W46566   2.825   4.736   2.228  0.2458 -0.0231 -0.0959
29043W        W46567   9.272  10.434  15.154 -0.1136  0.2685  0.1612
29044W        W46568   5.144  15.495  13.212 -0.1026  0.1764  0.1218
29045W        W46569   7.497   4.441  12.108  0.1628 -0.1090 -0.0312
29046W        W46570  16.692   6.708   3.326 -0.3210 -0.1208  0.3687
29047W        W46571   4.939   5.736   1.645 -0.0772 -0.0169  0.1315
29048W        W46572  16.619  17.340  11.942  0.0539  0.0443 -0.2903
29049W        W46573  11.734   3.866   3.964  0.3847 -0.2253 -0.1249
29050W        W46574   5.502   4.190   0.601  0.0970 -0.1656  0.1110
29051W        W46575   5.778  10.398  14.416 -0.2380  0.3077  0.0127
29052W        W46576   7.929   9.218   0.911 -0.1070  0.0592  0.1563
29053W        W46577  14.036  17.252   1.902 -0.0854  0.1406 -0.1029
29054W        W46578  11.409   5.394  12.869  0.0828  0.1906  0.2822
29055W        W46579   0.135   4.535   2.155  0.0121  0.0368  0.0455
29056W        W46580   5.415   1.395   1.991  0.0782  0.1338 -0.0244
29057W        W46581   2.158  17.735  12.674  0.1256 -0.2154  0.3410
29058W        W46582  11.075   2.166  12.552 -0.5984  0.3012 -0.0451
29059W        W46583  17.929  12.867  12.823 -0.1690 -0.1432 -0.1089
29060W        W46584  13.712  17.615   1.698 -0.1323 -0.1321  0.0182
29061W        W46585  14.672   5.833   4.855  0.2198  0.3197  0.3183
29062W        W46586  14.723   0.078   2.501  0.0075  0.1638  0.0345
29063W        W46587   6.456   1.082   4.529 -0.1554 -0.0462  0.0565
29064W        W46588   1.337   0.374   3.392 -0.2052  0.1796  0.1873
29065W        W46589   8.451   0.550  15.715 -0.1390 -0.0682 -0.2001
29066W        W46590  14.951   4.801  11.530  0.0725 -0.2360 -0.0514
29067W        W46591  15.709   2.171   2.132 -0.0599 -0.3710  0.0777
29068W        W46592  13.825   9.769   5.444 -0.0522 -0.3515  0.2811
29069W        W46593   9.876  13.184  13.454 -0.2768 -0.0937  0.0865
29070W        W46594  17.155   2.008   4.872 -0.2580  0.1811 -0.0820
29071W        W46595  15.047  14.623   2.139  0.0880  0.2573  0.3461
29072W        W46596  17.739   7.886  14.584  0.0017 -0.0841  0.0343
29073W        W46597   8.980  10.680   1.054 -0.4287 -0.0325 -0.0977
29074W        W46598  17.146  16.530  11.983 -0.0477  0.0049 -0.0622
29075W        W46599  15.891   5.750   5.453 -0.1081  0.2614  0.1923
29076W        W46600   5.686   0.844  11.538  0.1497  0.0450 -0.4572
29077W        W46601   4.807   8.153   2.100  0.2757 -0.0253  0.0336
29078W        W46602  17.792  16.823  15.961  0.0415 -0.1127 -0.2725
29079W        W46603  16.505   8.888  12.392 -0.1256 -0.3115  0.1928
29080W        W46604  13.651  12.347   0.911  0.1422  0.1010  0.3075
29081W        W46605  13.521   1.033  12.392  0.1168  0.4933 -0.0560
29082W        W46606   2.263   1.238  10.494 -0.0394  0.0647  0.3730
29083W        W46607   6.141  12.707   1.989 -0.0855  0.1811  0.1418
29084W        W46608   8.959   8.252   2.640 -0.1937 -0.0598 -0.3959
29085W        W46609   1.483  16.141  12.232 -0.0118  0.3041 -0.0303
29086W        W46610  16.947   9.707  14.660 -0.1629 -0.1150  0.3098
29087W        W46611   5.135  16.187  13.944  0.0251 -0.0062  0.1509
29088W        W46612   0.636  16.440  15.063 -0.0398 -0.1396  0.1937
29089W        W46613   2.004   1.084   1.141  0.1244 -0.1362  0.1387
29090W        W46614  16.586  11.407  11.583  0.2689 -0.0651 -0.0123
29091W        W46615  11.862   0.267   0.027 -0.1398 -0.0699 -0.0909
29092W        W46616   9.550   3.722  12.930  0.0020 -0.2872  0.1437
29093W        W46617   2.634  13.570  12.336  0.0467  0.3043 -0.1320
29094W        W46618   6.590  17.735   1.419 -0.0467 -0.0193  0.0146
29095W        W46619  10.198   1.626  11.390 -0.3432 -0.3076  0.0826
29096W        W46620   7.412   8.507   0.764  0.0776  0.0930  0.0712
29097W        W46621  15.443  14.762  14.843  0.4934 -0.0033 -0.0265
29098W        W46622  16.417   6.069  15.399  0.1740  0.0912 -0.1550
29099W        W46623   4.429  10.473  14.627  0.1905 -0.0434  0.1870
29100W        W46624   9.133  16.769  15.116  0.1430 -0.0065  0.0997
29101W        W46625   0.380   8.289   4.186 -0.0188 -0.0958  0.2200
29102W        W46626  10.257   1.365  11.797  0.1138  0.1205  0.0454
29103W        W46627  14.248   2.568   2.342  0.2653  0.3085  0.0850
29104W        W46628  16.114   4.089  12.391 -0.2234 -0.1807 -0.0039
29105W        W46629   2.445   9.564   5.261  0.1123 -0.0422  0.1292
29106W        W46630   5.761   5.876   2.145 -0.3213  0.2009  0.0757
29107W        W46631   2.068   2.739   2.774 -0.2226  0.1177  0.0490
29108W        W46632   8.804  13.641  10.621  0.0512 -0.1171  0.1161
29109W        W46633   2.162   2.672  14.394 -0.2439  0.1648 -0.1119
29110W        W46634   9.192   7.154  11.812 -0.2361 -0.0468  0.0519
29111W        W46635  14.991   4.548   2.807 -0.1448  0.0328 -0.2982
29112W        W46636   2.180  14.761  14.036  0.0179  0.0749 -0.1593
29113W        W46637   0.019   1.589  15.063  0.1475 -0.0848 -0.0310
29114W        W46638   9.801   3.477   3.100 -0.0271  0.1812 -0.1734
29115W        W46639  16.691  17.741   3.668  0.2862  0.0993  0.2849
29116W        W46640   4.224  13.953   0.711 -0.0130 -0.1167 -0.0721
29117W        W46641  12.094   7.760  12.209 -0.3099 -0.2134 -0.0029
29118W        W46642   0.744   4.547  11.778 -0.0861  0.2483 -0.0176
29119W        W46643   2.249   5.503  14.835 -0.0498 -0.0168 -0.4235
29120W        W46644   3.604   2.585   0.895  0.0512 -0.1285  0.1101
29121W        W46645   9.538  13.584   3.206  0.2040  0.1412  0.1711
29122W        W46646   2.236  17.045   4.270 -0.0860 -0.0727  0.3416
29123W        W46647   5.796   6.669  14.572  0.0464 -0.1303  0.2909
29124W        W46648   0.202  11.214   3.978  0.1774 -0.1854  0.1699
29125W        W46649   0.871  18.115   4.532 -0.1639  0.2669 -0.1102
29126W        W46650  12.549   5.265   3.231  0.0681  0.0019  0.0662
29127W        W46651   3.569   2.476   3.551  0.4547 -0.1772 -0.3991
29128W        W46652   8.149  17.493  15.568  0.1471 -0.0915  0.3366
29129W        W46653  10.132  13.663  11.225 -0.0043 -0.0075 -0.3424
29130W        W46654  10.197  17.506   0.935  0.1564  0.1906 -0.1652
29131W        W46655   3.769  15.781  12.313 -0.0168 -0.0787  0.0289
29132W        W46656   1.363  12.124   4.693 -0.1615  0.1750  0.1405
29133W        W46657  15.592   1.430  11.373 -0.2956 -0.1487  0.0085
29134W        W46658   1.911  10.004  14.930 -0.2334  0.1412 -0.2632
29135W        W46659  10.833   5.034  15.978 -0.3267  0.3103  0.3127
29136W        W46660   4.523  14.378   1.504 -0.2463  0.1847  0.0493
29137W        W46661   3.661  10.035  14.146  0.0432 -0.1393 -0.2710
29138W        W46662   2.350   0.709  13.182  0.0126  0.1831  0.0553
29139W        W46663   3.765  12.672  15.770  0.3569  0.0704 -0.0608
29140W        W46664  10.269   3.068  12.669 -0.0633  0.0236 -0.2096
29141W        W46665   7.434  10.209  11.678  0.0031 -0.2203 -0.1231
29142W        W46666  11.445   0.880   4.739 -0.0916  0.0640 -0.1567
29143W        W46667  18.138  12.082   4.025  0.2039  0.3572 -0.0756
29144W        W46668  17.384  17.651   4.802  0.0426  0.1201  0.0119
29145W        W46669  11.731   5.332  12.015  0.1144 -0.2377  0.2081
29146W        W46670  17.379  16.723   0.840 -0.2680  0.1875  0.3739
29147W        W46671  13.823  14.001   3.873  0.1875  0.2071 -0.0669
29148W        W46672   2.188  18.078  14.039  0.1070  0.0413  0.2185
29149W        W46673  15.255   7.307  16.009 -0.1128  0.1584 -0.1873
29150W        W46674  16.788   8.434   0.660  0.1632  0.4541 -0.1910
29151W        W46675  15.063  15.519  14.660  0.0794 -0.0764 -0.0147
29152W        W46676  12.406   6.772   0.630  0.2001  0.0502 -0.0179
29153W        W46677  14.259  10.167  11.781  0.0031 -0.0212 -0.1133
29154W        W46678   3.767  11.563   1.385 -0.0303  0.1759  0.1144
29155W        W46679  11.640   6.303   2.418 -0.2737  0.1451  0.2618
29156W        W46680  16.803   5.560  11.004  0.2428  0.1537 -0.1150
29157W        W46681   5.017  13.831   3.723 -0.0286  0.0274 -0.2494
29158W        W46682   9.166  13.442   1.831 -0.0704 -0.0428  0.0527
29159W        W46683   8.744  18.112  11.986  0.0928 -0.2628  0.0188
29160W        W46684   4.682  11.701   0.606 -0.0618 -0.0010  0.0193
29161W        W46685  11.188  13.435  14.006  0.2161 -0.0581 -0.1453
29162W        W46686   0.322   5.737   2.266 -0.2906  0.0155  0.1807
29163W        W46687   3.304  14.008   1.705  0.0804  0.1419  0.0616
29164W        W46688  10.139   3.129  13.183 -0.2614  0.1425 -0.4520
29165W        W46689   9.559  13.625   5.288 -0.0354 -0.0337  0.1956
29166W        W46690  15.289   0.292  14.838 -0.1464  0.0960  0.0753
29167W        W46691   3.367   7.265  15.252 -0.1239  0.0059  0.2173
29168W        W46692   0.172  15.605   2.657 -0.0739  0.0986 -0.0508
29169W        W46693   9.040   4.923   1.977  0.1077 -0.0302 -0.0810
29170W        W46694   1.986   3.015   2.086  0.0319  0.2725 -0.2170
29171W        W46695   8.949  10.184  14.181 -0.0927  0.0946 -0.3734
29172W        W46696   7.788   7.294  14.996 -0.0310 -0.1115 -0.0221
29173W        W46697   4.765   9.357  13.025  0.3374  0.0904  0.1092
29174W        W46698  11.423   5.821   2.628  0.2184 -0.0086  0.1668
29175W        W46699   5.177   2.979  15.774 -0.1268 -0.0082 -0.0201
29176W        W46700  18.029  16.529   1.673  0.1598 -0.0936 -0.0900
29177W        W46701   2.832   1.141   2.723 -0.0742  0.0482  0.0642
29178W        W46702   6.241   3.548   0.479  0.0918 -0.1455  0.1467
29179W        W46703  11.269  12.932  12.073 -0.3812  0.1374 -0.3223
29180W        W46704   0.072  14.724   0.614  0.1982  0.0320  0.4567
29181W        W46705  18.082   6.405   1.067 -0.0663 -0.1310  0.3580
29182W        W46706   5.689   0.845   0.776  0.1476 -0.2549  0.0445
29183W        W46707   9.396   9.244  13.133  0.0011  0.1210 -0.0338
29184W        W46708   9.574  12.327   0.043  0.1065 -0.1723 -0.0414
29185W        W46709   0.142   3.093  12.995  0.0514  0.1714 -0.0084
29186W        W46710   2.681   7.671   2.094  0.0227 -0.2234 -0.0067
29187W        W46711   8.245  17.185  10.403 -0.0133  0.2408  0.3034
29188W        W46712   6.616   7.998  14.769 -0.1163  0.3349  0.1855
29189W        W46713  16.660  15.785   5.339  0.1297 -0.1542 -0.0598
29190W        W46714   4.005  17.752  13.917 -0.0638 -0.2377  0.1636
29191W        W46715  13.809  12.049  12.548  0.2110 -0.2927  0.1946
29192W        W46716   1.035  11.810  11.472 -0.1295  0.0170 -0.2747
29193W        W46717  15.875   3.249   4.960 -0.0162  0.2138 -0.1254
29194W        W46718  11.502  13.179   1.656  0.0309 -0.0017 -0.1796
29195W        W46719  17.538   3.246  11.971 -0.3005  0.0870  0.1552
29196W        W46720   9.871   5.429  14.982  0.3038  0.0496 -0.0854
29197W        W46721   1.357  16.324  15.498  0.1887 -0.0115 -0.0882
29198W        W46722  18.084  14.998   0.964  0.0954  0.2842 -0.3559
29199W        W46723  10.277  10.356  13.364 -0.0778 -0.0188  0.0006
29200W        W46724   2.897   6.296   3.099 -0.1721  0.0147 -0.4135
29201W        W46725  10.610   6.946  11.375 -0.0978  0.2466  0.0890
29202W        W46726   5.206   5.566   2.234  0.2781 -0.1204  0.1072
29203W        W46727   4.289  10.094   1.668 -0.1534  0.4249 -0.0843
29204W        W46728   5.289   8.257  13.599  0.0765  0.0825  0.2673
29205W        W46729   2.236   4.002  13.896 -0.1185  0.2217  0.1112
29206W        W46730   7.122   5.017  14.802  0.1362  0.3018  0.3641
29207W        W46731  13.323   8.927   3.664 -0.1711  0.0018  0.1073
29208W        W46732  14.749   3.002  11.944  0.1718  0.0666  0.0302
29209W        W46733   3.117  14.970  15.295  0.1767 -0.2941 -0.2228
29210W        W46734  13.493   8.687  15.608  0.0591  0.0034  0.3197
29211W        W46735  10.774   6.698   4.929  0.1415  0.1274  0.0904
29212W        W46736   4.205  15.237  11.611 -0.3926  0.2613  0.0066
29213W        W46737  14.391  13.259  13.601  0.2408 -0.1914  0.0502
29214W        W46738   0.092   8.956  12.277  0.0544 -0.5140  0.0378
29215W        W46739  14.286  16.118   1.636 -0.0069  0.0133  0.0259
29216W        W46740   6.933  17.871  11.424 -0.1813  0.0605 -0.0174
29217W        W46741   3.502  14.644  14.657  0.2758  0.3357 -0.0571
29218W        W46742   6.866   7.110   3.392  0.0527 -0.1066 -0.5112
29219W        W46743   7.561   8.269  14.946  0.0870 -0.0428  0.0685
29220W        W46744  16.248  13.073  14.696 -0.0146  0.0852 -0.1150
29221W        W46745  13.549  16.684   4.600  0.1769 -0.0252  0.3960
29222W        W46746   1.453  15.963   4.054 -0.0102  0.1846 -0.2232
29223W        W46747   6.902   2.616   3.604  0.2678  0.0029 -0.1886
29224W        W46748   1.214  11.150   3.084 -0.0117 -0.0727  0.4466
29225W        W46749  10.209  14.688   4.859  0.1950  0.0525 -0.1128
29226W        W46750   8.070  13.681  13.002  0.3593  0.2013  0.0636
29227W        W46751  10.325  13.562   3.068  0.2403 -0.0753  0.1968
29228W        W46752   8.473   3.689   2.326  0.0346  0.0106 -0.1392
29229W        W46753   7.069   6.718  13.718  0.0631  0.0412 -0.2382
29230W        W46754   1.941  16.686   0.100 -0.1556 -0.0299 -0.1397
29231W        W46755  17.247   2.581   4.098  0.0475  0.2688 -0.1135
29232W        W46756  12.596  11.059   1.697 -0.2326 -0.2284  0.1123
29233W        W46757  15.375  14.269   4.037 -0.1040 -0.1044 -0.0267
29234W        W46758  12.758   1.251  14.718  0.1818 -0.0292 -0.2059
29235W        W46759   0.664  10.904   1.629 -0.2962  0.1411  0.6030
29236W        W46760   3.108   1.728   3.436 -0.3336 -0.0528  0.0324
29237W        W46761  17.588   3.072  13.640 -0.0992 -0.1643 -0.2627
29238W        W46762  11.174  14.613   5.100 -0.0009  0.0011  0.0654
29239W        W46763  17.908   8.930   1.994  0.1154 -0.1415  0.0758
29240W        W46764  15.252   1.215   3.270  0.3039  0.1930 -0.4730
29241W        W46765   6.450  17.893   0.954 -0.0640  0.0131 -0.0646
29242W        W46766  14.239  14.833  15.482 -0.1426 -0.0460 -0.2660
29243W        W46767  13.120  13.399  12.805 -0.1591 -0.0593  0.1661
29244W        W46768  16.929   3.709  16.057  0.1825 -0.1975  0.0502
29245W        W46769   3.125   5.531  13.210 -0.1012 -0.1314 -0.0486
29246W        W46770   2.916  11.305  12.696  0.1626  0.1687  0.0394
29247W        W46771   9.621   5.501   5.020  0.0190 -0.1197  0.2975
29248W        W46772   6.934   8.047  15.687 -0.2207 -0.2284 -0.3570
29249W        W46773   8.188   7.044   4.157 -0.2193 -0.2732 -0.0999
29250W        W46774   9.918   9.122  13.104 -0.1256  0.2130 -0.0928
29251W        W46775   3.584  17.684   1.764 -0.0058  0.4049 -0.0498
29252W        W46776   9.202   9.788   4.460 -0.0784 -0.4040 -0.3246
29253W        W46777   1.673  12.529   4.747 -0.0430 -0.0491 -0.3952
29254W        W46778   4.395  17.373   4.666  0.3607 -0.0408  0.0368
29255W        W46779   9.037  16.965   1.507  0.0860  0.2300  0.3353
29256W        W46780  17.497  17.813   0.941 -0.1391  0.2249 -0.4238
29257W        W46781   7.949  14.026   1.580 -0.0060  0.0608 -0.1645
29258W        W46782  15.330  12.939  14.514 -0.1277  0.0118 -0.1214
29259W        W46783   4.466   9.975  14.823  0.0359  0.3383 -0.0719
29260W        W46784   0.271   7.881  14.442  0.0954 -0.0142  0.1552
29261W        W46785   0.204   9.368  12.561  0.1940 -0.2524 -0.0300
29262W        W46786   7.662  15.143   4.033 -0.0606 -0.0651  0.0893
29263W        W46787   5.327   5.323  10.497  0.3496  0.0772 -0.0331
29264W        W46788  13.851   8.666  10.664  0.0070  0.3384  0.5516
29265W        W46789   3.100  12.919   1.146 -0.2734 -0.0178 -0.1012
29266W        W46790   7.348   8.034  13.855  0.0066  0.1263 -0.0873
29267W        W46791   3.750   6.985  15.583  0.2188 -0.0308 -0.3227
29268W        W46792  10.602   4.816  10.732  0.0393  0.1382 -0.0612
29269W        W46793   7.620  15.122   0.306 -0.0946 -0.1477 -0.0088
29270W        W46794   2.550   4.680   3.211  0.4657 -0.0830 -0.1196
29271W        W46795   5.994  11.313  12.033 -0.2979  0.0111 -0.2523
29272W        W46796  10.274   3.879  12.169 -0.0064 -0.1904 -0.1479
29273W        W46797  13.389   8.972  13.624 -0.1232 -0.4395  0.0868
29274W        W46798   6.324  11.729  10.458 -0.2308 -0.3345 -0.0585
29275W        W46799  11.957  12.892  13.659  0.0377  0.2221 -0.0822
29276W        W46800   8.059   5.374   0.781  0.1308  0.0005  0.2026
29277W        W46801  15.853  16.663   4.570  0.0819 -0.0010 -0.2964
29278W        W46802   0.613   6.091   4.018 -0.3545  0.0274  0.2535
29279W        W46803  10.290   8.100   2.431  0.0112 -0.1141 -0.1993
29280W        W46804   2.920   3.416  11.382 -0.1532  0.2324 -0.0758
29281W        W46805   4.702  14.591   4.235 -0.2877  0.3005  0.3339
29282W        W46806   1.302   7.129   2.317 -0.0256 -0.3287 -0.0013
29283W        W46807   3.412   3.077   4.733  0.0793  0.1125  0.0204
29284W        W46808  14.151  14.863   4.398 -0.1229 -0.0903 -0.1202
29285W        W46809  16.992   1.749  12.205  0.0068 -0.1266  0.0438
29286W        W46810  17.071   6.289  10.835  0.1051  0.0330  0.0267
29287W        W46811   0.619  10.839  12.993  0.0258  0.1666 -0.0128
29288W        W46812   3.121   9.729   1.126  0.1135  0.0117  0.0198
29289W        W46813   7.847   6.352  15.466 -0.1134 -0.1271 -0.0815
29290W        W46814   3.800  15.221  13.087  0.2018 -0.3919  0.2917
29291W        W46815   6.756  10.185   1.780 -0.2880 -0.0503  0.2094
29292W        W46816   2.456  13.469  15.412 -0.2807 -0.0945 -0.0239
29293W        W46817  15.797   9.268   3.256  0.1485  0.3475  0.0333
29294W        W46818   1.814   4.143  15.164  0.0307 -0.1783 -0.0428
29295W        W46819  14.061   9.027   0.816 -0.0408 -0.1593 -0.1362
29296W        W46820  16.837  10.037   3.559 -0.0261  0.1146  0.1269
29297W        W46821  14.462  18.035  15.434  0.2947 -0.0745 -0.0168
29298W        W46822  16.407   4.473   4.455 -0.0622 -0.2660  0.1873
29299W        W46823  14.109   9.470  13.330  0.0129 -0.2854 -0.1007
29300W        W46824   1.585  11.756  11.324 -0.0478  0.1132  0.2414
29301W        W46825   9.286  13.928   1.677 -0.3329  0.0686 -0.0265
29302W        W46826   2.497  17.106   4.752 -0.1152 -0.0047 -0.0318
29303W        W46827   7.928  10.095  12.495  0.1340  0.0287  0.0501
29304W        W46828   6.343   3.611   4.065  0.0428  0.1730  0.3883
29305W        W46829  11.280  12.149   1.521 -0.0909 -0.0415 -0.1207
29306W        W46830  17.372   1.718   2.838  0.0637 -0.0753 -0.1484
29307W        W46831   9.773   7.690  10.361  0.0229 -0.1159 -0.1498
29308W        W46832  10.908   4.164  15.173 -0.2276 -0.0795  0.0629
29309W        W46833  15.578  14.136   5.083 -0.0899 -0.0828 -0.1002
29310W        W46834  10.288  11.069  15.462  0.2362 -0.0660 -0.0364
29311W        W46835   3.139   6.775   2.084  0.0775 -0.3308 -0.3843
29312W        W46836   2.910  11.976   4.877  0.1059  0.0529  0.1757
29313W        W46837   1.059   8.292  15.858  0.2318 -0.1304 -0.0895
29314W        W46838  10.468  17.671  14.653 -0.3905 -0.3308 -0.2683
29315W        W46839   7.638   2.214  11.698  0.0120 -0.1139  0.0112
29316W        W46840  12.360   1.544   4.487  0.3075 -0.0159  0.2059
29317W        W46841   5.603  10.573   1.412 -0.0418  0.0049  0.2234
29318W        W46842   3.087   8.718   2.662  0.0806 -0.1056  0.2279
29319W        W46843   8.895  12.754   5.056 -0.1772 -0.0851  0.1088
29320W        W46844   2.352  17.611   4.929 -0.1865 -0.2544 -0.2162
29321W        W46845  16.684   4.623  16.048 -0.1207  0.0586  0.2647
29322W        W46846   8.530  10.778  15.518 -0.1382  0.1236  0.0503
29323W        W46847  10.507  16.908  13.677  0.0679  0.2628 -0.5208
29324W        W46848  12.241  11.734   4.500  0.1796 -0.1445  0.0480
29325W        W46849   3.052   7.568   3.444  0.0076  0.0676  0.0379
29326W        W46850   5.084   1.043   1.837 -0.4270 -0.0354 -0.0929
29327W        W46851  18.118  11.713   5.488  0.0673  0.3195 -0.1975
29328W        W46852   6.099  13.729   2.574  0.0807  0.0281  0.0553
29329W        W46853   2.963  11.478   5.141  0.0002 -0.0997  0.0525
29330W        W46854  12.767  11.026  14.809 -0.0312  0.0496 -0.3283
29331W        W46855  14.683   5.720   9.977 -0.1554 -0.1075 -0.0666
29332W        W46856   9.750  12.078  11.884  0.2573  0.2428 -0.1941
29333W        W46857   0.136   5.574  12.983 -0.1192  0.1460  0.1499
29334W        W46858  16.285  11.157   1.197  0.3847 -0.0570 -0.0073
29335W        W46859  15.735  17.507   1.688 -0.1949 -0.1129 -0.2644
29336W        W46860   0.193   8.515  13.157 -0.0824  0.0320 -0.0399
29337W        W46861   8.845   4.109   0.832 -0.0437 -0.2841  0.0935
29338W        W46862  12.373   2.069  12.549 -0.0792  0.1048  0.0494
29339W        W46863  10.785   0.265   3.477 -0.2114 -0.1200 -0.1999
29340W        W46864   9.034  10.008  11.602 -0.0405  0.0318  0.0653
29341W        W46865  10.180  10.331   1.774 -0.0863 -0.1070 -0.0619
29342W        W46866   7.152   3.521   4.593 -0.1798 -0.6317 -0.2680
29343W        W46867   5.422   9.308  10.790 -0.1170 -0.0785 -0.0870
29344W        W46868   9.028  14.005   3.736 -0.4717  0.3564 -0.0462
29345W        W46869   4.357   0.779  12.524 -0.2942  0.1261  0.2812
29346W        W46870   9.350  11.766   2.253  0.0881  0.2328 -0.0798
29347W        W46871   5.558   4.028   2.834 -0.1239 -0.2227  0.1960
29348W        W46872   5.014  12.702  13.032 -0.1185 -0.0945  0.2536
29349W        W46873   8.638   6.485  13.231  0.3047 -0.0581  0.2167
29350W        W46874   3.935  12.535   4.216 -0.0453 -0.1989  0.1056
29351W        W46875  15.911  14.626  14.635 -0.2828  0.1453 -0.0439
29352W        W46876   2.573   6.283   3.471 -0.1659 -0.1170  0.0885
29353W        W46877   8.669   8.012  12.501 -0.1562 -0.1012 -0.0490
29354W        W46878   0.478  16.986   3.592 -0.0717  0.0946  0.3610
29355W        W46879  15.099  10.332  13.326  0.0981  0.2390 -0.1041
29356W        W46880   0.929   7.630   1.569  0.0166  0.1805 -0.0092
29357W        W46881  10.917   1.603   4.303 -0.0499  0.0022 -0.2308
29358W        W46882   9.162  12.643  16.027 -0.1021 -0.1016  0.1493
29359W        W46883   4.677  16.983  15.824  0.3125 -0.7309  0.0864
29360W        W46884   8.501  16.802   2.400 -0.0484  0.0983 -0.1019
29361W        W46885   4.857   2.842   3.643 -0.3203  0.2596  0.3672
29362W        W46886  16.909  11.380  15.295 -0.0912 -0.0325  0.0612
29363W        W46887   9.476  11.284   2.206  0.2665  0.1925  0.3579
29364W        W46888  13.877  10.971  13.220  0.0866 -0.2757  0.1969
29365W        W46889   4.185   9.102  14.309 -0.2163  0.1124 -0.1801
29366W        W46890   1.487   0.549   2.689 -0.0664  0.1938 -0.0529
29367W        W46891  17.885  10.133  13.014  0.1233 -0.2632  0.0346
29368W        W46892  13.847  16.663   3.092 -0.1566 -0.4306  0.3667
29369W        W46893   7.474   4.980  13.111 -0.2430  0.2136 -0.1413
29370W        W46894  13.519  14.129   1.984  0.3625  0.0141  0.1244
29371W        W46895   2.265   9.908   4.323 -0.0866 -0.4882 -0.3070
29372W        W46896   8.347   7.138   0.468 -0.3071  0.0132  0.1418
29373W        W46897   6.851   7.007   1.913  0.2167  0.3592 -0.1127
29374W        W46898   8.151  13.224  15.107 -0.0810 -0.1559 -0.1229
29375W        W46899  12.521  15.911  13.575  0.0760  0.0874 -0.2790
29376W        W46900  13.618  14.388  14.401 -0.0466  0.1867  0.1017
29377W        W46901   4.184   3.773  12.715 -0.0433 -0.1262 -0.1199
29378W        W46902   7.436   0.482   5.183  0.0827  0.0800 -0.2137
29379W        W46903  11.850   4.760   2.799 -0.0170  0.1539  0.1596
29380W        W46904   4.227  13.731   4.321 -0.2042  0.1366 -0.0662
29381W        W46905  15.149   4.891  11.097  0.2903 -0.2406  0.0137
29382W        W46906   6.228   6.356   2.593 -0.0793  0.1418  0.3124
29383W        W46907  11.537   7.962   1.684 -0.1657  0.2943 -0.2869
29384W        W46908   1.696  15.098  15.482  0.0721  0.2931  0.0521
29385W        W46909   0.603   3.345   0.357 -0.0674 -0.1489  0.1454
29386W        W46910   0.304   9.495  13.528  0.1000 -0.0031  0.0296
29387W        W46911   7.650   3.991  13.160 -0.0880  0.0117 -0.1917
29388W        W46912   9.787  13.530  13.933 -0.2674 -0.0780  0.0618
29389W        W46913  11.337   4.300   0.906  0.0711  0.0542 -0.2069
29390W        W46914   3.303  11.340  13.665  0.2973  0.3400 -0.0481
29391W        W46915   1.495  14.292   1.247  0.0284 -0.2030  0.0405
29392W        W46916  12.009  14.041  13.802  0.1046  0.2462 -0.1161
29393W        W46917  14.201  14.470   3.263 -0.0800  0.0046 -0.2949
29394W        W46918  11.965   0.694  14.873  0.0931 -0.1278 -0.2011
29395W        W46919  17.709  16.746   3.282  0.1621  0.1503  0.0291
29396W        W46920   8.646  17.598   0.394 -0.1606 -0.2007 -0.2945
29397W        W46921   7.687   7.503   0.776  0.1459  0.4075  0.0700
29398W        W46922  16.497  10.416   4.426 -0.2426 -0.1061 -0.1107
29399W        W46923   4.138   8.581  15.963  0.1089 -0.0539  0.0139
29400W        W46924   4.934  11.188  16.042  0.2644 -0.0738 -0.0231
29401W        W46925   1.884   4.837   1.628 -0.3080 -0.2164 -0.1287
29402W        W46926   9.151   9.558  14.775 -0.1941  0.2131 -0.1936
29403W        W46927  10.816   2.639   0.927 -0.1393 -0.0038 -0.0965
29404W        W46928  12.979  12.787   2.599 -0.0802 -0.1329 -0.1087
29405W        W46929  11.852  13.502  14.816  0.0330  0.0199 -0.0721
29406W        W46930  14.469  13.203  14.632 -0.1324  0.2499  0.0871
29407W        W46931   0.730  11.905  13.887 -0.0492  0.1472 -0.0476
29408W        W46932  13.961   6.680   4.057  0.2094  0.0702 -0.0665
29409W        W46933  10.929  14.435   1.186 -0.2130  0.0912 -0.0309
29410W        W46934  16.276  16.698   2.797  0.1598 -0.2577 -0.2187
29411W        W46935  15.176  15.890  11.237  0.0838 -0.1429  0.2054
29412W        W46936   4.159   5.043  14.030 -0.0130  0.1126 -0.1006
29413W        W46937  12.339   0.218   3.279  0.0297 -0.2122 -0.2662
29414W        W46938   9.744  17.066   3.201  0.1908 -0.2760 -0.1405
29415W        W46939   5.271   4.202   3.205 -0.2050 -0.1725 -0.2269
29416W        W46940   7.034  14.102   5.618 -0.1509  0.0674  0.0560
29417W        W46941   6.802   5.984   1.486  0.0706  0.1938  0.3361
29418W        W46942  17.550   9.114  14.119 -0.0107  0.1559  0.0032
29419W        W46943   6.686  13.063   1.852  0.3262  0.1119  0.0155
29420W        W46944   5.637   1.836   2.131  0.0692  0.1394 -0.0116
29421W        W46945   4.260  13.551   1.557  0.1438  0.1446  0.0190
29422W        W46946  16.885  14.023  11.796  0.1189  0.0117  0.0526
29423W        W46947  11.806  10.034  13.117  0.2152  0.2511  0.0944
29424W        W46948   3.895  12.215  12.175  0.0659  0.0230  0.1593
29425W        W46949  17.106   7.187   2.377 -0.2076  0.0412 -0.0952
29426W        W46950  13.449  14.720  13.144  0.0994  0.0404  0.2814
29427W        W46951   0.033   7.144   1.248  0.0270  0.0547 -0.3615
29428W        W46952  13.734  12.684   4.441 -0.1812  0.0677 -0.3157
29429W        W46953   4.719   9.810  13.729 -0.0629 -0.2260  0.1348
29430W        W46954   5.470   4.951   2.918  0.0049  0.0961 -0.0822
29431W        W46955   1.820  17.567  15.160 -0.1709  0.1206 -0.1159
29432W        W46956   7.647  13.090  10.164 -0.2471 -0.0049  0.0758
29433W        W46957   0.277   2.821   4.963  0.2227 -0.3523  0.1142
29434W        W46958  12.624   1.153   5.377  0.2873  0.1984 -0.3447
29435W        W46959   8.717  18.101  14.974 -0.0901 -0.2513 -0.0465
29436W        W46960  17.298  14.760   1.621  0.0658 -0.2603 -0.0382
29437W        W46961  10.924   0.113   2.002  0.0359 -0.1370 -0.3541
29438W        W46962   0.977   1.933  15.406 -0.0580 -0.1301 -0.0521
29439W        W46963  13.731   3.695  15.026 -0.1293  0.2621  0.1299
29440W        W46964   5.465   9.989  14.349  0.1653 -0.0536  0.0676
29441W        W46965  10.996  15.543   4.783 -0.2352  0.2092  0.0735
29442W        W46966   5.607  14.702  12.742 -0.3159 -0.2604 -0.0296
29443W        W46967  12.241   1.071   4.190 -0.0418 -0.0397 -0.2294
29444W        W46968  14.553  15.622  10.697  0.0328  0.2278 -0.1001
29445W        W46969   8.812  15.692   0.617 -0.2610  0.1110 -0.0612
29446W        W46970   9.945  16.436   5.006 -0.0110  0.2484 -0.3776
29447W        W46971  16.069   7.825   5.934 -0.0408 -0.1338 -0.2289
29448W        W46972  12.770   1.711   2.378 -0.0319  0.3708 -0.1578
29449W        W46973   8.459   9.818   2.197  0.0885 -0.2422  0.1033
29450W        W46974   1.353   0.656   2.006  0.0540 -0.1864  0.0443
29451W        W46975   9.483   7.671   0.773  0.0917 -0.1065  0.4190
29452W        W46976   5.722   4.860   1.389 -0.1160 -0.0536 -0.1421
29453W        W46977   3.848   3.259  13.958 -0.4873 -0.0888 -0.1490
29454W        W46978   9.985  15.107   6.010 -0.3550 -0.2487  0.2412
29455W        W46979  15.038   2.744  14.312 -0.1600 -0.1994  0.0556
29456W        W46980   3.377   9.861   2.103 -0.3294  0.1039 -0.2879
29457W        W46981  10.637  10.879   2.670 -0.0342  0.0552  0.4432
29458W        W46982  17.649  17.615  15.487  0.0983  0.0862  0.2127
29459W        W46983  17.570   9.497   4.586  0.2665 -0.2552  0.3109
29460W        W46984   9.806   4.229  15.248 -0.1327  0.3119  0.0031
29461W        W46985  16.737   1.796   4.143 -0.0006 -0.1348  0.1993
29462W        W46986   3.084  10.519   4.347  0.1433 -0.2920  0.1660
29463W        W46987  17.355   0.962   4.471 -0.1365  0.1010  0.3552
29464W        W46988  15.144  11.155   4.555 -0.1847 -0.0132  0.0443
29465W        W46989   5.192  12.269  15.136  0.1598 -0.0668 -0.1999
29466W        W46990  17.350  13.132  15.162  0.4203 -0.1107 -0.0965
29467W        W46991   0.638   8.609  13.383 -0.0372  0.1770 -0.0408
29468W        W46992  15.663   8.578  14.203 -0.2240  0.0160  0.1079
29469W        W46993   8.624   8.475  12.743  0.1726 -0.1028  0.0924
29470W        W46994   8.333  12.098   1.661  0.2197 -0.0346 -0.0497
29471W        W46995  16.210   4.397  15.978  0.1270  0.0647 -0.0449
29472W        W46996   2.110   3.201   5.137 -0.2675 -0.1777  0.1018
29473W        W46997  12.249   5.839  12.922  0.2079 -0.1014 -0.1455
29474W        W46998  12.651  11.449   0.382 -0.0407 -0.0311 -0.3212
29475W        W46999   0.480  14.187   5.662 -0.4216 -0.2610  0.0762
29476W        W47000  10.586   7.116  15.631 -0.1791 -0.0121 -0.0510
29477W        W47001   0.844   0.947   0.420  0.1544  0.0094 -0.0228
29478W        W47002   7.993  11.799   3.396  0.0343  0.3195  0.1345
29479W        W47003   9.958   5.694   2.823  0.3619  0.1288  0.3020
29480W        W47004  10.872   4.551   3.183 -0.1686 -0.2988  0.1102
29481W        W47005  17.781   2.955  12.782 -0.2292 -0.1211 -0.0450
29482W        W47006   2.229  17.458   2.916  0.0481 -0.1065  0.2327
29483W        W47007   0.166   5.884  14.343 -0.2987 -0.0301 -0.0050
29484W        W47008  10.338  17.693   2.352 -0.0179  0.1587  0.0361
29485W        W47009   7.109   1.659   9.916  0.0227 -0.3820  0.3681
29486W        W47010   2.972  12.892  15.990  0.0944  0.0039  0.3464
29487W        W47011  10.771   7.802  11.336  0.0449  0.3078 -0.1202
29488W        W47012   5.071   6.507  11.496 -0.0994 -0.1999  0.0479
29489W        W47013   2.651  16.047  11.583  0.0368  0.0154 -0.2792
29490W        W47014   3.463  17.180   2.740  0.1920  0.0394  0.0316
29491W        W47015   7.465   9.860   2.039  0.3856  0.2199 -0.4767
29492W        W47016  16.672   6.796  15.706 -0.3608  0.2577  0.0113
29493W        W47017  14.634   5.440   0.900  0.2033 -0.0922 -0.0675
29494W        W47018   5.400  13.577   4.038  0.1069 -0.0568 -0.1466
29495W        W47019   3.095  11.410   0.514 -0.1170  0.2438 -0.1195
29496W        W47020  11.441  17.086  15.147 -0.2309 -0.0101  0.1668
29497W        W47021  15.452  11.707   3.609 -0.0912  0.1676  0.0286
29498W        W47022  16.447   1.010  13.269 -0.3266  0.2130 -0.1059
29499W        W47023   8.735   2.953  13.595 -0.1394  0.3320 -0.1921
29500W        W47024  15.855  17.371   0.753 -0.1280  0.0436 -0.1955
29501W        W47025  11.915   4.394   3.179  0.0596  0.1230 -0.2027
29502W        W47026   6.786   9.791   5.022 -0.0942  0.0307  0.2048
29503W        W47027  15.305  15.273  13.050 -0.0922 -0.0522  0.0361
29504W        W47028  17.952   3.393  13.580 -0.0658 -0.2043 -0.2607
29505W        W47029   9.563  15.295  16.028 -0.0013  0.1901  0.4111
29506W        W47030   3.946   6.079   3.092  0.0728  0.0846 -0.0354
29507W        W47031   6.058   0.078  14.253 -0.0682  0.0507 -0.3808
29508W        W47032  12.136   1.036   5.413  0.2005 -0.0634  0.2465
29509W        W47033   0.270  12.908   4.638 -0.1205  0.0884  0.1194
29510W        W47034  16.622   2.019  13.430 -0.3918  0.2058  0.2560
29511W        W47035  14.974   6.325   0.949 -0.0309 -0.4007 -0.1333
29512W        W47036   4.487  15.320  13.840  0.0518  0.1956  0.2848
29513W        W47037   8.953   6.770   2.014  0.2957  0.0577 -0.2166
29514W        W47038   1.162   2.556   1.315  0.2131  0.3509 -0.1061
29515W        W47039  17.973   2.092   2.136  0.0801 -0.1692  0.3482
29516W        W47040  12.343  10.032   1.384  0.0350 -0.1926 -0.0894
29517W        W47041   2.447  15.524  15.600 -0.1060  0.0961 -0.0296
29518W        W47042   5.795  16.133   1.657  0.1970  0.0737 -0.0313
29519W        W47043  18.039  12.848   5.027  0.3278  0.1965  0.2197
29520W        W47044  12.666  11.495   2.104  0.1800 -0.0187 -0.0083
29521W        W47045  10.845   9.372  15.945 -0.1276 -0.4031  0.0487
29522W        W47046  11.491   1.821  11.922 -0.0541  0.1506 -0.2684
29523W        W47047   1.882   8.398   1.097 -0.4783  0.0092 -0.0451
29524W        W47048   4.070  10.143  14.421  0.0497 -0.1594 -0.0038
29525W        W47049   6.950   8.331  10.065  0.0848  0.1224  0.1535
29526W        W47050  17.907  11.343  12.199 -0.0528 -0.2738 -0.0348
29527W        W47051  15.196  16.083  11.753  0.1050 -0.0249 -0.0726
29528W        W47052   2.660   1.817   1.971  0.0667 -0.3079  0.2185
29529W        W47053   4.231   5.280   5.756  0.0865  0.4273 -0.0595
29530W        W47054  13.989  11.483  14.452  0.0901  0.0427  0.2761
29531W        W47055   9.034  15.760   5.090  0.1295  0.0673  0.0149
29532W        W47056   3.497   5.707  11.634  0.1653 -0.1795  0.0380
29533W        W47057   1.954  12.217  15.089  0.0778  0.3859 -0.1624
29534W        W47058  13.323  14.277   0.692  0.0186  0.0568  0.3424
29535W        W47059   5.088   6.460   1.205  0.1475  0.1244 -0.2154
29536W        W47060   0.217   4.022  15.667 -0.2622  0.2195  0.3421
29537W        W47061   2.614  17.065  11.825  0.0856  0.0833 -0.2810
29538W        W47062  10.989   0.715   4.728  0.0780  0.3221 -0.0089
29539W        W47063   7.820   2.807   3.551  0.0712  0.1113 -0.0002
29540W        W47064   5.492   5.607  14.306  0.1784  0.0292 -0.2013
29541W        W47065   0.834  13.889   0.758 -0.0510 -0.0640 -0.2827
29542W        W47066   3.084   1.915   2.959 -0.1600 -0.0947 -0.0249
29543W        W47067  16.347  17.562  12.330 -0.0210  0.0082  0.2223
29544W        W47068   4.841  14.524  14.182  0.0793  0.1309  0.0696
29545W        W47069  16.876   4.391   1.998 -0.1400  0.1075 -0.0827
29546W        W47070  14.783   2.628  12.911  0.0271  0.0109  0.1481
29547W        W47071   3.823  16.913   3.492  0.2912 -0.0006 -0.1013
29548W        W47072  16.708   2.103   0.907  0.1665 -0.0310 -0.0633
29549W        W47073  14.426   2.453   0.128  0.2787 -0.0186 -0.0116
29550W        W47074   2.662   6.498   0.795 -0.2959  0.1399 -0.1023
29551W        W47075   6.397   1.688  11.868  0.0185  0.0485 -0.0759
29552W        W47076  17.039  12.954  14.037  0.1099 -0.1602  0.0277
29553W        W47077  17.416   6.540   2.810 -0.0413 -0.0431 -0.1086
29554W        W47078   6.493   9.164  14.398  0.0668  0.0654 -0.1910
29555W        W47079  15.723  13.128  14.794 -0.0465 -0.0702  0.0869
29556W        W47080   8.355   0.741  11.210 -0.0541 -0.1655  0.2704
29557W        W47081  11.440   6.485  11.546 -0.0791 -0.0014  0.0902
29558W        W47082   8.574  13.944  13.728 -0.0580 -0.3282 -0.0252
29559W        W47083   8.579   2.782   0.927 -0.1208  0.1070  0.1194
29560W        W47084  12.376   8.759  11.671 -0.0449 -0.3056 -0.6174
29561W        W47085   0.435   4.356   1.052 -0.1777 -0.2182 -0.0956
29562W        W47086  12.815  13.255   3.852 -0.4456  0.0511  0.1098
29563W        W47087   4.293   6.133  11.295 -0.3129  0.0491 -0.1964
29564W        W47088   7.325   8.410   5.852 -0.0162 -0.0785  0.1195
29565W        W47089  16.109   5.409   3.163 -0.1480  0.3410 -0.1151
29566W        W47090  12.790  16.243   1.053  0.3996  0.2889  0.0145
29567W        W47091  15.457   4.970   4.377 -0.1016  0.3702 -0.2673
29568W        W47092   5.780  15.045   4.978  0.0364  0.0873  0.4172
29569W        W47093   1.171   4.765   5.055 -0.0189 -0.3435 -0.0587
29570W        W47094  17.249   2.104   2.559 -0.1467  0.0154  0.0888
29571W        W47095  14.526  11.950  15.314 -0.1433 -0.3130  0.0976
29572W        W47096   7.340  12.707   0.618 -0.1489  0.2340 -0.1740
29573W        W47097  12.000  10.311   1.773  0.0537 -0.0049 -0.1374
29574W        W47098  12.027  14.496   3.445 -0.0887  0.2962 -0.3806
29575W        W47099   6.372  13.216  11.160  0.0042 -0.1863  0.1591
29576W        W47100  17.350  13.573   5.146 -0.0381 -0.1142 -0.0782
29577W        W47101  16.659  16.921  14.352 -0.0936 -0.0278  0.1165
29578W        W47102   8.719   5.002   1.443 -0.1704 -0.2845 -0.0685
29579W        W47103   5.495   4.799  12.840 -0.1029 -0.2152  0.1664
29580W        W47104   9.396   7.448   0.278  0.0836  0.3297 -0.2234
29581W        W47105   1.656  15.507   4.307 -0.1451  0.1097 -0.0578
29582W        W47106   7.630  14.318   2.028  0.0559 -0.1756 -0.0068
29583W        W47107   2.456  10.991  12.580  0.1024  0.3325 -0.0099
29584W        W47108   1.549   0.290  12.818  0.0556  0.1214  0.2607
29585W        W47109  12.503   8.062   3.499 -0.1957 -0.0402  0.0164
29586W        W47110   5.127  15.212  16.024 -0.0236  0.5258  0.1054
29587W        W47111  11.594  15.413   5.520 -0.0934 -0.2487  0.1497
29588W        W47112   5.987  14.991  15.998 -0.1558 -0.0950  0.0319
29589W        W47113  13.866  16.182   1.926  0.2588  0.0467  0.7295
29590W        W47114  13.548  11.211   4.163  0.2410 -0.0998 -0.1611
29591W        W47115  14.972   8.215  15.318  0.0372 -0.2297 -0.5203
29592W        W47116  16.854  15.255  14.176 -0.2259 -0.2501  0.1073
29593W        W47117  11.949   0.076   5.082  0.0656 -0.0697  0.1106
29594W        W47118  17.982   0.081  12.661 -0.1884 -0.2811  0.0050
29595W        W47119   6.596  14.028  15.369 -0.1464  0.1114 -0.0804
29596W        W47120  15.697   6.486  13.233 -0.0873 -0.0097 -0.2198
29597W        W47121   9.738  13.935  14.962  0.0032  0.1462 -0.1399
29598W        W47122   9.182  17.521   9.950  0.1734  0.2035  0.3558
29599W        W47123   1.315   8.424   1.915 -0.1771 -0.1310  0.2524
29600W        W47124  16.115  11.139   3.840 -0.2243 -0.0618 -0.3928
29601W        W47125   9.126   0.356  11.995  0.4075 -0.0345  0.0060
29602W        W47126  17.696   2.014  15.244 -0.1241  0.2122  0.1228
29603W        W47127  12.409   3.445   3.457 -0.1681  0.0432  0.3143
29604W        W47128   5.512  15.456   4.113 -0.2052  0.2878 -0.0825
29605W        W47129   8.754   9.734  12.732 -0.0973 -0.3853 -0.1368
29606W        W47130  14.518   5.716   3.381  0.0795 -0.0024 -0.3292
29607W        W47131  11.020   7.960   4.576  0.0900 -0.4451 -0.2395
29608W        W47132   4.207   3.373  15.673  0.0777 -0.2602 -0.1639
29609W        W47133  16.366   8.505  12.813 -0.0425 -0.5900  0.0264
29610W        W47134   8.928  11.977   3.054  0.0665 -0.0167 -0.0183
29611W        W47135  16.813  15.191   1.941 -0.1698 -0.1088  0.1128
29612W        W47136   3.901   6.733   1.237  0.0414  0.2863 -0.0056
29613W        W47137  11.352  12.264   3.208 -0.0182 -0.2283  0.3328
29614W        W47138   8.563   0.873  11.935 -0.1056 -0.1704 -0.0888
29615W        W47139   4.933  14.491   1.811  0.4194  0.2128  0.0582
29616W        W47140   2.957  13.770  15.425  0.2151  0.4554  0.0091
29617W        W47141  15.611  16.607   2.970 -0.0218 -0.1156 -0.0919
29618W        W47142   0.307  10.205   4.166  0.2699  0.4223  0.1748
29619W        W47143   6.302  11.555   3.821 -0.2210  0.0495 -0.0273
29620W        W47144  14.949   5.117   4.229 -0.0751 -0.0219  0.3227
29621W        W47145   1.760   9.243  13.161 -0.0567 -0.0830 -0.0843
29622W        W47146   6.697   4.456  13.616  0.0208 -0.2137  0.1230
29623W        W47147   0.996  16.240  15.968 -0.1953 -0.0303  0.1874
29624W        W47148   3.710   5.470  11.200  0.3766 -0.1276  0.2010
29625W        W47149  14.669  10.436   4.712  0.0701  0.0871  0.0386
29626W        W47150  11.184   5.099   1.453  0.4530  0.0812 -0.1920
29627W        W47151   1.901  13.544  14.645  0.1783  0.1156 -0.1502
29628W        W47152  15.541   4.981   0.671 -0.0572  0.2212 -0.0199
29629W        W47153   9.072  15.613   1.977 -0.1736 -0.0411 -0.4375
29630W        W47154   9.579  16.897  11.946 -0.0756  0.2531 -0.2929
29631W        W47155  16.423  11.133  11.160  0.2516  0.2575  0.1249
29632W        W47156  15.178   0.961   2.341  0.0887  0.2936  0.0063
29633W        W47157   8.560  11.157  15.926 -0.2710  0.2889 -0.0741
29634W        W47158  15.976  16.324  12.596  0.0057  0.2516  0.0667
29635W        W47159  13.753   7.090   1.304 -0.1329 -0.0268 -0.2980
29636W        W47160   8.579   0.020  14.457  0.0035  0.2212 -0.0257
29637W        W47161   1.930   4.030   2.247  0.0657 -0.1571 -0.1898
29638W        W47162  12.324   1.981   1.702 -0.0961  0.1137  0.2349
29639W        W47163   0.392  10.387  14.574  0.0744  0.3134  0.2580
29640W        W47164   5.589   0.245  15.053  0.1187  0.1117 -0.0145
29641W        W47165  15.509   3.294  13.362 -0.1044  0.1580  0.0928
29642W        W47166   4.046  16.492  13.783  0.0555 -0.1599  0.1566
29643W        W47167   5.811   6.366   1.809 -0.0630  0.0797  0.4684
29644W        W47168  15.386   1.752  14.508 -0.1246  0.2515 -0.1292
29645W        W47169   6.661  15.387   4.259  0.2555 -0.2125 -0.0459
29646W        W47170   0.954  12.420  15.596  0.1868 -0.2110  0.2493
29647W        W47171  10.447  14.721  12.886  0.1392  0.0103  0.1736
29648W        W47172  12.723  17.555  16.006 -0.0906 -0.3641  0.1099
29649W        W47173   5.942   4.898   3.475 -0.1921 -0.1172  0.2104
29650W        W47174   1.982  15.298   2.028  0.0781 -0.0255 -0.0804
29651W        W47175   2.579  17.299   3.239  0.1491 -0.0820  0.1194
29652W        W47176   5.015  10.054   5.493  0.0516  0.1713 -0.3407
29653W        W47177   3.770   7.452   1.889 -0.0997 -0.1713  0.1583
29654W        W47178   9.608   8.270   2.001  0.2478 -0.0106  0.2630
29655W        W47179  17.104  12.576   2.162 -0.0832 -0.2056 -0.2313
29656W        W47180   9.062  10.939   4.832  0.0348 -0.1751 -0.0829
29657W        W47181   4.083   1.494   1.336  0.1680  0.0523 -0.0263
29658W        W47182  14.808  16.247   0.737 -0.2524 -0.1929  0.0406
29659W        W47183  12.901   1.430   4.609 -0.0300  0.0229 -0.1646
29660W        W47184   2.299   1.016   4.129 -0.0318  0.0181  0.0216
29661W        W47185  17.741  15.200  11.912 -0.2364  0.0650  0.1574
29662W        W47186  12.694  15.926  14.286  0.0283  0.0220 -0.3013
29663W        W47187   7.193  16.013   2.942  0.0010  0.2653 -0.1386
29664W        W47188  10.793  11.180   3.104 -0.0548 -0.0418 -0.0769
29665W        W47189  12.054   8.499  13.987 -0.2431  0.3106  0.0589
29666W        W47190  17.182  18.077  12.200  0.1661 -0.0358 -0.0104
29667W        W47191  11.215  14.027   0.482  0.4360  0.1055 -0.3667
29668W        W47192  13.993  16.296   3.715 -0.1827 -0.1086  0.3312
29669W        W47193  16.298   2.515   4.914 -0.0647 -0.1685 -0.0584
29670W        W47194  16.580  17.053   4.323  0.0995 -0.4250 -0.0035
29671W        W47195   4.955   8.548   0.694 -0.0940  0.4840 -0.1540
29672W        W47196  10.156   2.218   0.014  0.0510  0.0522 -0.0389
29673W        W47197  11.276   8.691  13.591  0.1261  0.0610 -0.0306
29674W        W47198  11.814   7.458  15.120 -0.1454  0.0424 -0.0211
29675W        W47199  13.561   8.326   4.397  0.0022 -0.1521  0.2897
29676W        W47200  16.187  15.708  12.569 -0.1980  0.1709 -0.0582
29677W        W47201   2.189  13.690  12.505  0.1834 -0.0077  0.0418
29678W        W47202   9.522   2.949   2.862 -0.0926  0.0794 -0.1928
29679W        W47203   9.881  10.090  14.709  0.1628  0.1340  0.2340
29680W        W47204  16.630  10.418  13.767 -0.0097  0.1806  0.0967
29681W        W47205   0.634   1.082  15.636  0.0033  0.1738  0.0801
29682W        W47206   0.981   0.750  13.444  0.0613 -0.3277  0.1376
29683W        W47207   0.414   3.537   3.175  0.0128 -0.2035 -0.1962
29684W        W47208  12.865  10.350  12.863 -0.0398  0.0462  0.4192
29685W        W47209   0.287   0.519   3.590 -0.0629  0.1431 -0.0323
29686W        W47210  17.984  12.916   3.274  0.0163  0.2199 -0.1731
29687W        W47211   8.622  17.840  15.864 -0.0241  0.0019 -0.4248
29688W        W47212   4.712   3.382  11.119  0.0869 -0.2698  0.2471
29689W        W47213   4.862  15.171   5.367 -0.0072  0.3395 -0.2074
29690W        W47214   8.353  17.460  11.959 -0.0654  0.0145  0.2442
29691W        W47215   5.455   9.899   5.237 -0.0503 -0.0790  0.2786
29692W        W47216   4.868   0.339   2.543 -0.2597  0.0577 -0.0228
29693W        W47217   6.997   0.145   4.234 -0.2234 -0.0554 -0.0181
29694W        W47218   7.661  12.601   1.955  0.0599 -0.0872  0.2189
29695W        W47219  17.604  15.274   5.195  0.1452  0.3213 -0.2358
29696W        W47220  11.646  15.445   0.185 -0.2718 -0.0296  0.0755
29697W        W47221  14.490  14.156   5.027  0.3749  0.1083  0.0585
29698W        W47222   8.800  15.350  15.077 -0.0924 -0.0409  0.1616
29699W        W47223   9.258   9.331   0.651 -0.1406 -0.1489 -0.1305
29700W        W47224   6.787   1.600  13.878  0.1635  0.4135  0.0006
29701W        W47225   8.222  17.844   0.137  0.0474  0.2106 -0.1320
29702W        W47226   1.668  16.916  14.402 -0.3209  0.0139 -0.1665
29703W        W47227   6.657   5.593  12.752  0.2637  0.1156 -0.1331
29704W        W47228  14.075   5.106   5.268 -0.1581  0.0480  0.2049
29705W        W47229   4.588   7.514  13.725  0.0744 -0.3033 -0.3793
29706W        W47230   0.501  12.066   4.321 -0.1610 -0.0687  0.1539
29707W        W47231   8.413  11.498  15.431  0.0283  0.2144 -0.2683
29708W        W47232  16.369  13.355   3.953 -0.2135  0.1520 -0.0281
29709W        W47233  16.724   4.773  12.202 -0.1478  0.0630 -0.2149
29710W        W47234   0.406   5.241  15.897  0.2731  0.2772 -0.2848
29711W        W47235   6.164  17.693  11.593 -0.0577 -0.2399 -0.3772
29712W        W47236  14.273  18.001  12.656 -0.1352  0.0112  0.1051
29713W        W47237   8.319   4.857  12.283 -0.1745  0.0152 -0.1119
29714W        W47238   0.277   3.320  11.603 -0.0172 -0.1582  0.0205
29715W        W47239  14.888  11.299   6.034 -0.0031 -0.3605  0.1898
29716W        W47240  14.980  16.142   3.520 -0.3311  0.5573  0.0813
29717W        W47241   2.276   4.855   0.028 -0.0625 -0.1879 -0.2347
29718W        W47242  12.980   5.449   3.175 -0.1656  0.1388 -0.2339
29719W        W47243   0.047  13.122   0.916  0.0377  0.2387  0.1388
29720W        W47244   3.056  15.545  15.958  0.3609  0.0116  0.0445
29721W        W47245  17.374  12.680  13.735  0.0938 -0.1537 -0.2531
29722W        W47246   4.027   0.585  15.576 -0.0255 -0.1253 -0.1843
29723W        W47247  15.466   8.649  13.273  0.0329  0.0235  0.1345
29724W        W47248  17.618  11.329  11.768  0.1318 -0.0844 -0.0270
29725W        W47249   5.640  10.488   4.478 -0.2776 -0.0426  0.0722
29726W        W47250   3.586   4.233  14.842  0.2293 -0.0737 -0.1962
29727W        W47251  11.061  14.508   0.207 -0.4179  0.0123  0.0222
29728W        W47252   4.955   2.633  12.874  0.1279  0.1308 -0.1016
29729W        W47253  13.402  11.006  11.218  0.0306 -0.1032 -0.4244
29730W        W47254   8.937   7.431   0.541 -0.4462  0.0212 -0.2095
29731W        W47255  13.008  13.039  15.491  0.0679 -0.2098  0.3399
29732W        W47256  17.960   8.716   3.811  0.4462  0.2317  0.2446
29733W        W47257   9.806  16.674   3.516 -0.1303 -0.2161  0.2662
29734W        W47258  13.668   4.953   3.956 -0.2578 -0.0584  0.3194
29735W        W47259   3.516  10.290   3.912 -0.2000 -0.1861 -0.2376
29736W        W47260   5.431   7.615   0.627 -0.3207  0.1016  0.0809
29737W        W47261   6.312   7.982  12.488  0.0788  0.2656 -0.1446
29738W        W47262   4.539  17.548   2.590  0.0698 -0.0893  0.0726
29739W        W47263   4.834   0.138   1.630 -0.1419 -0.0760  0.1804
29740W        W47264  11.541   5.826  12.003 -0.0748  0.0584  0.1133
29741W        W47265  16.891  16.129  12.426 -0.2691  0.0693 -0.2033
29742W        W47266   4.211  10.513   0.530 -0.1631  0.3067 -0.2475
29743W        W47267  13.750   6.371  11.327 -0.3027 -0.3381  0.1851
29744W        W47268  17.969  12.430  11.643  0.0109 -0.1157  0.0349
29745W        W47269   0.668   9.418   0.966  0.0939 -0.2494  0.0886
29746W        W47270   5.616   3.085   1.711  0.0363  0.1280 -0.2878
29747W        W47271   9.253   1.024   3.454 -0.0118  0.0763  0.0319
29748W        W47272   2.190   0.462   1.980  0.0804 -0.3324 -0.0130
29749W        W47273   2.512  10.444  14.622  0.2360  0.2366  0.4087
29750W        W47274   0.781  16.183  11.664  0.2118 -0.1870 -0.2041
29751W        W47275   9.500   2.956  14.941  0.2941 -0.1040  0.1698
29752W        W47276  13.368  15.893   3.424  0.1153  0.0575 -0.1552
29753W        W47277   6.840  15.653  16.056  0.0163 -0.2294  0.0235
29754W        W47278   4.717  13.021   4.130  0.0300 -0.2836 -0.1834
29755W        W47279  17.357   4.452   1.604  0.0605 -0.0977 -0.2526
29756W        W47280  16.471  10.316   3.446  0.0487  0.2649  0.0287
29757W        W47281   3.504  17.696   0.229 -0.1676 -0.3250  0.0855
29758W        W47282   0.788  10.833  15.400 -0.0180  0.2222  0.1555
29759W        W47283   6.145   8.393   0.923 -0.1595  0.1025 -0.1125
29760W        W47284  13.504   7.790  15.116  0.1996 -0.0648 -0.1892
29761W        W47285  15.933  14.747  13.553 -0.2134  0.1811  0.0619
29762W        W47286   1.253  16.809   3.258 -0.6306  0.0897  0.0410
29763W        W47287  10.806  11.313  16.026 -0.1048  0.0281  0.0768
29764W        W47288   7.702   4.021  12.531  0.0741  0.0980 -0.1548
29765W        W47289  14.145   4.106   2.218  0.0737 -0.1810  0.0855
29766W        W47290  16.485  17.702   0.251 -0.1461  0.1976 -0.0642
29767W        W47291  16.790   8.143   2.674 -0.2311 -0.0236 -0.1987
29768W        W47292   8.582  16.838  14.897 -0.0262 -0.2127  0.0347
29769W        W47293  16.469  13.278  13.114 -0.2314 -0.1926  0.1899
29770W        W47294  16.012  12.039  15.207 -0.3232 -0.2233  0.2755
29771W        W47295  17.557   8.237   3.211  0.0241  0.3396 -0.1361
29772W        W47296  16.658  13.733  12.119 -0.0805  0.1134  0.1341
29773W        W47297  10.099   0.911   3.564  0.1292 -0.0642  0.1575
29774W        W47298   8.151   8.197   2.501 -0.1705 -0.0194 -0.0596
29775W        W47299   8.392   8.160  13.997 -0.3728 -0.2251  0.0020
29776W        W47300  14.645  12.016   1.313 -0.3704 -0.2530  0.1783
29777W        W47301   6.766  11.785   3.957 -0.2123  0.0361  0.0191
29778W        W47302   8.171   4.102   4.173  0.1600 -0.1605 -0.1870
29779W        W47303  12.709   1.532  13.841 -0.0457 -0.0417 -0.2768
29780W        W47304   0.171   7.899  11.214 -0.0550 -0.0571  0.1138
29781W        W47305   5.629   7.614  12.423 -0.2027 -0.1463 -0.3301
29782W        W47306   7.626   2.917  11.191 -0.0983 -0.0274  0.3226
29783W        W47307   5.879   1.053   5.484  0.0173 -0.2608 -0.4991
29784W        W47308  16.997   6.490  15.498  0.0308  0.2395  0.0378
29785W        W47309   0.911  11.764  16.023  0.0252  0.0522  0.0576
29786W        W47310  14.369  12.991   0.092  0.1811 -0.0881  0.1177
29787W        W47311  10.796   6.445   0.927 -0.1469  0.0182  0.1354
29788W        W47312  16.376  18.003   4.012 -0.0593 -0.1978  0.0610
29789W        W47313   9.647  14.032  12.580  0.0702 -0.2237  0.0864
29790W        W47314   9.427   4.262   3.181  0.1894 -0.0957 -0.1662
29791W        W47315   0.832  12.366   4.092 -0.0713  0.1061  0.0858
29792W        W47316   9.351   3.310   4.498  0.0707  0.0934 -0.1491
29793W        W47317  12.537  16.316  11.608 -0.2178  0.0996  0.1375
29794W        W47318   6.109  10.847   1.292 -0.2516  0.0095 -0.2081
29795W        W47319  11.644   8.615   3.509 -0.2522  0.1172  0.2597
29796W        W47320  12.915   4.194   0.330  0.0957 -0.1856  0.1405
29797W        W47321   5.147   0.286   4.393 -0.0037  0.0551  0.0660
29798W        W47322   5.391   8.526  14.958  0.1595 -0.1004  0.2208
29799W        W47323   9.908   7.494   5.881 -0.0406  0.2737 -0.1715
29800W        W47324   4.303  14.798  15.218 -0.0033 -0.0375  0.0170
29801W        W47325  16.920   4.965   3.989  0.1044 -0.0472  0.1514
29802W        W47326   0.344   6.053   3.548 -0.0411  0.2581 -0.2584
29803W        W47327  10.795  17.698   2.203  0.0677  0.0320 -0.2260
29804W        W47328   0.770   3.887   0.206  0.0477  0.0135  0.3342
29805W        W47329  17.298   9.122  11.255  0.0280 -0.0571 -0.4148
29806W        W47330  12.206   9.867   1.838 -0.0726  0.3697 -0.0227
29807W        W47331  17.097  15.980  11.988  0.1654  0.0502 -0.1789
29808W        W47332  15.206   3.148  13.872 -0.0849 -0.2099 -0.0047
29809W        W47333  17.343  17.543   5.893 -0.0674 -0.1362  0.3526
29810W        W47334   4.111   8.474   1.937  0.0509  0.2075 -0.0575
29811W        W47335   6.067  12.951  15.993  0.4502 -0.0611  0.0455
29812W        W47336  17.235   0.735  14.419 -0.0477  0.3759 -0.1597
29813W        W47337  15.641   1.602  13.150 -0.3099  0.0377  0.0898
29814W        W47338  14.114  15.919   4.060 -0.1948 -0.3734  0.3120
29815W        W47339  11.220   7.768   3.297 -0.3076  0.0665  0.2121
29816W        W47340   4.881   3.900   3.269  0.1964 -0.0893 -0.1935
29817W        W47341   6.895   6.995  14.786 -0.0298 -0.3261 -0.0020
29818W        W47342  16.284  16.387   4.817  0.1072 -0.2507  0.0855
29819W        W47343   7.195  14.528   0.391  0.1849  0.1128  0.0686
29820W        W47344   0.916   6.731  14.483 -0.0161 -0.3523  0.0852
29821W        W47345   3.252  15.778  15.219 -0.2097 -0.1667 -0.1960
29822W        W47346  15.437  16.809   4.837  0.1562 -0.4207 -0.1473
29823W        W47347  16.668   6.433   0.867  0.2266 -0.0703 -0.2162
29824W        W47348   2.742  10.890  13.062  0.0619  0.1280  0.2691
29825W        W47349  10.252  13.214  14.211  0.4838  0.1337  0.1417
29826W        W47350   2.354   0.422  11.834  0.0090 -0.0640  0.1479
29827W        W47351   3.692   2.859   2.164  0.0648  0.0879 -0.2178
29828W        W47352   2.857   3.085  14.976  0.2875  0.0074  0.0748
29829W        W47353   6.442   3.851   0.014  0.1158 -0.1210 -0.2687
29830W        W47354  17.421   3.179  15.002  0.2992  0.2542  0.1383
29831W        W47355   1.587   2.936  12.752 -0.0195 -0.0522  0.1514
29832W        W47356  12.367   4.143  11.597  0.3525 -0.0311  0.0727
29833W        W47357  11.791   3.552  13.752  0.1410  0.1267 -0.1719
29834W        W47358  14.628   7.513   3.724  0.2451 -0.0759 -0.0245
29835W        W47359  12.593  10.777  15.649 -0.0256  0.2774 -0.0633
29836W        W47360  15.523   3.659   2.893  0.0780  0.1154  0.0284
29837W        W47361  10.044   3.124  13.869  0.2345  0.0960  0.0547
29838W        W47362   5.424   3.482   5.308  0.3522 -0.0700 -0.2363
29839W        W47363  13.326  17.286   0.477  0.0680 -0.0510 -0.3433
29840W        W47364  17.603  10.165  14.051  0.1437 -0.0145  0.3308
29841W        W47365  15.893  14.169  14.519 -0.0887  0.1812  0.1269
29842W        W47366  12.024  16.811   0.613 -0.1690 -0.0337  0.1696
29843W        W47367  10.782  12.636   1.528 -0.2865  0.1221 -0.0088
29844W        W47368   6.081  11.605  15.828 -0.3259  0.1479  0.1849
29845W        W47369   6.686   0.452  10.217 -0.2638  0.0245 -0.0758
29846W        W47370   9.646   5.083   0.108 -0.0571 -0.0135 -0.3271
29847W        W47371   2.232   6.400  11.639  0.2016  0.2495 -0.2594
29848W        W47372   7.295  16.998   3.457 -0.2206  0.1735 -0.0043
29849W        W47373   9.723   6.319  14.745 -0.0778 -0.1819  0.1588
29850W        W47374  15.853   2.685  15.971  0.1248 -0.0078 -0.3504
29851W        W47375  12.894   5.308   0.054  0.0339 -0.1223 -0.0156
29852W        W47376   7.147   8.825  11.901  0.1517 -0.3400  0.2229
29853W        W47377   9.486  13.349  13.126 -0.0789 -0.0454  0.0838
29854W        W47378   6.471  18.072  11.326  0.0132 -0.1313 -0.0849
29855W        W47379  11.662   5.536   4.056  0.2301  0.0835  0.1643
29856W        W47380   5.617   9.314  15.653  0.0777  0.2223  0.1011
29857W        W47381   5.330   5.509  11.356 -0.3217  0.2130  0.1971
29858W        W47382  16.924   6.247   4.975  0.0436  0.2579 -0.2740
29859W        W47383   9.292  14.564  14.633  0.0176  0.3405 -0.3486
29860W        W47384  10.192  17.966   4.753 -0.2826  0.0841  0.1054
29861W        W47385  11.660   3.649  11.354 -0.4480  0.1474 -0.0550
29862W        W47386  10.984  15.977   3.187  0.0763 -0.3325  0.3107
29863W        W47387  10.448  13.283  11.078 -0.1097  0.1012 -0.0969
29864W        W47388  15.546  14.397   6.151 -0.0638 -0.1257  0.0371
29865W        W47389   3.202   0.359   3.856  0.4386  0.3405  0.2074
29866W        W47390   2.689   3.561  14.323  0.0616 -0.3720 -0.2884
29867W        W47391  18.104  14.007   0.800  0.2059  0.0260  0.0745
29868W        W47392   7.015   8.829   0.659 -0.3485 -0.0376 -0.2145
29869W        W47393   5.101  14.978  15.474  0.2857 -0.2313  0.0747
29870W        W47394   8.114  16.481   3.118  0.0180 -0.3067  0.0079
29871W        W47395  12.401   0.537  10.999  0.1254 -0.2650 -0.0404
29872W        W47396  16.365   5.977   0.787 -0.3465 -0.1779  0.1388
29873W        W47397   2.248   1.595   1.871 -0.2479  0.0044 -0.1030
29874W        W47398   1.696   1.490  11.032  0.3124  0.0570  0.0473
29875W        W47399  16.882  16.019  14.843 -0.2904  0.0037  0.0449
29876W        W47400  16.063  15.003  12.542  0.3259  0.2233  0.1530
29877W        W47401   8.911   8.089  14.160  0.0650  0.0477 -0.0341
29878W        W47402  10.764   5.617   0.835 -0.0929 -0.0772 -0.2518
29879W        W47403   4.651   5.316   1.606  0.2752 -0.2724 -0.2437
29880W        W47404   3.976  14.332  13.349  0.0354 -0.1857 -0.1919
29881W        W47405  12.612   3.930   4.340  0.0615  0.0511  0.3047
29882W        W47406   6.596  14.615   4.608 -0.0809 -0.5412  0.0432
29883W        W47407  14.168   8.302  12.550 -0.2026 -0.0344 -0.0013
29884W        W47408   4.699  13.539   0.028 -0.1023 -0.0877  0.4232
29885W        W47409   8.981  10.540  15.607 -0.2931  0.0557 -0.1697
29886W        W47410  14.691   1.840   3.556  0.1723 -0.1319  0.0925
29887W        W47411  16.990   4.142   3.512 -0.4001  0.0962 -0.0044
29888W        W47412   4.906   0.880  15.376  0.2200  0.0140 -0.0435
29889W        W47413   5.716  16.277   3.853 -0.2298 -0.2913  0.0656
29890W        W47414   6.040   7.745   4.199 -0.0328  0.0237  0.0193
29891W        W47415  16.169  17.810   0.615  0.2033 -0.0125  0.1797
29892W        W47416  12.370  13.474  15.995  0.3764 -0.2564  0.0951
29893W        W47417  12.538   4.077   3.499  0.1894 -0.2737 -0.1683
29894W        W47418   5.512  11.985   4.817  0.3595  0.2764 -0.1531
29895W        W47419  10.155   6.955   4.181  0.2108 -0.0208  0.0655
29896W        W47420  12.274  17.817  12.781 -0.0431  0.0974 -0.0203
29897W        W47421  17.471  14.671   5.142  0.2026  0.2740 -0.1778
29898W        W47422  14.217   3.917   2.736  0.1966 -0.0015 -0.0316
29899W        W47423   0.078   9.672   3.546  0.1469  0.1008  0.0749
29900W        W47424   6.125   6.583   5.709 -0.2138  0.0265  0.1049
29901W        W47425  16.630   2.605  12.520 -0.1389 -0.2155 -0.0585
29902W        W47426  13.011  12.809   4.020  0.1124  0.0171 -0.0076
29903W        W47427   2.183  12.426   0.989 -0.3216 -0.0875 -0.0794
29904W        W47428  13.957  10.404  12.677 -0.1489 -0.1398 -0.2449
29905W        W47429   4.662   1.291  12.531 -0.0317  0.2907 -0.1419
29906W        W47430  15.335  14.860   6.064  0.0276 -0.2420  0.1773
29907W        W47431   4.003   4.303   3.048 -0.1398  0.0311 -0.1765
29908W        W47432   2.019  13.108  15.547  0.1640 -0.0821 -0.1343
29909W        W47433   8.304   4.390   0.024 -0.0842 -0.1598 -0.1373
29910W        W47434   7.765   9.904   3.681 -0.1778 -0.2356 -0.0013
29911W        W47435  12.624   6.168   1.853  0.2070  0.0029  0.4578
29912W        W47436   2.116   8.732  15.183 -0.0673  0.0509  0.0605
29913W        W47437   7.374  10.106  12.513  0.1632  0.1053  0.1225
29914W        W47438   9.424  17.618  15.492  0.0251 -0.2864  0.1964
29915W        W47439   1.627  16.527   2.088  0.3488  0.3031 -0.2305
29916W        W47440  10.071  15.752  14.554  0.1722 -0.6498  0.1868
29917W        W47441  17.210  13.020   3.734 -0.0219 -0.0100  0.0253
29918W        W47442  17.306  15.241   1.686  0.0656 -0.0950 -0.3018
29919W        W47443   0.373  11.293  10.096 -0.2004 -0.2119  0.0485
29920W        W47444  14.259   2.920  15.916  0.0811  0.2079  0.4516
29921W        W47445  14.632  15.677   4.684  0.0090  0.2723  0.1404
29922W        W47446  12.199   9.849  11.143  0.0724 -0.0272 -0.3015
29923W        W47447  18.109   3.893   2.522 -0.0198 -0.3764  0.1154
29924W        W47448   2.992   5.431  15.419  0.0002 -0.2198 -0.1029
29925W        W47449   4.515  11.143  12.764  0.0521  0.1834  0.0553
29926W        W47450   3.889   7.348   2.794 -0.0812 -0.3184  0.0244
29927W        W47451   1.692   3.973  12.687  0.3133  0.0912  0.0823
29928W        W47452   6.454  10.392   0.036 -0.0537 -0.0838  0.5037
29929W        W47453   6.093   0.977  14.590  0.0039  0.3751 -0.1274
29930W        W47454  10.684   3.406  15.811 -0.0466  0.1419 -0.1224
29931W        W47455   7.150   2.285   4.286 -0.0222  0.1290 -0.0479
29932W        W47456   5.364  17.784   4.715 -0.1996 -0.0156  0.0203
29933W        W47457  18.071   1.567   5.478  0.2207  0.0572 -0.1658
29934W        W47458   3.675   0.739   2.838  0.3391  0.0618  0.1186
29935W        W47459   3.059   0.321  14.534  0.0999 -0.3408  0.1959
29936W        W47460   9.601   1.493  14.261 -0.3212 -0.2567  0.1458
29937W        W47461  17.122  13.183   2.389  0.0898  0.0955 -0.1312
29938W        W47462   1.481   0.904  12.494  0.1807 -0.1755  0.1189
29939W        W47463  15.633  11.568  15.053 -0.2923 -0.1647 -0.0144
29940W        W47464  13.738   2.788   4.067  0.1661 -0.0388 -0.1038
29941W        W47465   0.734   3.371  11.356  0.0406  0.1832 -0.2610
29942W        W47466  14.092  15.372   4.364 -0.0601  0.0114 -0.1873
29943W        W47467   0.640  13.984  13.346  0.2611  0.0389 -0.0146
29944W        W47468  15.638   4.593   1.641  0.2331 -0.0607  0.0388
29945W        W47469  13.735  10.481  15.264 -0.0586 -0.2616 -0.1401
29946W        W47470  12.295   4.365   1.278 -0.2644 -0.3237  0.0971
29947W        W47471   5.750   3.911   0.992 -0.3576 -0.0766 -0.1350
29948W        W47472   2.852  16.631   1.640  0.1079 -0.0180 -0.1709
29949W        W47473   7.968   0.459  15.926  0.0834  0.0412  0.2533
29950W        W47474   6.665   6.093   4.636  0.1758 -0.1338  0.0850
29951W        W47475  11.402   2.219   2.412  0.0234  0.1120  0.0055
29952W        W47476   2.820   1.663  13.966 -0.1865  0.1024  0.1851
29953W        W47477   9.921   7.637   1.994 -0.3922 -0.1448  0.2159
29954W        W47478  13.134   3.258  10.571 -0.0259 -0.1713  0.0896
29955W        W47479   1.388   0.863  15.213 -0.1320 -0.1324  0.1520
29956W        W47480   1.014   5.691  12.467  0.1165 -0.0042  0.0246
29957W        W47481   5.808   7.250   4.422  0.3173  0.1082  0.1120
29958W        W47482   4.348  14.677  12.448  0.1218 -0.0526 -0.1673
29959W        W47483  15.740  17.579  12.383  0.0677 -0.4101  0.0110
29960W        W47484   3.634   5.745  12.262 -0.1815  0.2837  0.1383
29961W        W47485   6.290  11.769   5.801 -0.0396 -0.1078 -0.0882
29962W        W47486   1.793  11.574  12.162  0.0100  0.1498  0.0069
29963W        W47487  11.365   6.527  12.491  0.0066 -0.0994  0.0083
29964W        W47488   9.504  11.335   5.760 -0.2999  0.1750  0.0949
29965W        W47489   0.351   8.718  11.425 -0.1227 -0.0143  0.0021
29966W        W47490   4.391  16.843  15.144 -0.0389  0.1681 -0.1921
29967W        W47491   3.011   0.993  11.894  0.1568  0.0132 -0.0938
29968W        W47492   8.314   0.756   2.364 -0.2640  0.2159 -0.0497
29969W        W47493  15.109  11.401  14.833 -0.3733 -0.2141 -0.1300
29970W        W47494   2.832  13.541   4.157 -0.3213  0.0778 -0.0407
29971W        W47495   6.870   4.091   3.283  0.0971 -0.0407  0.0012
29972W        W47496   7.764  16.792  14.703  0.2274  0.0960 -0.1356
29973W        W47497  10.467   8.721  15.456  0.2273 -0.2418 -0.2642
29974W        W47498   4.763  17.011   1.461 -0.1446 -0.2697  0.3448
29975W        W47499  17.712   6.638  16.039 -0.0254  0.1781 -0.2149
29976W        W47500   2.989   8.625  14.139 -0.0009  0.1554 -0.3194
29977W        W47501  10.506   4.051   4.331 -0.0370 -0.0641 -0.0652
29978W        W47502  14.786   3.856   0.002 -0.0832  0.1678 -0.0362
29979W        W47503  14.545  12.033  14.041  0.0266  0.0028  0.0984
29980W        W47504  13.948   4.375   4.038 -0.4028 -0.0274 -0.0467
29981W        W47505  16.189   2.299   2.090  0.2042  0.2173 -0.0099
29982W        W47506  11.201   6.738   3.533  0.2524  0.1258  0.2023
29983W        W47507   2.519   8.999  12.224  0.0108 -0.0908  0.0802
29984W        W47508   9.325   5.046   2.643  0.0080 -0.2712  0.0920
29985W        W47509  14.646  14.218   0.664 -0.3881  0.1039  0.0314
29986W        W47510   2.966   8.968   4.691  0.2618  0.1346 -0.0138
29987W        W47511  16.616   0.077  14.189 -0.1076  0.0598  0.0337
29988W        W47512   8.809  11.740  11.500  0.2069 -0.3235  0.1565
29989W        W47513   9.866  17.927   0.624 -0.0780 -0.1634  0.0143
29990W        W47514   8.353   3.389   1.072  0.2074 -0.2219 -0.1172
29991W        W47515  12.431   5.034  11.442  0.1605  0.3197 -0.0976
29992W        W47516  13.168   4.490  15.176  0.0663  0.0308  0.1800
29993W        W47517   2.985   3.620  13.952  0.1174 -0.0811  0.1138
29994W        W47518   4.636  17.768   4.117  0.0848  0.2840  0.1516
29995W        W47519   0.466  11.536   4.240 -0.0561 -0.4866 -0.0042
29996W        W47520  10.075   6.868  12.863  0.2146  0.2941  0.1885
29997W        W47521  13.777   7.675  13.877 -0.0738  0.0542  0.1830
29998W        W47522   4.177  10.787  15.487  0.1975  0.5013  0.0856
29999W        W47523   8.706  13.128   4.336  0.0166  0.0285  0.0191
30000W        W47524   7.959  13.984  14.715  0.3557 -0.1435 -0.1139
30001W        W47525   0.006   1.065  10.633 -0.0138  0.1375  0.0133
30002W        W47526   6.522  17.657   3.482  0.0029  0.1255  0.1649
30003W        W47527  11.909  11.189  10.519  0.2297 -0.2150 -0.2273
30004W        W47528  13.453   0.258   4.234  0.2469 -0.3363  0.4121
30005W        W47529  12.907  15.260   4.674  0.0894  0.1794  0.0073
30006W        W47530  11.242  13.561   0.264 -0.1125  0.0208  0.1529
30007W        W47531   0.141   7.038  12.228  0.1003 -0.0908  0.0668
30008W        W47532   7.916  13.632  14.414 -0.0046  0.0781  0.3894
30009W        W47533   2.464  10.494  13.200 -0.2910 -0.1578  0.1370
30010W        W47534   2.356  13.923  14.522 -0.0480  0.0767  0.1732
30011W        W47535  11.281   3.739  10.260  0.0770 -0.1532 -0.3027
30012W        W47536   1.022   8.558  15.021 -0.1089  0.1368  0.1205
30013W        W47537   4.400  16.021  11.800 -0.0066  0.0063 -0.1911
30014W        W47538   2.131   7.656   1.216 -0.1296 -0.1756 -0.1926
30015W        W47539  12.228  17.925   3.132 -0.0591 -0.2977 -0.2940
30016W        W47540   9.019  14.038  14.340 -0.0250 -0.1331 -0.0204
30017W        W47541   9.987   8.106  12.391 -0.2840 -0.0909  0.0428
30018W        W47542  12.318   5.632  14.973 -0.1442  0.1763  0.2360
30019W        W47543  11.805   6.338   1.308 -0.0752 -0.1792 -0.1159
30020W        W47544   5.454   5.361  12.884  0.4396 -0.0526 -0.0682
30021W        W47545  13.549  11.207   4.677  0.1334  0.3365 -0.1405
30022W        W47546   9.718  13.831   1.327  0.3012  0.3449  0.5720
30023W        W47547   5.172   7.131  11.370 -0.0644 -0.1749  0.0611
30024W        W47548  14.757   0.445  15.949 -0.1276  0.0577  0.2920
30025W        W47549   7.140  10.502  11.441  0.3538 -0.0170  0.2199
30026W        W47550   0.830   0.514  13.019  0.2424 -0.0990 -0.1989
30027W        W47551   3.489   3.355  12.949  0.0387  0.2546  0.0766
30028W        W47552   9.164   7.246   1.677  0.3623 -0.1542 -0.2276
30029W        W47553   7.469   3.873  12.038 -0.0364 -0.1636 -0.2113
30030W        W47554  11.585  16.589  15.355 -0.2085 -0.1628  0.1789
30031W        W47555  17.499  17.202   0.937 -0.3643  0.1461 -0.3268
30032W        W47556  12.348   2.056   4.422  0.1926  0.0737 -0.0060
30033W        W47557  12.787   1.815   4.291 -0.0573  0.2512  0.1840
30034W        W47558   1.000   1.843  14.779  0.0504 -0.0144  0.1508
30035W        W47559  18.127   6.042   4.508 -0.1621  0.1233  0.0136
30036W        W47560   9.272   9.002   3.279 -0.0502 -0.2025  0.0646
30037W        W47561   8.888  15.265  15.613  0.0644  0.0881  0.1377
30038W        W47562  10.501   7.361   0.007  0.1990 -0.0246  0.2852
30039W        W47563   0.898   8.947  13.071  0.0313  0.0476 -0.3756
30040W        W47564   0.604  15.854   3.801  0.1201  0.1492  0.2354
30041W        W47565   0.490   7.033   4.661  0.0818 -0.0849 -0.0864
30042W        W47566   9.620   9.258  15.815  0.0592  0.2807  0.0102
30043W        W47567  18.041  12.260   0.912  0.1685  0.1332 -0.0705
30044W        W47568  11.545  16.481   1.977 -0.1479 -0.2102 -0.0250
30045W        W47569   1.596   7.257   3.683  0.1306 -0.0204 -0.4026
30046W        W47570  12.955   3.630   4.838  0.0241 -0.3385 -0.3923
30047W        W47571  16.827   8.737   1.087  0.0080 -0.0237 -0.3335
30048W        W47572  14.155   1.619  15.762 -0.1052 -0.1559  0.3342
30049W        W47573  12.554   9.448   1.102 -0.1315  0.0377 -0.0232
30050W        W47574  16.750  15.990  15.303 -0.1744 -0.0702  0.0963
30051W        W47575   6.520  12.059  15.816  0.0565 -0.1644 -0.4353
30052W        W47576   5.484   1.462   2.466 -0.0074  0.1067 -0.1067
30053W        W47577   6.444   0.928  13.096  0.0835  0.2271  0.0909
30054W        W47578   1.200  13.333  13.608  0.1077 -0.1198 -0.1357
30055W        W47579   1.239  14.750  13.453  0.1559 -0.0151 -0.2264
30056W        W47580   8.784   0.219   4.285 -0.0010 -0.4276  0.1797
30057W        W47581   6.928  11.500   1.766 -0.3116  0.0602  0.0994
30058W        W47582  16.373  12.607   4.249 -0.1136  0.0501 -0.3282
30059W        W47583   7.913  17.877   1.760  0.2252  0.0246  0.2421
30060W        W47584   9.512   3.900   2.850 -0.2260 -0.1669 -0.0239
30061W        W47585   4.034  18.030  15.874  0.2109 -0.5334 -0.0066
30062W        W47586  14.265   7.065   2.345 -0.1409 -0.1089  0.2664
30063W        W47587  14.987  10.670  11.613  0.1251  0.0841 -0.0524
30064W        W47588   2.502   2.484  12.994  0.0925  0.3032  0.0137
30065W        W47589  17.884  16.144  15.434  0.1160 -0.2970  0.0346
30066W        W47590   0.170   5.815   4.024 -0.0764 -0.0770 -0.0325
30067W        W47591  15.097   8.812  14.407  0.0256  0.3945 -0.3935
30068W        W47592   5.661  12.652   3.362 -0.1392 -0.3025 -0.3859
30069ION     NA47593   0.010  10.001   2.725  0.2226 -0.0457 -0.0427
30070ION     NA47594  17.512  10.852   2.267 -0.3783  0.0104 -0.0997
30071ION     NA47595  14.481  17.609   2.451 -0.2504  0.0739 -0.0325
30072ION     NA47596   9.794  14.072  11.971  0.1200 -0.0330  0.0780
30073ION     NA47597   3.730  10.080  12.798  0.0581  0.2943  0.0243
30074ION     NA47598  18.117   3.151  12.109 -0.0722 -0.0168  0.2227
30075ION     NA47599  15.583  16.903   6.217  0.0829 -0.0848 -0.0973
30076ION     NA47600  16.951  17.419   0.042 -0.0680 -0.3477  0.1959
30077ION     NA47601  14.916   9.916   0.881  0.0155  0.0185 -0.0128
30078ION     NA47602  10.594   2.134  14.783  0.3665  0.0409  0.1655
30079ION     NA47603  16.364  13.049  10.727 -0.3234  0.0020  0.0745
30080ION     NA47604   2.950   3.875   5.671  0.0995  0.0313 -0.1444
30081ION     NA47605  16.140  11.643   2.986 -0.0107  0.3100  0.0580
30082ION     NA47606  12.264   3.801   5.623  0.0562 -0.2681 -0.0964
30083ION     NA47607   5.018   8.366   1.455  0.2285 -0.1846  0.3441
30084ION     NA47608   4.561  10.875  15.816 -0.0955  0.0606 -0.1251
30085ION     NA47609   8.220  12.296  10.387  0.1389  0.3193 -0.1170
30086ION     NA47610  13.169  13.670  10.764 -0.1360  0.2231  0.0427
30087ION     NA47611   2.573   2.942   5.326  0.2628 -0.1381 -0.0295
30088ION     NA47612  13.053  16.563  10.607 -0.4347  0.1087 -0.0709
30089ION     NA47613  17.896   3.747   5.707  0.1843 -0.0912  0.3853
30090ION     NA47614  10.132   6.099   5.395 -0.1391 -0.0782  0.2939
30091ION     NA47615  16.231   1.713  12.629 -0.2075  0.1646 -0.0483
30092ION     NA47616   7.929  17.339   5.208  0.0664  0.1150  0.1098
30093ION     NA47617  14.018  11.237   5.618  0.1902 -0.1914 -0.1699
30094ION     NA47618   5.523  16.579   4.228  0.0165 -0.2232 -0.3616
30095ION     NA47619  18.101   5.963  10.211 -0.1204 -0.0878 -0.0424
30096ION     NA47620  11.923  17.826  10.790  0.2562  0.4420 -0.1155
30097ION     NA47621   9.312   9.215  12.624  0.1157 -0.2101  0.1258
30098ION     NA47622  15.292  14.070   5.892  0.0186  0.0898 -0.0315
30099ION     NA47623   5.352   5.700   5.191  0.0023  0.3803 -0.1856
30100ION     NA47624  13.822   4.289   5.528 -0.0240  0.1166  0.2075
30101ION     NA47625  14.939  10.681   3.803 -0.3350  0.2487 -0.2385
30102ION     NA47626   3.797   7.605  13.083  0.0351  0.1700  0.1015
30103ION     NA47627   5.239   9.371   1.160 -0.1254 -0.1421  0.0933
30104ION     NA47628   6.145   8.261  10.290  0.2178  0.1184  0.2553
30105ION     NA47629  14.181  16.177   6.329 -0.2080 -0.0602 -0.1028
30106ION     NA47630   4.998  14.111  13.455  0.0650  0.3851  0.0777
30107ION     NA47631   1.431   2.869   5.649  0.2766  0.1949  0.1894
30108ION     NA47632   0.364   1.546   2.984 -0.1676 -0.0331  0.0689
30109ION     NA47633  17.859  14.738   3.831 -0.2506 -0.1194 -0.0008
30110ION     NA47634   1.398  11.485  10.581 -0.3695  0.1483  0.0908
30111ION     NA47635  14.555   0.172  10.937 -0.0594 -0.0691 -0.1785
30112ION     NA47636  17.616   0.704   6.064 -0.2607 -0.0608  0.1252
30113ION     NA47637   5.107  11.777   2.190 -0.3334  0.2084 -0.1517
30114ION     NA47638  13.238   5.588   2.739 -0.2680  0.4074 -0.0056
30115ION     NA47639   3.683   0.539  10.449 -0.1165 -0.1337  0.0287
30116ION     NA47640  15.027   0.339   0.755  0.3357 -0.1871  0.0325
30117ION     NA47641  12.923  16.891   3.544  0.0851  0.0421 -0.2916
30118ION     NA47642  15.005  16.366   1.221  0.3469  0.3451 -0.2481
30119ION     NA47643  17.197  10.482  12.138  0.0749  0.1064 -0.2445
30120ION     NA47644   4.979   0.268   5.370  0.1201  0.0457  0.0683
30121ION     NA47645   3.590   1.187   2.649 -0.0925  0.0829 -0.3223
30122ION     NA47646   3.341   6.848  13.677  0.1196  0.1182  0.1752
30123ION     NA47647   2.795   3.718  15.228 -0.0184  0.3613  0.1318
30124ION     NA47648  12.867  17.661   2.758  0.1061 -0.1644 -0.0705
30125ION     NA47649   6.677   9.405  12.803  0.2774 -0.0098 -0.0299
30126ION     NA47650  17.256   3.909  13.315  0.2282 -0.1528 -0.2216
30127ION     NA47651   7.135  13.592   5.804 -0.0669  0.1637  0.0781
30128ION     NA47652  16.428  17.050  12.372  0.2013  0.1464  0.3265
30129ION     NA47653  11.140  14.411  15.246 -0.1312 -0.0597  0.0422
30130ION     NA47654  16.278  14.717   5.714  0.0024 -0.1118  0.1733
30131ION     NA47655  10.190   5.401   5.693  0.2855 -0.0477  0.4151
30132ION     NA47656  15.500   8.247  10.729  0.1625 -0.1829  0.2732
30133ION     NA47657  17.978   2.808   5.650  0.1628  0.1672  0.0436
30134ION     NA47658   9.126  16.445   0.873 -0.0612  0.1443 -0.1287
30135ION     NA47659  16.262   0.280  14.708  0.4351 -0.2350 -0.4375
30136ION     NA47660  15.157   5.377  11.269  0.1854  0.1551 -0.1100
30137ION     NA47661   6.402   6.533  10.864  0.1507  0.1537  0.0578
30138ION     NA47662  12.668   0.801  12.037  0.0474  0.2008  0.1829
30139ION     NA47663  16.129   2.707  15.584 -0.1523  0.1274 -0.0274
30140ION     NA47664  16.001  17.220  10.637 -0.1337 -0.5307 -0.1414
30141ION     NA47665  12.425   2.704  14.310 -0.0882  0.1025  0.0969
30142ION     NA47666   3.772   4.866  13.740  0.1242 -0.1652 -0.0795
30143ION     NA47667  17.090   1.680   3.765 -0.0767 -0.1276 -0.1010
30144ION     NA47668  16.349   7.866  10.380  0.2245  0.0534 -0.3227
30145ION     NA47669  15.486   8.404   0.260  0.1802 -0.0896 -0.0784
30146ION     NA47670  17.987  17.814  11.977  0.0541  0.0855 -0.0928
30147ION     NA47671  16.542   9.479   5.611 -0.1406 -0.1201  0.1248
30148ION     NA47672  17.556   9.218   0.743  0.0199 -0.2813 -0.4705
30149ION     NA47673   6.057  13.042   5.391 -0.2059 -0.3062 -0.0565
30150ION     NA47674   4.869   5.837  12.161  0.4119 -0.1114 -0.0997
30151ION     NA47675   3.984  11.370   2.146  0.0060 -0.0843  0.1319
30152ION     NA47676   2.485   1.119  13.477  0.0363 -0.0879 -0.0081
30153ION     NA47677  10.271   8.931  10.710  0.0319 -0.2116 -0.0550
30154ION     NA47678   3.048  10.101  11.685  0.1937  0.1104 -0.0026
30155ION     NA47679   1.618  12.125  10.969  0.1566  0.1038 -0.1578
30156ION     NA47680   7.190   2.422  13.876  0.2009  0.0796  0.2146
30157ION     NA47681   5.160   2.565   5.409  0.0430  0.1887  0.0993
30158ION     NA47682  16.063   2.503   5.404  0.1055  0.1017 -0.4245
30159ION     NA47683   2.284   7.733  12.785  0.0459  0.3121 -0.2101
30160ION     NA47684   9.023   4.532  12.289 -0.2342  0.2043 -0.2096
30161ION     NA47685   5.087  15.163   1.532 -0.1015 -0.1593  0.1638
30162ION     NA47686   8.548   3.346   1.545 -0.2349 -0.0788  0.1175
30163ION     NA47687   3.283   5.522   4.372 -0.3142  0.1233  0.1194
30164ION     NA47688   1.373   2.006   5.383 -0.2634  0.0255 -0.2789
30165ION     NA47689   7.005  11.976   1.976  0.0408  0.0779  0.0527
30166ION     NA47690  13.797   7.459  10.488  0.2340 -0.1452  0.0576
30167ION     NA47691  15.703  15.166   5.994  0.0895 -0.0068 -0.1308
30168ION     NA47692  10.788  17.847  11.465  0.2813 -0.0964 -0.0968
30169ION     NA47693   6.341  14.764  15.309 -0.0231  0.1889  0.1813
30170ION     NA47694   1.355   6.524  12.281 -0.1822 -0.0497 -0.0918
30171ION     NA47695  11.133   1.834  14.496 -0.0470 -0.1091  0.1516
30172ION     NA47696   3.253  12.581   2.137 -0.1935 -0.0512  0.0980
30173ION     NA47697  10.283   4.386   5.522 -0.0535  0.2519 -0.2240
30174ION     NA47698  16.931   3.473   1.799  0.0915  0.2192  0.0036
30175ION     NA47699   2.653   3.935   4.584 -0.2292  0.0033  0.3162
30176ION     NA47700  13.247  10.359   1.996 -0.1437 -0.1003 -0.0793
30177ION     NA47701  16.875   7.482   4.618 -0.0337 -0.0176  0.0352
30178ION     NA47702  11.119  11.832   2.061 -0.0623 -0.0800 -0.2493
30179ION     NA47703   8.442  14.534  12.150  0.1345 -0.0777 -0.1546
30180ION     NA47704   5.006  13.131  11.209  0.1412  0.2370  0.1780
30181ION     NA47705   8.036   7.971   5.671 -0.1388 -0.0420 -0.0837
30182ION     NA47706   2.986   0.972  10.722 -0.1252 -0.1075  0.2009
30183ION     NA47707   9.271   9.073   5.829 -0.1314  0.0603 -0.3308
30184ION     NA47708  12.189   2.428   5.721 -0.0142  0.3106 -0.1706
30185ION     NA47709   9.974   4.636   0.234 -0.1911  0.1155  0.0860
30186ION     NA47710   8.508   0.361  10.251 -0.2717  0.0343 -0.3154
30187ION     NA47711  10.437  11.242   1.692 -0.0832  0.0453  0.1891
30188ION     NA47712   0.049  10.309  10.410  0.2319  0.3163 -0.2846
30189ION     NA47713   7.305  12.204  10.480  0.2066  0.1064  0.0573
30190ION     NA47714   6.368   6.933  12.515 -0.1082  0.0407 -0.4081
30191ION     NA47715  17.206  15.642  13.234 -0.0360 -0.0529 -0.0427
30192ION     NA47716   3.672   7.241  10.230  0.0495 -0.1858  0.0427
30193ION     NA47717   4.427   8.828  10.254  0.0401  0.3633 -0.3355
30194ION     NA47718  13.202  11.145  10.789  0.0410  0.0829 -0.0372
30195ION     NA47719   4.673  16.027   2.048  0.2393 -0.0721  0.0938
30196ION     NA47720   3.911   6.084  10.132  0.0046  0.1346  0.1557
30197ION     NA47721  15.330   2.024  10.689 -0.2529  0.0499 -0.0498
30198ION     NA47722   9.060  11.662  10.469 -0.2286 -0.0585  0.0109
30199ION     NA47723  11.983  15.170   2.522 -0.3509 -0.0335  0.3618
30200ION     NA47724   9.706   1.716  10.589  0.0593 -0.1408  0.1456
30201ION     NA47725  11.714  17.594   5.755  0.0667  0.3018 -0.1655
30202ION     NA47726   6.665  18.057  10.512  0.1516  0.0528 -0.0992
30203ION     NA47727  12.752   2.314  15.519 -0.2620 -0.2143 -0.1631
30204ION     NA47728  17.966   9.354  10.283 -0.0489 -0.1592  0.4055
30205ION     NA47729  15.588   6.128  10.139  0.0719  0.1802 -0.1578
30206ION     NA47730   3.703   2.793   1.668  0.1934 -0.1695 -0.0503
30207ION     NA47731  15.059   6.841  10.521  0.0904 -0.1230 -0.0681
30208ION     NA47732  17.267  11.839  10.460  0.0607 -0.0151  0.0504
30209ION     NA47733   7.219  16.234  12.931  0.0784 -0.2946 -0.0497
30210ION     NA47734  10.383   3.421  12.319  0.0202  0.4283  0.1541
30211ION     NA47735   6.154   0.241  15.705 -0.0674 -0.1856 -0.2031
30212ION     NA47736  17.236   1.524  10.424  0.0291  0.3575  0.0004
30213ION     NA47737  16.573   7.185   5.638  0.2235 -0.1424 -0.3001
30214ION     NA47738  15.713   7.444  10.671 -0.0166 -0.0277 -0.0829
30215ION     NA47739   5.851  11.391  10.512  0.0518 -0.1566 -0.3896
30216ION     NA47740  17.188   5.473  14.645  0.2937 -0.1372  0.1735
30217ION     NA47741   4.879   4.672  10.316 -0.0704 -0.4687 -0.1001
30218ION     NA47742   5.026   4.342  14.483  0.0697 -0.0584  0.2426
30219ION     NA47743   1.320  15.141   4.189 -0.4916  0.1960 -0.1525
30220ION     NA47744   8.124   8.764   5.381 -0.1526 -0.0687 -0.2123
30221ION     NA47745  11.119   6.088   0.004  0.1772  0.0330 -0.0076
30222ION     NA47746  12.439   5.314  15.938 -0.1136 -0.1028 -0.1545
30223ION     NA47747   5.926  11.299  11.103  0.3773  0.0475 -0.1233
30224ION     NA47748   4.235  11.747  14.151 -0.2338 -0.1120 -0.0617
30225ION     NA47749   4.402   2.834   5.554  0.2793 -0.0040  0.1342
30226ION     NA47750   8.709  16.769   2.887  0.0801 -0.1341  0.0400
30227ION     NA47751   3.373  16.674   1.484 -0.1694  0.0434 -0.0367
30228ION     NA47752   7.115  16.227   5.506  0.2323 -0.2157  0.1062
30229ION     NA47753   1.381   9.426   4.342 -0.0069 -0.0092  0.0260
30230ION     NA47754   9.684  10.733  10.678 -0.2229  0.1412  0.1727
30231ION     NA47755  12.245   7.780  10.855 -0.0095  0.1232  0.4227
30232ION     NA47756   3.245  10.261   5.861 -0.0422 -0.0123 -0.2098
30233ION     NA47757  10.392  13.500   5.860 -0.1323 -0.2731  0.3375
30234ION     NA47758   5.902   0.070   5.357  0.0769  0.1806 -0.4374
30235ION     NA47759  13.289  10.569   0.435  0.0224  0.5550 -0.1615
30236ION     NA47760  10.773  16.831   5.932  0.1304 -0.0575  0.3530
30237ION     NA47761   4.621   0.894   5.377  0.0685  0.4079  0.0944
30238ION     NA47762  15.325   6.145  10.549 -0.0141  0.1108  0.2857
30239ION     NA47763  11.276   1.628   3.256 -0.3220  0.1541  0.3188
30240ION     NA47764  17.519  14.243   0.001 -0.1133 -0.0513  0.2193
30241ION     NA47765  13.366  13.769   5.989  0.0646 -0.0437 -0.1574
30242ION     NA47766   2.323   5.793  13.593 -0.1593 -0.0176 -0.0087
30243ION     NA47767   8.134   1.347   2.395  0.0411 -0.0476 -0.1743
30244ION     NA47768  14.586  15.195   4.492 -0.1489  0.3340  0.2416
30245ION     NA47769  16.763   8.107   5.452  0.0992  0.0134  0.3013
30246ION     NA47770  12.873   4.183   2.147 -0.1451 -0.1323 -0.0724
30247ION     NA47771   7.873   5.169  15.147  0.2595 -0.3449  0.0951
30248ION     NA47772  10.400   6.587   4.594  0.1275 -0.1822  0.1275
30249ION     NA47773   8.839   9.484   1.075 -0.1376  0.0113  0.1046
30250ION     NA47774   2.999   6.774  14.968 -0.0315 -0.1595 -0.2976
30251ION     NA47775  12.190   9.744  10.628 -0.1801 -0.2550  0.3965
30252ION     NA47776   5.975  12.727  14.701 -0.1497 -0.0106 -0.1410
30253ION     NA47777   1.791   3.985   3.351  0.2798  0.0045  0.1465
30254ION     NA47778  11.106   7.029  13.652  0.2554  0.0442 -0.4002
30255ION     NA47779  14.895  11.723  13.763  0.0706 -0.1512 -0.0230
30256ION     NA47780   6.055  10.141  10.675  0.1667  0.1781  0.1303
30257ION     NA47781  14.137   1.022  10.793 -0.3134 -0.0719 -0.0873
30258ION     NA47782  15.886  10.739  14.836 -0.0074 -0.0061  0.0096
30259ION     NA47783  18.037  11.547   4.188  0.2311  0.0248 -0.2390
30260ION     NA47784   6.634   7.672  15.512 -0.0718 -0.0489 -0.0127
30261ION     NA47785   7.049   4.302   2.730  0.1813  0.1290 -0.3112
30262ION     NA47786  16.536   1.432  15.245  0.0476  0.0014  0.2581
30263ION     NA47787  11.403  12.569  12.630  0.1563 -0.2270 -0.1716
30264ION     NA47788   1.298  17.367   6.120  0.3131  0.0014  0.3177
30265ION     NA47789   4.357  14.362  14.181  0.1471 -0.0678 -0.0866
30266ION     NA47790   7.996   3.505   5.252 -0.1855  0.3258  0.2386
30267ION     NA47791   6.209  14.748   5.613 -0.3263  0.2516  0.0565
30268ION     NA47792   5.791   6.145  10.186 -0.0155 -0.2338 -0.2421
30269ION     NA47793  15.224  16.195  10.865 -0.1291  0.0391 -0.1164
30270ION     NA47794  13.396   6.556   2.341  0.0380 -0.2020 -0.1280
30271ION     NA47795  13.892  10.824   1.044 -0.0025 -0.0015  0.0155
30272ION     NA47796  11.580   8.902  14.836  0.0583 -0.1242 -0.1357
30273ION     NA47797  13.064   8.022  10.578  0.1569  0.3036 -0.1687
30274ION     NA47798   2.946  16.355  15.790 -0.0167 -0.3113 -0.1369
30275ION     NA47799   2.929   8.493  13.678 -0.0151 -0.1336 -0.2097
30276ION     NA47800  14.158   2.950  10.714  0.1115 -0.0080  0.1305
30277ION     NA47801   5.628  11.580  12.250  0.0269 -0.2035  0.2797
30278ION     NA47802  13.174  12.740   5.683  0.0180 -0.0658 -0.1388
30279ION     NA47803   5.867  13.784   2.118 -0.1336  0.0433  0.2114
30280ION     NA47804  13.004   5.747  10.184 -0.1862  0.2990  0.0064
30281ION     NA47805   7.418  13.183   2.714  0.0076  0.1915  0.0601
30282ION     NA47806   3.509   9.830   1.584 -0.2214  0.1394 -0.2098
30283ION     NA47807   6.985  10.480  10.254  0.0666 -0.1212  0.1754
30284ION     NA47808   4.616   3.857   5.268 -0.0522  0.0908  0.1841
30285ION     NA47809  14.774  10.185  11.886 -0.0336 -0.0279 -0.0994
30286ION     NA47810   3.650   2.192   5.332  0.0029  0.0164 -0.0018
30287ION     NA47811   5.423  15.977   5.717  0.2793  0.1345 -0.4557
30288ION     NA47812   7.366  15.794  10.233 -0.5086 -0.0008  0.0295
30289ION     NA47813  14.909   7.384  14.215  0.3774 -0.1165  0.0125
30290ION     NA47814   5.746   4.564  10.358 -0.0652 -0.4117 -0.0036
30291ION     NA47815   4.167   7.480   5.756 -0.1557  0.2444 -0.1728
30292ION     NA47816   2.257  13.913  15.414 -0.1048 -0.0025  0.1455
30293ION     NA47817   6.568  13.067  10.315  0.1025 -0.1665  0.0629
30294ION     NA47818   6.714   2.771  10.234 -0.1198  0.2812 -0.4216
30295ION     NA47819   4.598  15.119   2.407 -0.1924  0.1380 -0.0939
30296ION     NA47820  16.047   4.936   1.793 -0.2293 -0.0915  0.0418
30297ION     NA47821   5.925  13.795  10.524 -0.4237 -0.0990  0.2081
30298ION     NA47822   9.471   4.363   5.299 -0.1012 -0.0738  0.1951
30299ION     NA47823   2.631   1.115  15.142  0.2338 -0.1251  0.0160
30300ION     NA47824   1.711  15.075   5.982  0.0630  0.0408 -0.1212
30301ION     NA47825   2.204   0.406   3.345 -0.3159  0.1188  0.1178
30302ION     NA47826   9.391   5.809  10.320  0.2760  0.1069 -0.0258
30303ION     NA47827  13.028   0.788   5.517 -0.2190  0.3775  0.1021
30304ION     NA47828   8.529   1.596  12.486 -0.2039 -0.2784 -0.1958
30305ION     NA47829   2.654  16.458   2.059 -0.0697  0.0831 -0.5628
30306ION     NA47830  10.406  17.008   5.484  0.0453 -0.0965 -0.2624
30307ION     NA47831  17.271   0.467  10.502  0.0465  0.0483  0.0858
30308ION     NA47832   1.256   9.216  13.377  0.1238  0.0677  0.0258
30309ION     NA47833   0.775   0.655  11.756 -0.1269  0.0950  0.0640
30310ION     NA47834   8.371   2.259   1.503  0.0577  0.3191 -0.4584
30311ION     NA47835  15.652   1.835   1.537  0.0196 -0.1151  0.3832
30312ION     NA47836   4.611   4.920  15.946  0.1741 -0.0400  0.1045
30313ION     NA47837   8.280  17.369  13.792  0.1394  0.0405  0.2652
30314ION     NA47838  12.566  11.552   3.729  0.0414  0.0109 -0.0899
30315ION     NA47839   8.945  14.723   1.248  0.1381  0.0284 -0.1370
30316ION     NA47840   6.257   4.290  10.153 -0.0444  0.0445 -0.2081
30317ION     NA47841  10.760  17.187  13.276  0.3096 -0.0290 -0.0384
30318ION     NA47842   9.486  14.066  10.386 -0.0699  0.2087  0.0489
30319ION     NA47843  12.183  16.699  13.960 -0.0916  0.0112 -0.1518
30320ION     NA47844   4.897  16.571   2.642  0.2367 -0.1056 -0.1309
30321ION     NA47845   0.003  13.255   6.044  0.0668  0.1084  0.2919
30322ION     NA47846   2.011  10.717   6.055  0.2173  0.1853  0.2518
30323ION     NA47847   1.175   9.013  10.421 -0.0391 -0.0968  0.0259
30324ION     NA47848   6.686  16.578  15.087 -0.0893 -0.0964 -0.0498
30325ION     NA47849   4.219  12.178  10.352 -0.0675  0.1276  0.0278
30326ION     NA47850  10.502   1.552   1.325  0.2579  0.1718  0.2349
30327ION     NA47851   6.054   9.816  12.081 -0.1573  0.1885 -0.1338
30328ION     NA47852  11.108  11.514  15.213 -0.4645 -0.0786  0.1642
30329ION     NA47853  14.273   4.260   3.164  0.1063 -0.2931  0.0882
30330ION     NA47854   1.714   6.824   4.377 -0.0870 -0.2448 -0.0907
30331ION     NA47855  12.485   4.687   1.686 -0.0961  0.1195 -0.1379
30332ION     NA47856   9.046  14.517   5.399  0.4343 -0.0370  0.0646
30333ION     NA47857  15.905  11.909  10.536  0.0724  0.0770  0.0622
30334ION     NA47858   1.485   7.845  14.802  0.1512  0.2856 -0.1282
30335ION     NA47859  10.554   8.015  10.956 -0.1619  0.0266 -0.0213
30336ION     NA47860  15.832   8.211   2.894  0.0608 -0.0354  0.0779
30337ION     NA47861   6.293  17.116  11.352  0.0501 -0.1792 -0.0053
30338ION     NA47862  16.234   5.839   1.632 -0.1037  0.1609  0.0128
30339ION     NA47863   1.038  10.617  10.218  0.0058 -0.0282  0.0075
30340ION     NA47864   6.956   8.639  12.301  0.1843 -0.0101 -0.1107
30341ION     NA47865  10.579  12.452   1.058 -0.1178 -0.1848 -0.0857
30342ION     NA47866   1.120  15.233  14.181 -0.0313  0.2176 -0.1837
30343ION     NA47867  14.447   5.584  10.399  0.1826 -0.1915  0.3687
30344ION     NA47868   4.294   5.161   5.257  0.1706  0.0974 -0.0012
30345ION     NA47869  15.060   9.376   5.400  0.0245 -0.0245 -0.1405
30346ION     NA47870   4.051  13.559  10.445  0.0691  0.0092  0.0498
30347ION     NA47871  10.473  11.253  10.623  0.2245  0.2585  0.0333
30348ION     NA47872  14.155   3.379   5.545  0.1382  0.0252  0.0981
30349ION     NA47873   9.501  10.064   5.983 -0.3922 -0.0598 -0.1729
30350ION     NA47874   7.441   2.878   5.199 -0.1844  0.2282 -0.1195
30351ION     NA47875  15.956   6.175   5.189 -0.0137 -0.3552 -0.1015
30352ION     NA47876  13.730  14.584  10.754  0.0741 -0.0984 -0.0356
30353ION     NA47877  13.331   0.018   0.077  0.0713 -0.0872  0.3632
30354ION     NA47878  12.355   2.647   3.393 -0.1435  0.0236  0.0207
30355ION     NA47879  11.017   7.724  10.839  0.2473 -0.0561  0.0716
30356ION     NA47880  10.301   7.807   3.218 -0.1445 -0.0019  0.0533
30357ION     NA47881   0.504  13.166   4.110 -0.1177 -0.3976  0.1235
30358ION     NA47882  12.764  12.359  13.387 -0.1048  0.2336 -0.0879
30359ION     NA47883   0.705   5.569  10.632 -0.1353 -0.1196 -0.0596
30360ION     NA47884   5.105  11.356  14.936  0.0699  0.1604 -0.1513
30361ION     NA47885   2.558   2.014  12.775 -0.0498  0.2839 -0.1244
30362ION     NA47886   7.574  17.723  10.674  0.0661 -0.1926 -0.1125
30363ION     NA47887   1.104  15.893  10.517 -0.2020  0.2902  0.0298
30364ION     NA47888   6.214   0.692  10.310  0.1345  0.1127  0.0091
30365ION     NA47889   0.892  17.160   3.291  0.1275  0.1178  0.1185
30366ION     NA47890  16.890  12.172   2.357 -0.2031 -0.3861 -0.1325
30367ION     NA47891  15.993   4.806   4.460 -0.1292  0.0090  0.0890
30368ION     NA47892   2.067  16.930  12.071  0.1533  0.0166 -0.1319
30369ION     NA47893   9.249   3.363   5.322  0.3216  0.0541  0.0184
30370ION     NA47894  17.372   8.834  10.720 -0.3019 -0.1304 -0.2278
30371ION     NA47895   0.816  16.066   0.320  0.0039 -0.1769  0.0472
30372ION     NA47896  13.550  10.282  10.825  0.0888  0.5041 -0.0618
30373ION     NA47897   5.776  12.572  10.632 -0.0207 -0.1757  0.3584
30374ION     NA47898  17.364  10.464  14.319 -0.5071 -0.1022  0.2338
30375ION     NA47899   3.949  13.349   5.141 -0.2348 -0.0967  0.0000
30376ION     NA47900   5.688   6.982  13.366 -0.0882  0.3528 -0.1208
30377ION     NA47901   9.490   5.073   2.012 -0.0728  0.2160 -0.0140
30378ION     NA47902   9.871   8.703   5.138 -0.1076  0.1621 -0.1386
30379ION     NA47903  17.936   3.752   3.354  0.0507 -0.3367  0.1214
30380ION     NA47904  11.206   4.910   5.620  0.1407 -0.2997  0.1363
30381ION     NA47905   0.135   6.918   4.261  0.0849 -0.3905  0.0908
30382ION     NA47906   3.603  11.976   5.312 -0.1434 -0.1580 -0.2018
30383ION     NA47907  12.827  14.435  10.671 -0.0299 -0.0325 -0.0667
30384ION     NA47908   7.064   4.505   9.908 -0.0741  0.0258 -0.2554
30385ION     NA47909  16.813   2.322   5.690 -0.2294  0.1161  0.1521
30386ION     NA47910  15.358  15.632   3.106  0.0837 -0.0717  0.0916
30387ION     NA47911   3.024  15.176   5.681  0.0424 -0.1331 -0.1354
30388ION     NA47912   6.442  16.175  10.184  0.2003 -0.1429  0.1559
30389ION     NA47913  11.659   9.971   2.194 -0.1618 -0.1039 -0.0898
30390ION     NA47914  10.689   1.362  15.892 -0.1289  0.0928 -0.1020
30391ION     NA47915   4.408   0.121   0.147 -0.2188  0.2360  0.0551
30392ION     NA47916  18.050  11.082   0.532  0.3296  0.5293  0.1312
30393ION     NA47917   4.887   3.047  14.639 -0.2870 -0.4780 -0.0970
30394ION     NA47918   9.673  17.606  10.811  0.1287  0.2852  0.0975
30395ION     NA47919   2.297  11.883   2.194 -0.1327  0.1702  0.2707
30396ION     NA47920   2.130   8.127  15.465  0.1522  0.2302 -0.0728
30397ION     NA47921  14.449  12.343   4.250 -0.1155  0.2359 -0.1367
30398ION     NA47922  17.692  15.877   5.829  0.1410  0.1895  0.0090
30399ION     NA47923  12.688   8.922  10.754 -0.0819 -0.3278  0.0878
30400ION     NA47924   5.239   0.641  11.687 -0.1905 -0.3702 -0.1517
30401ION     NA47925  18.052   9.814   5.887  0.0935 -0.1164  0.0669
30402ION     NA47926  17.167   6.546   5.305  0.1095 -0.0883 -0.1010
30403ION     NA47927  15.779   2.671  10.664 -0.0098  0.0259 -0.3036
30404ION     NA47928   5.492  11.830   5.722 -0.2236  0.0049 -0.1092
30405ION     NA47929  15.846  11.059   2.267 -0.0581  0.0559  0.2503
30406ION     NA47930   4.553   6.208   5.548  0.2088  0.1945  0.1968
30407ION     NA47931  16.780  11.634   0.511  0.2075  0.2248 -0.1256
30408ION     NA47932   5.879  17.754  13.214 -0.2153  0.3338  0.2377
30409ION     NA47933  15.338   3.654   0.019  0.0655 -0.0159  0.1942
30410ION     NA47934   5.035  17.057  12.949  0.0944  0.1763  0.1162
30411ION     NA47935   3.971  15.970  11.272  0.5621  0.1864 -0.2710
30412ION     NA47936   0.421   8.488  10.419 -0.1707 -0.1416  0.1932
30413ION     NA47937   2.478  16.790  14.147 -0.0155 -0.1785 -0.1091
30414ION     NA47938   2.226  14.813  10.697  0.0042 -0.0992 -0.1337
30415ION     NA47939   5.428   3.359  15.180 -0.1187 -0.1225  0.0179
30416ION     NA47940  13.895   2.457   5.604  0.2553 -0.1414 -0.0722
30417ION     NA47941  13.711   5.991   5.731 -0.2493  0.0286 -0.1169
30418ION     NA47942  11.422  17.007  15.984 -0.2054  0.2367  0.0386
30419ION     NA47943   7.150   3.607  12.328  0.1208  0.1660 -0.0339
30420ION     NA47944  14.582  16.177   4.864  0.3791  0.3126 -0.0991
30421ION     NA47945   5.316   1.948   2.485  0.0390 -0.2917 -0.0864
30422ION     NA47946   3.952   3.327  12.877 -0.2783 -0.0655  0.2348
30423ION     NA47947   9.913  15.144   2.254  0.0240  0.0058  0.0598
30424ION     NA47948  16.286  17.554   4.130 -0.0911 -0.0477 -0.3738
30425ION     NA47949  17.046  10.944   5.801  0.1460 -0.3740 -0.2251
30426ION     NA47950   7.870   2.025   2.920 -0.0473 -0.1151  0.2640
30427ION     NA47951  11.284  10.126  10.592 -0.3225  0.1343  0.3741
30428ION     NA47952  15.199   2.668   5.469  0.1052  0.2910 -0.1180
30429ION     NA47953   3.781   9.548   4.585 -0.0791 -0.3083  0.0304
30430ION     NA47954   7.400  17.316   5.472 -0.0782 -0.2559 -0.1944
30431ION     NA47955  16.776  16.130   1.643 -0.0010 -0.1076  0.1366
30432ION     NA47956  13.012  10.764  14.067  0.1143 -0.2265 -0.2589
30433ION     NA47957   4.497  10.673  13.598  0.1465 -0.1422 -0.1493
30434ION     NA47958  13.767  15.979  10.604  0.1005  0.0740 -0.2643
30435ION     NA47959   8.956   2.296  10.889  0.0737  0.0667 -0.0275
30436ION     NA47960   7.889   7.436   4.528 -0.4731 -0.2439  0.0979
30437ION     NA47961   6.929   7.526  10.374  0.1124  0.1535 -0.0155
30438ION     NA47962   3.639  13.846  10.463  0.0401  0.0052  0.3660
30439ION     NA47963   5.008  16.464  15.997 -0.0517 -0.0623 -0.3950
30440ION     NA47964   1.097  11.179  13.710 -0.1129  0.1874  0.1098
30441ION     NA47965   9.261  10.836   5.802 -0.3498 -0.0460  0.0266
30442ION     NA47966   9.940   6.943   5.888 -0.1709 -0.0767  0.1191
30443ION     NA47967   8.787   6.129  12.868  0.0878 -0.2968 -0.3009
30444ION     NA47968   6.635  16.530  14.182 -0.2787  0.4526  0.1303
30445ION     NA47969   2.664   9.505   5.744  0.1738  0.1313  0.0929
30446ION     NA47970   8.076   4.500   3.171 -0.2609  0.3478  0.2411
30447ION     NA47971   6.038   1.125   3.734 -0.0312 -0.3364 -0.2597
30448ION     NA47972  15.006   7.388   5.534  0.3360 -0.2636 -0.0290
30449ION     NA47973  17.605   7.213  10.434 -0.0104 -0.2004  0.0820
30450ION     NA47974   2.335   3.617  10.536 -0.2434  0.2309 -0.0350
30451ION     NA47975  14.956  10.683  11.123 -0.1977  0.0450 -0.0839
30452ION     NA47976   5.487  15.449  11.690  0.1505 -0.0188 -0.1482
30453ION     NA47977   4.155  15.572   1.300 -0.2882 -0.1354  0.1650
30454ION     NA47978   3.267   4.901   5.575  0.3666  0.0994  0.1058
30455ION     NA47979  13.508  17.993  10.859  0.1426  0.0195 -0.0790
30456ION     NA47980   2.226   3.398   5.689 -0.1670  0.4195  0.1476
30457ION     NA47981   5.379   7.740  10.384  0.0759 -0.2816  0.0158
30458ION     NA47982  15.774   4.420  10.428 -0.0707 -0.2579  0.0005
30459ION     NA47983  15.008  13.513  10.662  0.1427 -0.0965  0.1664
30460ION     NA47984   9.644  16.757  15.035 -0.0810 -0.0686 -0.0477
30461ION     NA47985  14.717   2.197   5.646 -0.1250  0.1325 -0.0503
30462ION     NA47986   9.390   7.436   5.656 -0.3045 -0.0844  0.0424
30463ION     NA47987  12.911   2.461  10.418 -0.0619  0.1466 -0.0645
30464ION     NA47988  10.031  14.818   4.019  0.2954  0.1172  0.0941
30465ION     NA47989  11.984  14.090  10.841  0.2063 -0.2120  0.2002
30466ION     NA47990  12.194   5.102   5.375  0.0387  0.1199 -0.0995
30467ION     NA47991  10.695  16.251   1.809  0.1822  0.0908  0.1133
30468ION     NA47992   7.931   3.986   9.843 -0.0501  0.2991 -0.0037
30469ION     NA47993  10.786  17.778   5.792 -0.0571 -0.0937 -0.0453
30470ION     NA47994  16.078  13.753  10.688 -0.1512 -0.2944  0.0333
30471ION     NA47995   4.665   5.507   2.092  0.1654  0.2640 -0.1037
30472ION     NA47996  16.988  13.252   4.689  0.0787  0.0645 -0.0484
30473ION     NA47997   5.499   2.672   9.764  0.1258  0.4460  0.1617
30474ION     NA47998   7.844   6.675   5.086  0.2162 -0.0776  0.0698
30475ION     NA47999  14.048  10.032   0.736 -0.3936 -0.1907  0.0102
30476ION     NA48000   7.949   6.506  15.990  0.0876  0.0739  0.1598
30477ION     NA48001  16.881  10.310  10.309  0.1441 -0.0338  0.3335
30478ION     NA48002  14.962   8.456  13.433 -0.1820 -0.0418  0.1549
30479ION     NA48003   0.221  12.494  10.631  0.1769  0.2842  0.3973
30480ION     NA48004  13.096  12.621  11.025  0.0034  0.1083  0.4387
30481ION     NA48005  17.868  11.115  10.879  0.1066  0.3514  0.1504
30482ION     NA48006   6.412   4.228   3.577 -0.0731  0.0099  0.1471
30483ION     NA48007   2.142  13.702   5.575 -0.0443 -0.0293 -0.0085
30484ION     NA48008  11.903  15.314   2.005 -0.1449 -0.1033 -0.1115
30485ION     NA48009   5.568   5.438   0.138 -0.0873 -0.0025 -0.0876
30486ION     NA48010  15.029   7.522  11.167  0.1264  0.1019 -0.0944
30487ION     NA48011   8.931  14.832  10.364 -0.1180  0.0834  0.1141
30488ION     NA48012  17.760   7.471   0.251 -0.2574 -0.3456 -0.2004
30489ION     NA48013  15.433  17.158  12.670 -0.2314 -0.2127 -0.3059
30490ION     NA48014   3.837   3.747   5.251  0.0299 -0.3553  0.1445
30491ION     NA48015  17.791  15.836   4.540 -0.0035 -0.1182  0.1331
30492ION     NA48016   0.036  15.930  15.793  0.0908  0.0645  0.3709
30493ION     NA48017   4.873  16.941  10.382  0.1358  0.1544  0.2300
30494ION     NA48018   0.611  15.067  10.750 -0.1162 -0.0552 -0.1662
30495ION     NA48019   4.153   3.159  10.277 -0.1328  0.0471 -0.1489
30496ION     NA48020   1.285   1.632  15.708 -0.1113 -0.0087  0.1524
30497ION     NA48021   8.159   9.589   3.710  0.0540 -0.0435 -0.0416
30498ION     NA48022   7.848  13.281  12.076 -0.0122 -0.0061  0.2013
30499ION     NA48023   7.935   7.195   5.059  0.1145  0.1401 -0.1353
30500ION     NA48024   8.801   3.830  10.044 -0.4569 -0.0211  0.2989
30501ION     NA48025  10.957   1.939  11.087 -0.2565 -0.1658  0.0468
30502ION     NA48026   0.211   7.534  12.465 -0.2525  0.0578  0.0120
30503ION     NA48027   2.870  14.774   0.117 -0.2165  0.1310  0.0043
30504ION     NA48028  18.085   7.688  10.820  0.1988  0.0192  0.2468
30505ION     NA48029  12.120   3.425  15.089 -0.0260 -0.2368 -0.0670
30506ION     NA48030   2.990  16.223  10.464  0.1805 -0.0877 -0.2594
30507ION     NA48031   2.806   6.763   5.366 -0.1961  0.2415  0.1081
30508ION     NA48032  16.792  13.260   1.574  0.2263 -0.1303  0.0855
30509ION     NA48033   7.552   1.382   5.283  0.2276 -0.1642 -0.0130
30510ION     NA48034   6.303  10.701   2.872  0.4496 -0.0077  0.2458
30511ION     NA48035   6.472  16.841   5.886 -0.2207 -0.0300 -0.3631
30512ION     NA48036   4.743  15.373  10.904  0.1583  0.1093  0.0541
30513ION     NA48037   0.508   5.781   5.843 -0.0719  0.0040  0.1207
30514ION     NA48038  16.888  16.792  13.635 -0.2949 -0.0308 -0.0086
30515ION     NA48039   3.433   8.017  14.520 -0.3803  0.1587 -0.0451
30516ION     NA48040   1.578  17.061   1.323 -0.3606  0.2002 -0.1343
30517ION     NA48041   2.874   8.537  10.604 -0.1747 -0.2438  0.0641
30518ION     NA48042   0.768  11.028   4.048 -0.1054  0.0805  0.1080
30519ION     NA48043  10.232   4.347   2.538 -0.2524 -0.1317 -0.2549
30520ION     NA48044   5.954   6.454  11.731 -0.1431  0.1332 -0.2988
30521ION     NA48045   8.627  15.430   1.738 -0.2128 -0.1844  0.0708
30522ION     NA48046   9.854  17.489   2.978 -0.3209 -0.0097  0.1901
30523ION     NA48047  16.428  13.179  13.576 -0.0065  0.0583  0.0782
30524ION     NA48048  15.955   6.213  15.305  0.0556  0.1810  0.2824
30525ION     NA48049   0.834  13.695   5.004  0.0417 -0.1297  0.1408
30526ION     NA48050   1.333   0.932  10.351 -0.0395 -0.0302  0.2394
30527ION     NA48051  13.381   4.045  12.881 -0.0360 -0.0483  0.0618
30528ION     NA48052  15.292   3.732  11.512  0.0434 -0.1088  0.1963
30529ION     NA48053   8.940   6.296  12.116  0.1408 -0.3908  0.1122
30530ION     NA48054  11.171  10.738   2.348  0.4578  0.1396  0.1788
30531ION     NA48055   0.563   3.952   2.913 -0.0910 -0.0568 -0.1372
30532ION     NA48056  12.340  12.054   2.804 -0.2848 -0.2760 -0.4240
30533ION     NA48057   3.834  15.664  16.013  0.2252  0.1967 -0.2218
30534ION     NA48058   1.838  12.911   1.049 -0.1984 -0.1042 -0.0343
30535ION     NA48059  10.860   1.209   5.468  0.0393  0.0802 -0.0471
30536ION     NA48060   7.073   8.594  16.009 -0.2235  0.0294  0.3358
30537ION     NA48061   7.445   8.236   3.079 -0.1789  0.1821 -0.0470
30538ION     NA48062   4.409   3.586   0.005  0.1636  0.1799 -0.0637
30539ION     NA48063   4.612  13.503  15.273 -0.1758 -0.1107 -0.0265
30540ION     NA48064   8.380  16.443  10.480  0.2058  0.1187 -0.1228
30541ION     NA48065   3.950  15.205   5.559  0.0424  0.0236 -0.1448
30542ION     NA48066  15.540  13.467   3.416 -0.1491  0.2811  0.1954
30543ION     NA48067  16.286   7.391  14.028 -0.0218  0.3556 -0.1609
30544ION     NA48068   2.360  17.471  10.450 -0.0150 -0.1160 -0.0328
30545ION     NA48069   7.079   8.843   5.679 -0.1054 -0.0989  0.0690
30546ION     NA48070  14.011   8.914   1.382 -0.2775 -0.2050  0.1688
30547ION     NA48071   7.045  14.553   5.336  0.0915  0.2100 -0.0838
30548ION     NA48072  17.310  15.274  13.885 -0.3869 -0.0004  0.1172
30549ION     NA48073   2.227   2.322   5.420  0.1281 -0.4311 -0.1654
30550ION     NA48074   5.498  16.856   5.593 -0.4589  0.0680 -0.0927
30551ION     NA48075   6.819  10.760  12.398 -0.1830 -0.2175 -0.1608
30552ION     NA48076   0.769  13.581  13.671 -0.1760 -0.0639  0.0531
30553ION     NA48077   8.611   8.525   1.912  0.0010  0.1152 -0.0445
30554ION     NA48078  13.977  15.746   0.632  0.2317 -0.0449  0.0495
30555ION     NA48079   6.014  12.050   4.608  0.0950  0.0756 -0.4002
30556ION     NA48080   6.761   0.532   5.306 -0.2059 -0.1364  0.0069
30557ION     NA48081  13.620   5.960   3.934  0.0839 -0.0805  0.0175
30558ION     NA48082   7.264   0.464  11.875  0.0307  0.1885 -0.1984
30559ION     NA48083   2.047   8.641  10.315  0.0235  0.3334  0.1754
30560ION     NA48084   1.204  16.575   6.032 -0.1527  0.0699  0.1887
30561ION     NA48085   7.496   6.309  10.106  0.0801 -0.0612 -0.1608
30562ION     NA48086  17.124   9.399  14.074 -0.0240 -0.0443 -0.0524
30563ION     NA48087  14.204  13.932   5.987  0.0716 -0.0459  0.2482
30564ION     NA48088  11.942  17.426   0.928 -0.1448 -0.1420 -0.2838
30565ION     NA48089  15.044  17.706  11.513 -0.0686 -0.1588  0.0186
30566ION     NA48090  14.951   2.865  10.567  0.3001  0.3477  0.1084
30567ION     NA48091  14.532   0.270   2.025 -0.1981 -0.1604  0.0963
30568ION     NA48092  15.340   1.512   5.446  0.1108 -0.2873  0.0326
30569ION     NA48093  10.977   6.018  10.767 -0.3842  0.1443 -0.1024
30570ION     NA48094  13.033   6.806   1.402  0.4045  0.0873 -0.3290
30571ION     NA48095   8.112  15.655   4.662  0.0717 -0.2152  0.0048
30572ION     NA48096  15.363  16.438   4.403  0.0735  0.0346  0.0350
30573ION     NA48097   7.997   0.403   5.022 -0.2594  0.0638 -0.1797
30574ION     NA48098   5.247  14.368   5.660  0.1874 -0.2044 -0.2778
30575ION     NA48099  12.497  11.240  13.206 -0.3738  0.2118 -0.3413
30576ION     NA48100   1.815  11.082   1.940  0.1488 -0.2018 -0.2821
30577ION     NA48101  18.044  13.337  10.599  0.0997  0.0186  0.4771
30578ION     NA48102   9.887  16.399   5.525  0.4538  0.1675  0.1868
30579ION     NA48103   4.396  11.644  12.833 -0.0388  0.1865 -0.1166
30580ION     NA48104   4.408   7.873  10.478 -0.2305 -0.0055 -0.0328
30581ION     NA48105  13.158   2.025   5.669  0.2358 -0.1643 -0.0368
30582ION     NA48106  14.249  17.839   4.347 -0.1397 -0.2340 -0.1007
30583ION     NA48107   8.436   9.129   5.779 -0.3100  0.2346  0.2694
30584ION     NA48108  12.707   9.936   2.521 -0.2040 -0.0180 -0.0944
30585ION     NA48109   7.820   7.085  10.292  0.1964  0.0208 -0.1845
30586ION     NA48110   1.853  14.083  10.796  0.2683  0.0091  0.1453
30587ION     NA48111  15.507  11.431   5.777 -0.0056  0.2929  0.0418
30588ION     NA48112  17.076   3.961   5.313  0.2381 -0.1832 -0.3368
30589ION     NA48113   1.858  13.955   3.635 -0.1528  0.1453 -0.0069
30590ION     NA48114  14.651  11.400  10.845  0.1031  0.2584  0.0422
30591ION     NA48115   8.839   0.434   0.487 -0.1151  0.1807  0.0987
30592ION     NA48116  12.668  14.751  14.491  0.0538 -0.0247  0.2807
30593ION     NA48117   4.966  15.943  10.155  0.2321 -0.0511  0.0037
30594ION     NA48118   1.371   5.879   5.374  0.3019 -0.0924  0.1564
30595ION     NA48119   0.419   1.979   4.956 -0.3496 -0.1849  0.3315
30596ION     NA48120   0.808  12.590   2.017 -0.4000 -0.0694 -0.2045
30597ION     NA48121  12.351   3.833  12.553  0.0492 -0.0692  0.1025
30598ION     NA48122  11.189  13.021  14.371 -0.3855 -0.0694 -0.3068
30599ION     NA48123  15.049   0.709   5.690 -0.4012  0.0538  0.0515
30600ION     NA48124  12.752   5.757   5.834  0.1219 -0.0657  0.1212
30601ION     NA48125  10.838   5.624  15.372  0.0315 -0.2047 -0.1834
30602ION     NA48126   1.823   0.226  10.624  0.1532 -0.1455 -0.2654
30603ION     NA48127   5.796   1.752  15.379 -0.3867 -0.2722 -0.0619
30604ION     NA48128   7.898   5.414  14.116  0.0014 -0.1337  0.0141
30605ION     NA48129   2.845   9.141  15.417  0.0400  0.3122 -0.1060
30606ION     NA48130   8.644   3.647   2.820 -0.0158  0.0680  0.0239
30607ION     NA48131  10.228   2.609  15.696 -0.2941 -0.2501  0.0553
30608ION     NA48132   4.993   8.646  13.884 -0.1267 -0.0510 -0.1338
30609ION     NA48133   1.699   6.475  10.360 -0.0588 -0.1308 -0.0127
30610ION     NA48134  13.390  17.008   5.858 -0.0706  0.0958  0.0562
30611ION     NA48135  10.193   2.486   2.637 -0.3036 -0.2182 -0.1026
30612ION     NA48136  10.910   3.267  14.286  0.0456  0.0771 -0.0256
30613ION     NA48137   7.430   3.319   0.296  0.3611  0.0094  0.0119
30614ION     NA48138  14.988  17.287  15.444 -0.0270  0.0247 -0.1673
30615ION     NA48139   8.296   8.905  10.573  0.3107  0.1741  0.1975
30616ION     NA48140   3.318   7.423   5.570  0.2218  0.0133 -0.3773
30617ION     NA48141   2.773   2.493   3.959 -0.1082  0.1621  0.0913
30618ION     NA48142   3.919  12.912  10.498 -0.2005 -0.2487 -0.1018
30619ION     NA48143  17.227   2.727  13.736 -0.0821 -0.0944  0.1233
30620ION     NA48144   1.653   8.791   0.670  0.0189 -0.0513  0.0699
30621ION     NA48145  12.005   7.853   1.468 -0.2482  0.0515 -0.0065
30622ION     NA48146  11.100   4.011   3.364  0.1213  0.0056  0.2471
30623ION     NA48147  16.348   6.659   1.214  0.0756 -0.2392  0.2502
30624ION     NA48148  14.236  13.816  11.319  0.1777 -0.0570 -0.0545
30625ION     NA48149   7.274  15.873   1.475  0.1077  0.0098  0.4725
30626ION     NA48150  13.151   6.677  10.346  0.1446 -0.3462 -0.1337
30627ION     NA48151   8.783   7.176  12.095 -0.1063 -0.3286 -0.1803
30628ION     NA48152   4.006  10.246   3.650  0.0732  0.0706  0.1682
30629ION     NA48153  14.815  17.439   1.012 -0.1039  0.0676  0.4735
30630ION     NA48154   6.174   5.543  15.786 -0.0459  0.2542  0.2019
30631ION     NA48155  16.469  12.238   6.056 -0.1640  0.1179 -0.0757
30632ION     NA48156  13.260  13.171   2.447 -0.3701 -0.0912  0.0775
30633ION     NA48157   9.870  13.978  15.903 -0.0636  0.0821  0.0261
30634ION     NA48158   3.078  13.826   2.154 -0.0372  0.3404 -0.0956
30635ION     NA48159   8.483  13.500   1.070 -0.0838 -0.1551 -0.2081
30636ION     NA48160   0.542  14.621   5.986  0.0843  0.0320 -0.0789
30637ION     NA48161   2.472  14.467   5.802 -0.0072 -0.0245 -0.2835
30638ION     NA48162  11.959   4.421  11.845  0.1573  0.1857 -0.2950
30639ION     NA48163   0.179  12.570   3.198  0.0987  0.1474 -0.1088
30640ION     NA48164  15.513  12.559  10.883 -0.1707 -0.1837  0.0463
30641ION     NA48165   0.826   4.645   5.817  0.0366 -0.2180 -0.3061
30642ION     NA48166  17.011   3.246   5.372 -0.1784 -0.0132  0.0683
30643ION     NA48167   1.359  15.627   3.180  0.0620  0.1313  0.1555
30644ION     NA48168   5.152   1.149  13.060 -0.0861  0.3353 -0.0792
30645ION     NA48169   3.583   1.407  10.155 -0.1338  0.0941 -0.0573
30646ION     NA48170   4.422   6.980  15.197  0.3381  0.0337 -0.0465
30647ION     NA48171  15.446   5.503   0.749 -0.0446 -0.1533 -0.0071
30648ION     NA48172   0.357   4.823   1.787 -0.1575  0.1538 -0.0050
30649ION     NA48173   8.812   9.856   6.009  0.0422 -0.2026 -0.1908
30650ION     NA48174  13.657  14.579   5.947 -0.0388 -0.0168  0.3927
30651ION     NA48175   4.788  11.419  10.502  0.3023  0.0465 -0.1445
30652ION     NA48176   2.105   2.454  10.246  0.1678  0.4479  0.1035
30653ION     NA48177   3.823  10.841   5.913 -0.1720  0.0521  0.0607
30654ION     NA48178  12.373  17.868  12.248  0.3860  0.2664 -0.2566
30655ION     NA48179   3.167   5.826  15.173  0.0525  0.2089 -0.1075
30656ION     NA48180   4.554  11.813   5.534  0.1715  0.1200  0.1931
30657ION     NA48181   9.057  12.633  10.590 -0.0374  0.1105 -0.1589
30658ION     NA48182  15.851   7.318  14.783 -0.0317 -0.0734  0.2096
30659ION     NA48183  14.838  15.409   0.630 -0.0915  0.2107  0.0286
30660ION     NA48184   7.505   4.677   2.180  0.0712 -0.0953  0.1972
30661ION     NA48185  14.801  15.463   1.586 -0.3135  0.0007  0.1583
30662ION     NA48186  13.699  14.811   2.057  0.0313  0.2291  0.0396
30663ION     NA48187  18.120  11.709   6.041 -0.0528 -0.0276  0.3836
30664ION     NA48188  11.217   8.292   5.449  0.1847 -0.0696 -0.0926
30665ION     NA48189   2.630   7.229   2.557 -0.1713 -0.1487 -0.0071
30666ION     NA48190   1.060  15.643   6.074 -0.0958 -0.2193  0.1462
30667ION     NA48191   1.609  16.078  15.931  0.1331  0.4927  0.0117
30668ION     NA48192  12.386  10.336   0.910  0.2050 -0.0503 -0.0032
30669ION     NA48193   5.653  11.377  13.340 -0.1111 -0.0996  0.0169
30670ION     NA48194  11.431  11.216  10.661 -0.0831  0.1640 -0.0201
30671ION     NA48195   2.484   3.067   0.432  0.0434  0.2211 -0.0547
30672ION     NA48196  10.855  17.897  10.403  0.3963  0.0304  0.1460
30673ION     NA48197  13.397  11.779   5.874 -0.1615  0.0131 -0.0365
30674ION     NA48198  12.284   1.917  14.062 -0.0804 -0.3318  0.0636
30675ION     NA48199   1.473   7.872   4.956  0.1889 -0.1675  0.1662
30676ION     NA48200  15.875   2.990   0.814  0.0584 -0.0911  0.1387
30677ION     NA48201   6.209  11.950   0.136  0.0765  0.1445 -0.0655
30678ION     NA48202   8.498   5.255   5.202  0.0573  0.0327 -0.2952
30679ION     NA48203   4.986   0.715  10.720 -0.0422 -0.3738 -0.0320
30680ION     NA48204  15.179  10.392   5.650 -0.2031 -0.2800  0.0414
30681ION     NA48205   5.278   6.510  14.090 -0.1783 -0.3767 -0.0494
30682ION     NA48206  10.235  13.949  10.439 -0.1864  0.1203  0.2515
30683ION     NA48207   4.227   0.294  10.129 -0.0895  0.1347  0.0379
30684ION     NA48208   4.248   9.614  10.374 -0.0464  0.1065  0.1668
30685ION     NA48209   2.748  10.298  10.355  0.0996 -0.1395 -0.1165
30686ION     NA48210  11.691   3.147   5.634  0.1104 -0.1753  0.1882
30687ION     NA48211  15.147   3.900   3.170  0.2066  0.1084 -0.1846
30688ION     NA48212   6.201   9.344  10.428  0.1339  0.3354  0.0028
30689ION     NA48213   2.423   4.370  11.026 -0.2518 -0.0326  0.0670
30690ION     NA48214  15.047   4.490  10.810 -0.0129  0.3320 -0.1389
30691ION     NA48215  15.629  16.142   6.198 -0.0145  0.0085  0.1691
30692ION     NA48216  14.815   5.489   5.239  0.0255  0.0700  0.2591
30693ION     NA48217  17.911   5.507   2.371  0.3240  0.2262 -0.2837
30694ION     NA48218  17.227   8.665   1.506 -0.3812  0.0690 -0.0181
30695ION     NA48219  14.594   6.114  14.231  0.1620 -0.1598 -0.2686
30696ION     NA48220  14.074  14.455  14.248  0.1413  0.1098 -0.1002
30697ION     NA48221   4.264  11.193  10.455 -0.1458  0.2384  0.2948
30698ION     NA48222   0.754   1.374  13.859 -0.2228  0.0645 -0.3563
30699ION     NA48223  15.683  11.114   1.290  0.0781  0.1326  0.1155
30700ION     NA48224  11.566   1.860  12.944  0.2056  0.2287  0.0631
30701ION     NA48225   8.005   6.112   4.326  0.1056  0.2081 -0.0800
30702ION     NA48226   4.363   6.434   0.562 -0.0228  0.1880  0.0593
30703ION     NA48227  14.583  13.185   4.916  0.0520 -0.2342 -0.0489
30704ION     NA48228   0.801   6.478  15.354  0.0790 -0.1283 -0.1469
30705ION     NA48229   4.997  12.679   5.574  0.1799 -0.0020  0.0466
30706ION     NA48230   0.962  11.109   5.343  0.1783  0.4503  0.1359
30707ION     NA48231   2.389  14.976   2.774  0.1195  0.0961  0.0055
30708ION     NA48232  16.212  12.696   1.175 -0.0398  0.0329  0.0848
30709ION     NA48233   2.514   1.423   2.284  0.1763  0.0188 -0.0310
30710ION     NA48234   7.081   6.335  11.447 -0.2551  0.0428  0.2554
30711ION     NA48235   2.944   7.049  10.234 -0.0575  0.1229 -0.0000
30712ION     NA48236  18.038   2.107  10.344 -0.0918  0.0292 -0.0700
30713ION     NA48237   7.112  14.993  10.146 -0.4995 -0.0587  0.1280
30714ION     NA48238   3.919   9.115  12.395  0.3721 -0.0281 -0.1124
30715ION     NA48239  16.839   3.632  15.112 -0.3916  0.2714  0.1584
30716ION     NA48240  11.415   0.319   5.687  0.2323  0.0634 -0.2521
30717ION     NA48241   6.288  16.722   3.058 -0.0803  0.2828  0.1971
30718ION     NA48242  12.576   3.791   3.034  0.0884 -0.3335 -0.1509
30719ION     NA48243   4.685  12.204  13.705 -0.4970 -0.3178  0.0608
30720ION     NA48244  16.079   1.530  10.804 -0.2132  0.0751  0.1137
30721ION     NA48245   1.558  17.433  10.526 -0.3416 -0.1470 -0.1928
30722ION     NA48246  12.914  12.447   0.367  0.3026 -0.3030 -0.0456
30723ION     NA48247  13.788   8.853   3.467 -0.1792  0.2491 -0.2704
30724ION     NA48248   7.081   1.262  10.192 -0.4449 -0.5688 -0.0347
30725ION     NA48249  14.201  17.414  10.905 -0.2613 -0.1403 -0.1440
30726ION     NA48250  13.646   7.631  14.610 -0.1714  0.0425 -0.2520
30727ION     NA48251   1.306  10.018   0.467 -0.1258 -0.1286 -0.3387
30728ION     NA48252   2.252   6.482   1.605 -0.0688 -0.3427  0.0371
30729ION     NA48253  16.251  14.095   1.269  0.0678  0.1077 -0.0863
30730ION     NA48254   8.263  15.790   5.619  0.2686 -0.2601  0.1037
30731ION     NA48255   4.169   2.448  11.080 -0.0529 -0.0145 -0.3031
30732ION     NA48256   2.440  11.246  10.590 -0.1766 -0.0730  0.1697
30733ION     NA48257   8.790   2.467   5.218 -0.2374  0.0197 -0.2946
30734ION     NA48258  12.840   6.269   5.837 -0.0065  0.2182  0.1517
30735ION     NA48259  11.422   0.018   1.892 -0.0761  0.2280 -0.1607
30736ION     NA48260   8.112   3.157  15.344 -0.0693 -0.2178  0.2734
30737ION     NA48261  14.801   8.632  10.866  0.4048 -0.1788  0.0904
30738ION     NA48262   3.038  15.810   3.210  0.0818 -0.1059  0.2026
30739ION     NA48263  15.093  12.489  12.355 -0.1971 -0.1509  0.1268
30740ION     NA48264  16.100  13.364   0.403  0.0281 -0.1906  0.1678
30741ION     NA48265   6.062   3.620  11.684  0.1960  0.0568 -0.3457
30742ION     NA48266  11.474   3.992   5.767 -0.1455 -0.0484 -0.0603
30743ION     NA48267   2.417   3.901   2.310  0.1923 -0.1023 -0.3314
30744ION     NA48268  12.525   9.488  12.811 -0.0110 -0.1433  0.2234
30745ION     NA48269   8.831  10.450  13.157  0.2155 -0.0312  0.2288
30746ION     NA48270  15.399   3.877   2.326 -0.1433  0.2373  0.0877
30747ION     NA48271  18.112  11.675   3.339 -0.2821 -0.0062 -0.0315
30748ION     NA48272   5.865  10.559  10.496  0.0988 -0.1597 -0.0170
30749ION     NA48273   5.819   5.927  14.422  0.1705  0.0279  0.1316
30750ION     NA48274  14.077   0.993   5.541 -0.2777  0.2227 -0.1313
30751ION     NA48275   0.742   9.714  10.499  0.0697 -0.2896  0.2111
30752ION     NA48276   6.116   2.180  15.333 -0.2246  0.0651 -0.0833
30753ION     NA48277  13.032  12.617   1.028 -0.3823  0.1328  0.0364
30754ION     NA48278  16.655  15.261  10.928  0.0428 -0.0176 -0.4274
30755ION     NA48279   1.136  11.196   5.890  0.0721  0.1015 -0.0820
30756ION     NA48280   4.092  14.539   0.644  0.2197 -0.0048  0.0926
30757ION     NA48281  13.756  10.298  14.073  0.1094 -0.1507 -0.0200
30758ION     NA48282  12.620  11.280   5.752 -0.3284 -0.0451 -0.2212
30759ION     NA48283   8.230  11.699  10.380 -0.2119 -0.2139 -0.1585
30760ION     NA48284  14.481   6.588   4.412  0.0638 -0.1537  0.0080
30761ION     NA48285   6.638   4.857   5.268 -0.3084 -0.1934 -0.2231
30762ION     NA48286  11.415  13.304  11.131  0.3822 -0.2666  0.2966
30763ION     NA48287  16.713  12.094  13.554 -0.1034  0.1879 -0.0068
30764ION     NA48288   9.317   6.487   5.572 -0.0401  0.1441  0.0280
30765ION     NA48289  15.756   3.620  14.337 -0.1581  0.3599 -0.1036
30766ION     NA48290  12.380   6.060   0.571 -0.1073  0.2952 -0.1781
30767ION     NA48291   1.552   3.172  10.267 -0.0153  0.1215  0.1530
30768ION     NA48292   3.895  16.811  13.370 -0.0890 -0.4962  0.3113
30769ION     NA48293  16.383   9.392  12.072 -0.1355 -0.0889  0.1820
30770ION     NA48294   1.895   5.036  13.123 -0.0361 -0.0216  0.1297
30771ION     NA48295   8.797  17.028   5.359  0.0207 -0.1218  0.1082
30772ION     NA48296   2.074  14.342  14.509  0.1912 -0.2105  0.0568
30773ION     NA48297   6.955   8.793  10.307 -0.1876  0.1322 -0.0983
30774ION     NA48298   6.652   6.392   5.022  0.1626 -0.0065  0.1267
30775ION     NA48299  10.195  10.594   5.739 -0.0696 -0.1564 -0.1547
30776ION     NA48300  10.005  16.609   3.061 -0.1012  0.1270  0.0323
30777ION     NA48301   9.687  16.674  10.302  0.1418 -0.0693  0.3113
30778ION     NA48302  13.065  15.561   6.327 -0.1569 -0.0687  0.1164
30779ION     NA48303   1.730  11.722   3.857  0.1451 -0.1084  0.2260
30780ION     NA48304  10.486   3.986   0.991  0.1015  0.1774 -0.0722
30781ION     NA48305  17.676   3.259  10.516 -0.0800 -0.1506 -0.0145
30782ION     NA48306  10.648  12.506  15.524 -0.2589 -0.2457  0.0322
30783ION     NA48307  17.700  14.693   5.999 -0.1614  0.1727 -0.2424
30784ION     NA48308   8.446   6.682   1.980 -0.5604 -0.0091  0.0214
30785ION     NA48309  11.695   9.846   5.557 -0.0188  0.1530  0.0485
30786ION     NA48310  16.138  17.533   6.032  0.1204 -0.1364 -0.2122
30787ION     NA48311   7.611  10.047   0.839  0.0067 -0.0827 -0.2043
30788ION     NA48312  11.223  15.225   6.320  0.0370  0.1629 -0.1727
30789ION     NA48313   9.959  12.008  15.892 -0.1683 -0.2984 -0.1343
30790ION     NA48314   0.327  10.449   1.478  0.3029  0.0273  0.1214
30791ION     NA48315   4.872  12.985  10.455 -0.1613 -0.0190  0.0118
30792ION     NA48316   5.650   4.072   5.371 -0.2026 -0.2866  0.1256
30793ION     NA48317   0.800  10.815   5.818 -0.0227 -0.1622  0.1830
30794ION     NA48318  17.834   2.042  14.241 -0.0133 -0.0513 -0.1404
30795ION     NA48319   1.319   3.761  12.414 -0.3484 -0.2229 -0.3099
30796ION     NA48320   8.081   9.912  10.501  0.0559  0.3036  0.1513
30797ION     NA48321   2.469   2.701  10.488  0.0897 -0.1650 -0.3311
30798ION     NA48322   1.472  14.973  10.668  0.0771  0.0850 -0.0197
30799ION     NA48323   8.548  12.486   4.484  0.2346 -0.0750 -0.2439
30800ION     NA48324  14.734  12.128  14.577  0.0000  0.2835  0.1545
30801ION     NA48325   5.558   4.252  11.951 -0.1931  0.0159  0.0890
30802ION     NA48326   8.588  17.850   5.174  0.1513 -0.1402 -0.1105
30803ION     NA48327   8.371  15.210  14.767 -0.0789  0.0550  0.0304
30804ION     NA48328   5.099  14.460  10.415 -0.1180  0.1328 -0.0291
30805ION     NA48329   2.594  12.604   3.692  0.1803 -0.0523  0.2115
30806ION     NA48330  17.438  13.766   6.184  0.1628 -0.0010 -0.1476
30807ION     NA48331  15.611   3.467   3.342 -0.0733 -0.0936  0.2069
30808ION     NA48332   0.271  15.342   6.034 -0.0712  0.0343  0.2093
30809ION     NA48333  14.495  13.588  15.537 -0.3348  0.1448  0.1397
30810ION     NA48334   1.411   8.355   0.858 -0.1803  0.0362  0.0848
30811ION     NA48335  15.060  17.498   6.043 -0.0048  0.2485  0.1640
30812ION     NA48336   1.555   0.043   0.282 -0.3654  0.0574  0.0951
30813ION     NA48337   4.910   9.841   6.089 -0.2086  0.1267  0.1233
30814ION     NA48338   5.335   8.269   6.011  0.0349 -0.0458  0.0460
30815ION     NA48339  16.394  12.084  10.683 -0.2113  0.2156 -0.3365
30816ION     NA48340  14.258  10.381   4.974 -0.2447 -0.3260  0.0743
30817ION     NA48341  14.729  13.232   0.423 -0.0906  0.0381  0.1892
30818ION     NA48342  10.020   0.263   5.515 -0.3031 -0.1116 -0.1179
30819ION     NA48343   1.569   1.146   1.343  0.2505  0.1427  0.1716
30820ION     NA48344   2.214   5.447   5.353 -0.2580 -0.0388  0.1203
30821ION     NA48345  16.089  10.770   5.504  0.2038  0.0047  0.2631
30822ION     NA48346  15.395   0.489  14.411 -0.3559  0.4841 -0.1847
30823ION     NA48347  13.346   4.338   1.878  0.0858 -0.1897  0.2839
30824ION     NA48348   5.734  10.710   0.953 -0.0711  0.1786  0.0809
30825ION     NA48349   0.940   6.954  10.390 -0.0054 -0.1810  0.1789
30826ION     NA48350   2.662   0.761  11.604  0.0624 -0.1119  0.0668
30827ION     NA48351   2.977  12.576   5.624 -0.1749 -0.0063  0.0545
30828ION     NA48352   2.104  15.725  10.474 -0.0646 -0.3529  0.3931
30829ION     NA48353   4.230  15.887  15.171 -0.1760 -0.1341 -0.0145
30830ION     NA48354   6.627  13.232  14.143 -0.3017  0.2111  0.1868
30831ION     NA48355  10.903   8.887  11.589 -0.1343 -0.3133 -0.0524
30832ION     NA48356  16.549  14.269  14.133 -0.1935  0.0264  0.1153
30833ION     NA48357   4.053  12.639   1.016 -0.0085  0.0444 -0.0705
30834ION     NA48358  18.079   6.737  15.167  0.1871 -0.1168  0.2194
30835ION     NA48359  16.638  18.082   0.593  0.1033  0.1248 -0.1337
30836ION     NA48360  13.624  10.925   2.783 -0.3705 -0.1694  0.2131
30837ION     NA48361  14.266   8.220   1.983 -0.0150  0.0704 -0.0055
30838ION     NA48362   8.388   9.937   5.156  0.1672 -0.0581 -0.3807
30839ION     NA48363   6.131  16.109   5.574  0.0313 -0.1192  0.0737
30840ION     NA48364  17.907  10.644   6.055 -0.0492  0.0027 -0.2182
30841ION     NA48365  14.887  15.254  10.775  0.0741 -0.1844 -0.1930
30842ION     NA48366  12.666   7.263   5.721 -0.0509  0.3189 -0.1202
30843ION     NA48367   6.935   7.506   5.345  0.2817 -0.0099  0.1086
30844ION     NA48368  15.467   4.164  15.074  0.0746 -0.1252  0.1443
30845ION     NA48369  11.276   7.021   5.844 -0.0317  0.6143 -0.0674
30846ION     NA48370   1.896   7.317  10.369  0.0642  0.1257  0.1733
30847ION     NA48371   9.092   3.270  13.654  0.4337 -0.1480 -0.0233
30848ION     NA48372  14.537   8.738   5.641 -0.2685  0.0281  0.0586
30849ION     NA48373  13.730   2.499   4.488 -0.2225 -0.1361 -0.0571
30850ION     NA48374  12.874   8.717   3.012  0.2939  0.1115  0.0076
30851ION     NA48375   9.444  11.289  14.529 -0.1920 -0.2378  0.1686
30852ION     NA48376   0.081   9.149  13.946  0.4964  0.1950 -0.0026
30853ION     NA48377  10.162   3.577   5.593 -0.1938 -0.3275 -0.0647
30854ION     NA48378   4.784   1.477   4.120 -0.0967 -0.2364 -0.3089
30855ION     NA48379  13.572  15.522  10.890 -0.2217  0.2661  0.1195
30856ION     NA48380   9.460   6.795   0.282  0.0714 -0.1671  0.1357
30857ION     NA48381  11.571  12.711  13.963 -0.2301  0.2920  0.2367
30858ION     NA48382  12.908   4.394   5.511  0.1129 -0.0845 -0.2015
30859ION     NA48383   3.494  17.609   2.994  0.3136 -0.0255 -0.1890
30860ION     NA48384   9.897   4.614   4.690 -0.2049 -0.0995 -0.1579
30861ION     NA48385  15.864   7.848   5.477  0.1650 -0.2630  0.3377
30862ION     NA48386   5.853   3.202   2.161 -0.1752  0.0716  0.1699
30863ION     NA48387   6.727  17.954   5.501 -0.3146 -0.2541 -0.2138
30864ION     NA48388  10.638  14.431   6.146  0.3639 -0.0284  0.1178
30865ION     NA48389   1.006  11.893   4.253  0.3589  0.2754 -0.1098
30866ION     NA48390  12.721  10.400  10.630  0.0351  0.1477  0.2037
30867ION     NA48391   8.196   3.389  11.134 -0.1110  0.3112 -0.1906
30868ION     NA48392   9.687  15.069   0.648  0.1638 -0.0150  0.2418
30869ION     NA48393  13.281   1.587  10.660  0.1598 -0.0474  0.2370
30870ION     NA48394   5.735   6.677   5.432 -0.1879  0.4791  0.0522
30871ION     NA48395  13.616   3.626  10.387  0.0099  0.0076 -0.0369
30872ION     NA48396  12.084  13.222   6.037  0.0700 -0.0961  0.0433
30873ION     NA48397  10.232   0.190  12.595 -0.2421  0.2529 -0.1725
30874ION     NA48398   0.425  17.480   6.019 -0.2797 -0.3162  0.1887
30875ION     NA48399   0.853   3.729  10.536 -0.2810 -0.0048  0.2443
30876ION     NA48400   9.542  13.949   5.678 -0.2046  0.2598 -0.3650
30877ION     NA48401   2.963  15.480  10.675  0.0557 -0.1256 -0.1958
30878ION     NA48402   9.604  13.303   5.661  0.3281 -0.1880 -0.0751
30879ION     NA48403  14.466  14.856   6.198 -0.0631  0.0560 -0.0689
30880ION     NA48404  16.624   1.419   3.781  0.1872 -0.2043 -0.0355
30881ION     NA48405   5.152  14.866  11.484 -0.0012 -0.0889  0.0505
30882ION     NA48406   1.992  15.695   3.926 -0.0958 -0.2981  0.3585
30883ION     NA48407  12.757   0.862  10.718  0.0803 -0.1816  0.2155
30884ION     NA48408   9.006   1.641   1.812 -0.0270  0.0887  0.0396
30885ION     NA48409   1.113  18.034  10.980 -0.1305 -0.1965 -0.1015
30886ION     NA48410   8.547   8.885   3.151 -0.0529 -0.1214 -0.1672
30887ION     NA48411  17.920   5.212  10.352 -0.2667  0.1745 -0.0608
30888ION     NA48412   2.046   0.816   5.565 -0.2578  0.2191 -0.0162
30889ION     NA48413   7.282   4.374   5.394  0.1001  0.1744  0.1722
30890ION     NA48414   7.555  12.053  11.015  0.0357  0.2231  0.0377
30891ION     NA48415  17.496  13.971   2.435  0.2910 -0.0739 -0.1087
30892ION     NA48416  14.524   1.148   4.503  0.0099  0.2330  0.0757
30893ION     NA48417   3.364  14.379   5.668 -0.1333 -0.1010  0.2374
30894ION     NA48418   2.473  16.012   5.337 -0.0636  0.2447  0.2333
30895ION     NA48419   1.286   0.339   5.839  0.3283  0.3188 -0.2992
30896ION     NA48420  14.121   1.598   1.365 -0.2705  0.2974  0.2756
30897ION     NA48421   8.475   6.128   5.406 -0.0804 -0.1506 -0.0399
30898ION     NA48422   6.027   8.700   6.083 -0.0568 -0.1755  0.0878
30899ION     NA48423  10.447   2.052   5.411  0.1005 -0.0872 -0.0823
30900ION     NA48424   1.253   4.302   1.887 -0.4544  0.0368  0.1844
30901ION     NA48425  15.173   6.425   5.429  0.1080 -0.0563  0.2752
30902ION     NA48426   2.756  14.277  10.578  0.0484  0.0562 -0.1413
30903ION     NA48427   0.481  15.067  13.132  0.2185 -0.1508  0.0867
30904ION     NA48428  13.777   0.901   0.048 -0.2037  0.1538  0.0555
30905ION     NA48429   0.015   3.840  12.574 -0.4265  0.1759 -0.0696
30906ION     NA48430   4.409  12.628   1.926 -0.0831  0.1534  0.1620
30907ION     NA48431  16.535  11.817   5.740  0.1132 -0.0889  0.0254
30908ION     NA48432  12.734  10.120  13.339  0.0676 -0.3315  0.0122
30909ION     NA48433  12.905  11.553  14.597  0.0324 -0.2444  0.0567
30910ION     NA48434  10.026  10.870  12.307  0.0518  0.2610 -0.0209
30911ION     NA48435   3.142   3.814  11.675  0.0483 -0.0141 -0.2918
30912ION     NA48436  17.687   4.793   1.277  0.1706  0.0598 -0.0788
30913ION     NA48437  13.971   8.247  10.874  0.1012  0.0261 -0.0047
30914ION     NA48438  15.282   7.678   1.215  0.1162 -0.3257  0.0327
30915ION     NA48439   4.604   1.890   5.403  0.2181 -0.0345  0.0135
30916ION     NA48440  10.875   7.538   1.636  0.0181  0.3717 -0.1368
30917ION     NA48441   3.864  11.346   0.123  0.1594 -0.0909 -0.3704
30918ION     NA48442   3.916   9.444   5.920  0.1653  0.2731  0.2246
30919ION     NA48443  14.855   1.328   3.575  0.1295 -0.2388 -0.2095
30920ION     NA48444  10.176   3.025   5.469  0.2647 -0.2202 -0.2100
30921ION     NA48445   0.523   1.555  10.297  0.3418 -0.1008  0.0573
30922ION     NA48446   8.641  16.129   5.342  0.4151  0.0656 -0.0663
30923ION     NA48447   1.600  10.189  12.164 -0.0590 -0.1549  0.0156
30924ION     NA48448  12.725  17.051  15.753 -0.2501  0.0298  0.1471
30925ION     NA48449  17.306  14.471  10.802  0.0061  0.1093 -0.0769
30926ION     NA48450   2.827   5.222  15.811  0.1678 -0.0791  0.2083
30927ION     NA48451   4.378   7.620   1.633 -0.1517 -0.4052  0.0532
30928ION     NA48452   4.092   2.063  10.141  0.1667 -0.0597 -0.0723
30929ION     NA48453   9.459  17.239  12.679  0.0656  0.0181  0.0238
30930ION     NA48454  14.237  10.031  11.284  0.0069 -0.1014  0.2123
30931ION     NA48455   2.435  13.497  10.937  0.1868  0.2556  0.0792
30932ION     NA48456  15.823   3.266  10.328  0.0864  0.0029 -0.3265
30933ION     NA48457  12.756  16.324  13.462 -0.0551  0.0653 -0.1612
30934ION     NA48458   0.218   2.974  10.475 -0.2194  0.0554  0.0671
30935ION     NA48459  11.655   1.289   0.671 -0.0072 -0.0485 -0.0295
30936ION     NA48460   0.213  17.078  10.657  0.1406  0.1248 -0.1985
30937ION     NA48461   0.292   2.274   0.340  0.0541 -0.0363  0.0476
30938ION     NA48462  10.447  13.694   1.176  0.0301 -0.1698 -0.0688
30939ION     NA48463  17.344   4.508   2.697 -0.2389 -0.1735  0.0928
30940ION     NA48464  14.128  17.214   6.016  0.0782 -0.1680 -0.0488
30941ION     NA48465  15.560  10.697  10.885 -0.1681 -0.0589  0.0633
30942ION     NA48466  13.578   7.621   5.685 -0.2236 -0.2417  0.3891
30943ION     NA48467   4.750  14.242  15.955 -0.0718  0.1146  0.2976
30944ION     NA48468   8.442  13.125  14.375  0.0863  0.4261 -0.1180
30945ION     NA48469   6.274   1.392   5.293 -0.1541 -0.1184 -0.0465
30946ION     NA48470   9.459  16.656   5.401 -0.0157 -0.0865  0.0733
30947ION     NA48471  16.658   2.869   1.428  0.0735  0.1873  0.1020
30948ION     NA48472  12.391  13.193  10.902  0.1880  0.3017  0.0885
30949ION     NA48473   3.747  15.394  10.434  0.4368 -0.1042 -0.0551
30950ION     NA48474  13.994   1.624  10.741  0.2060 -0.0925 -0.0513
30951ION     NA48475  17.472  17.066  10.555  0.1389  0.0630  0.1724
30952ION     NA48476   2.682  16.815   5.699  0.3659  0.0202 -0.0632
30953ION     NA48477  16.062  10.081   1.881 -0.0361 -0.1228  0.0233
30954ION     NA48478   5.474  13.602   5.761  0.0634 -0.0421 -0.1359
30955ION     NA48479  13.539   5.917  10.407  0.1995 -0.0044 -0.0667
30956ION     NA48480  11.813  14.303   1.345  0.0842  0.2608 -0.2011
30957ION     NA48481  11.381   8.542  10.764 -0.0653 -0.0402 -0.0004
30958ION     NA48482   4.899  14.531   3.704  0.1331  0.2403 -0.1755
30959ION     NA48483   2.582   8.506   2.557  0.0303 -0.0607  0.0832
30960ION     NA48484  14.792  16.575   6.074 -0.0467  0.2645  0.5077
30961ION     NA48485   2.558   8.519   5.377  0.0247  0.2217 -0.0809
30962ION     NA48486   4.916  17.176   0.998 -0.1241  0.1743  0.1631
30963ION     NA48487  12.339   8.713  16.029  0.1658 -0.0091 -0.2952
30964ION     NA48488   6.558  13.286   1.378 -0.3502  0.2641 -0.1622
30965ION     NA48489  17.745   8.454   5.099  0.0443 -0.0772  0.1267
30966ION     NA48490  17.806  17.684   6.178 -0.0005 -0.3945  0.0652
30967ION     NA48491  16.710  13.889  11.187 -0.3481  0.1015 -0.0686
30968ION     NA48492   1.422  14.163   5.982  0.2650  0.0865  0.0628
30969ION     NA48493  11.232  16.525  12.227  0.1617 -0.0850 -0.0826
30970ION     NA48494   6.826   5.771   2.506  0.0497  0.2526 -0.0821
30971ION     NA48495   7.467   5.286   5.099  0.2453 -0.0949  0.0045
30972ION     NA48496   0.488   9.166  11.085  0.1456 -0.3401 -0.0930
30973ION     NA48497   0.440  12.389   6.093 -0.0098 -0.1157 -0.3533
30974ION     NA48498   9.810   8.327   5.537 -0.3345  0.5757  0.1441
30975ION     NA48499  16.456   2.136  14.439 -0.3111 -0.1892 -0.0816
30976ION     NA48500   6.398  10.964   2.035 -0.3165 -0.1089 -0.2550
30977ION     NA48501  17.111  14.075  13.306  0.3814  0.1752 -0.0838
30978ION     NA48502  15.932   1.846  15.934  0.1646 -0.0441 -0.1900
30979ION     NA48503  11.674  16.019   6.249  0.0428 -0.1464  0.0062
30980ION     NA48504  16.968  16.620  10.383 -0.2184 -0.0885  0.1424
30981ION     NA48505  16.766  17.048   5.040 -0.2818  0.1501 -0.1820
30982ION     NA48506  14.773  15.546  11.149  0.2069 -0.0019 -0.1782
30983ION     NA48507  11.370   2.200   5.431  0.0302  0.2752  0.0638
30984ION     NA48508   6.455  12.008  13.694  0.0479 -0.2299  0.0199
30985ION     NA48509  14.368   6.342  10.679 -0.2204 -0.0494  0.0987
30986ION     NA48510   0.730   4.652  10.404  0.0614 -0.0155 -0.1647
30987ION     NA48511   3.832  13.705  15.779 -0.0075 -0.0246 -0.1314
30988ION     NA48512   5.856   5.771   5.164 -0.1146  0.0701  0.1865
30989ION     NA48513  14.330  12.431   5.954  0.0209 -0.0324 -0.0689
30990ION     NA48514  11.001  13.633   3.239 -0.1022 -0.1873 -0.2197
30991ION     NA48515  14.856  14.701   0.525 -0.0652 -0.0538  0.2773
30992ION     NA48516   3.911  18.069   1.835 -0.3502 -0.0522 -0.2331
30993ION     NA48517  13.025   9.631  10.829 -0.2245  0.0370  0.1305
30994ION     NA48518  12.934  11.885   5.154  0.0788  0.2009  0.0545
30995ION     NA48519   6.618  11.413  14.574  0.2738 -0.1349  0.1326
30996ION     NA48520   7.756   8.204  10.295  0.0122  0.0231 -0.0907
30997ION     NA48521  11.039  14.170  10.378 -0.1849 -0.1746 -0.1811
30998ION     NA48522   6.362  14.721  10.236  0.2477  0.1830 -0.0710
30999ION     NA48523  17.297   5.574   0.578 -0.0633  0.0585  0.0307
31000ION     NA48524  17.217  10.010   5.902 -0.1187  0.0260  0.1358
31001ION     NA48525   5.684   0.330  14.454  0.1850  0.1378 -0.0395
31002ION     NA48526  16.016  10.030  10.622  0.0594 -0.1071  0.2375
31003ION     NA48527  17.045   4.556   5.286 -0.1693 -0.2011  0.0697
31004ION     NA48528   7.884  10.746  10.617  0.2164  0.1609 -0.1739
31005ION     NA48529  15.321  14.155  13.025  0.1828  0.3106 -0.1408
31006ION     NA48530   4.968  15.938   5.518  0.1749  0.0385  0.0290
31007ION     NA48531  10.816   5.779   1.897  0.2382 -0.2984 -0.2301
31008ION     NA48532  14.847   4.459   5.382  0.1634 -0.3570 -0.0063
31009ION     NA48533  12.593   9.156   5.653 -0.0589 -0.1876  0.0759
31010ION     NA48534   5.703   0.949   4.662 -0.0345  0.0343 -0.1227
31011ION     NA48535  16.940   0.247   1.961  0.3540 -0.2290 -0.2274
31012ION     NA48536  18.054  16.789   6.022 -0.1966  0.0617 -0.2102
31013ION     NA48537   4.461   1.258  10.178 -0.0540 -0.1593  0.1064
31014ION     NA48538   0.664   7.018   5.458  0.0852  0.2255  0.0570
31015ION     NA48539   1.232  10.988   0.259 -0.2731  0.2167 -0.3739
31016ION     NA48540  17.783   8.912   5.604  0.0190  0.0648  0.0520
31017ION     NA48541  13.274  15.285  14.496  0.0813 -0.1356  0.1108
31018ION     NA48542  12.216  10.957  15.911  0.0600 -0.4310 -0.1810
31019ION     NA48543  15.525  14.501  10.743 -0.0324 -0.1535  0.2972
31020ION     NA48544   3.464   0.631  11.819 -0.1929 -0.0168 -0.1801
31021ION     NA48545   7.051   2.084   5.285  0.1700  0.1148  0.1488
31022ION     NA48546  12.487   3.597  10.261  0.0022  0.1606 -0.1912
31023ION     NA48547  15.817   0.170   5.879 -0.1617 -0.3396 -0.2875
31024ION     NA48548   2.755   6.164  10.350  0.2079 -0.1884  0.0060
31025ION     NA48549   5.035  17.730  15.531  0.1841 -0.0971 -0.2263
31026ION     NA48550  13.606   4.982  10.484  0.0033  0.0541  0.1295
31027ION     NA48551   7.836  12.746  14.888 -0.1923 -0.0644 -0.1463
31028ION     NA48552   6.106   7.254   0.216 -0.4642  0.3027 -0.0438
31029ION     NA48553   1.977   4.410  12.458  0.0579  0.0345  0.0878
31030ION     NA48554   1.912  12.127   0.421 -0.2808 -0.3622 -0.1118
31031ION     NA48555   0.068  14.207  10.736  0.0157  0.2323 -0.1556
31032ION     NA48556   7.867  12.833   5.623  0.0593  0.1179  0.3048
31033ION     NA48557   8.294  15.490  10.549 -0.0434 -0.1867 -0.4016
31034ION     NA48558  18.100   0.508   6.144 -0.0068 -0.1082  0.1525
31035ION     NA48559  16.858   5.236   3.565  0.1017 -0.1124  0.0940
31036ION     NA48560  17.743   1.524   5.091  0.0936 -0.0692 -0.1859
31037ION     NA48561   2.202  18.036  11.517 -0.4532  0.0089 -0.2654
31038ION     NA48562   1.106   6.905   0.931  0.0885 -0.0911  0.0082
31039ION     NA48563   6.912   4.060  14.492  0.0472  0.3075 -0.0413
31040ION     NA48564  16.685   7.661   0.289  0.1402  0.4106 -0.0726
31041ION     NA48565  12.502  13.171  12.064 -0.0460  0.0162 -0.4455
31042ION     NA48566  13.852   2.816   2.161  0.1852  0.1526  0.0794
31043ION     NA48567   5.848  15.180   5.479 -0.0303  0.0327 -0.0790
31044ION     NA48568  14.078  13.167  10.807 -0.3132  0.1015 -0.1037
31045ION     NA48569  17.249   7.348   3.305 -0.0978 -0.2906 -0.2489
31046ION     NA48570   6.424  10.269  14.423  0.0354  0.0331  0.3474
31047ION     NA48571   4.420   4.012   1.769 -0.0292 -0.0899  0.3574
31048ION     NA48572   1.461   2.769  12.293  0.5097  0.0018 -0.1578
31049ION     NA48573  17.254   5.096  10.877  0.2694 -0.2615  0.1262
31050ION     NA48574   9.199   0.958  13.646  0.0089 -0.1461  0.3564
31051ION     NA48575  14.381   0.976  15.308 -0.2184 -0.0468  0.0196
31052ION     NA48576   7.953  14.611  10.234 -0.0260 -0.3677 -0.1542
31053ION     NA48577   9.853   0.059   5.024  0.0475  0.0025 -0.3172
31054ION     NA48578   6.083   8.188  11.281  0.0215 -0.1692  0.0415
31055ION     NA48579  14.960   1.506   1.955 -0.0280  0.0444  0.2253
31056ION     NA48580   9.076  15.304   5.326  0.0106 -0.0716  0.1540
31057ION     NA48581  17.741   6.228  14.684  0.4400 -0.1233 -0.1101
31058ION     NA48582   3.228   0.546   0.965  0.2819  0.1520  0.2315
31059ION     NA48583  10.101  15.897  13.296 -0.2710 -0.1911  0.1389
31060ION     NA48584  15.295   2.820  13.471 -0.0980  0.0223  0.0509
31061ION     NA48585   4.713  10.880   5.942  0.1091 -0.1076  0.1266
31062ION     NA48586   8.146  10.974  13.383  0.0595  0.2706  0.1397
31063ION     NA48587  14.359   2.066  10.665 -0.1485  0.0198  0.0827
31064ION     NA48588  15.835   0.845   0.815 -0.1421 -0.0044 -0.0859
31065ION     NA48589   3.091  11.057   5.942  0.0048  0.2694  0.4692
31066ION     NA48590   2.918  10.759  13.545 -0.1568 -0.1046  0.2285
31067ION     NA48591   0.120  16.120   1.948 -0.0629  0.1423 -0.0249
31068ION     NA48592  13.529  15.654   6.076  0.0565  0.2624  0.1119
31069ION     NA48593  15.921  11.280   0.206 -0.0827  0.0531  0.4066
31070ION     NA48594   6.120   3.299   9.935  0.1081  0.0869 -0.1347
31071ION     NA48595   3.588   0.708   5.585  0.1302 -0.3229 -0.2092
31072ION     NA48596  16.695   2.172  10.471  0.0353 -0.0391 -0.0005
31073ION     NA48597   9.002   0.264  10.197  0.0501 -0.1022  0.2329
31074ION     NA48598  16.036   2.737   4.304  0.0190  0.0641 -0.0590
31075ION     NA48599   2.986  11.959  10.713  0.1476 -0.1385  0.1008
31076ION     NA48600  10.364  15.377  15.948 -0.0995 -0.3763  0.2552
31077ION     NA48601   5.395  12.334   1.056  0.0014  0.1423 -0.0365
31078ION     NA48602  14.130  14.061   0.611 -0.1050 -0.0696  0.0438
31079ION     NA48603  15.490   9.159  10.670 -0.2282 -0.1023 -0.1055
31080ION     NA48604   7.846  13.653  10.188 -0.0496 -0.0417  0.3550
31081ION     NA48605  14.297  12.930  12.332  0.0624  0.3279  0.1221
31082ION     NA48606   7.559   5.023  10.705 -0.1033  0.0868  0.4596
31083ION     NA48607   7.510   2.440  10.368 -0.2926 -0.0561  0.1504
31084ION     NA48608   2.373   4.532   5.960  0.4195  0.1290  0.2964
31085ION     NA48609   1.179   3.935   5.684  0.3724 -0.2588  0.0679
31086ION     NA48610  17.232  12.286   6.225 -0.0567 -0.1957  0.1405
31087ION     NA48611  15.032   1.446  10.938 -0.1417 -0.1396 -0.2512
31088ION     NA48612   3.805   5.593   5.613  0.3738 -0.1418  0.1578
31089ION     NA48613  14.132  11.229  13.992 -0.2691  0.1987  0.0907
31090ION     NA48614   6.306  13.564  11.826  0.0803  0.0865 -0.0604
31091ION     NA48615  11.661   7.133  14.703  0.0649  0.0662  0.2064
31092ION     NA48616   7.584  10.711   5.757 -0.0925  0.3152  0.0710
31093ION     NA48617  14.650   0.291   3.869 -0.1870  0.0612  0.1932
31094ION     NA48618   0.797  16.363   5.174 -0.3518 -0.1501 -0.0631
31095ION     NA48619   9.385   8.783  10.453  0.0378  0.3054  0.2151
31096ION     NA48620  17.307  12.910  10.352  0.0267 -0.2311 -0.0328
31097ION     NA48621   3.358   3.201  10.457  0.2987  0.2351  0.0005
31098ION     NA48622   5.042   7.468   5.693 -0.2546 -0.1940 -0.1099
31099ION     NA48623   5.772  10.907  15.519  0.0335 -0.0611 -0.3044
31100ION     NA48624   8.816   9.482  10.498 -0.2366 -0.2342 -0.2023
31101ION     NA48625   2.258  10.168  13.976  0.0662  0.1319  0.1219
31102ION     NA48626   6.060   2.323   5.095  0.3274  0.1420  0.2123
31103ION     NA48627  11.289  13.836   5.886  0.2346  0.3562 -0.2220
31104ION     NA48628   8.132  13.304   5.738 -0.2682 -0.2589  0.0740
31105ION     NA48629  11.281   2.121   4.113 -0.1384  0.1671  0.1292
31106ION     NA48630   1.271   4.858   3.107 -0.1893 -0.0656 -0.1836
31107ION     NA48631   5.701   9.460   6.089 -0.1074  0.0957 -0.1732
31108ION     NA48632  12.698   0.197  10.853 -0.1753 -0.1221 -0.0001
31109ION     NA48633   4.633  15.181  10.208  0.2438 -0.1745  0.2052
31110ION     NA48634  15.606  15.951   1.795  0.1236  0.0081 -0.2264
31111ION     NA48635  12.321   1.386   5.748 -0.0595  0.1031  0.0037
31112ION     NA48636   5.326  13.008   1.825 -0.1704 -0.2945  0.4776
31113ION     NA48637   6.534   9.396   6.158  0.0369 -0.1122 -0.2369
31114ION     NA48638  16.392   0.217  10.655  0.1660  0.0251  0.1894
31115ION     NA48639   1.271   9.865   1.571 -0.1202 -0.0411  0.0879
31116ION     NA48640  17.091   1.865  15.813 -0.1559 -0.0693  0.4254
31117ION     NA48641  11.692  13.476   0.080  0.4510  0.0649 -0.0940
31118ION     NA48642   7.300  11.403  15.764  0.0140  0.3725 -0.1316
31119ION     NA48643   9.355  17.715   5.512 -0.2327 -0.1211  0.1046
31120ION     NA48644   6.896  13.570  10.425 -0.0900  0.3097 -0.2125
31121ION     NA48645   6.134   5.745  13.500  0.0950 -0.2741  0.1520
31122ION     NA48646   8.230   1.067   5.384  0.2129 -0.0717 -0.1775
31123ION     NA48647  11.089  11.907  10.616 -0.0133 -0.0937  0.1531
31124ION     NA48648   8.865  16.435  11.804 -0.1744 -0.0389 -0.0028
31125ION     NA48649  12.494  13.546   0.478 -0.1279 -0.2146  0.1491
31126ION     NA48650   3.453  17.418   5.584 -0.0004 -0.3527  0.0656
31127ION     NA48651  17.117   7.209  13.994  0.1637 -0.1802 -0.3038
31128ION     NA48652   1.563   4.127  10.232 -0.0944 -0.0606  0.2204
31129ION     NA48653   6.753  14.731   5.682 -0.4110 -0.2180 -0.0906
31130ION     NA48654   9.957  14.492  14.421 -0.1360 -0.2198 -0.4463
31131ION     NA48655  13.593  15.850   2.581  0.0321  0.1065  0.0022
31132ION     NA48656  11.885  14.433   6.207  0.0112  0.0483 -0.1052
31133ION     NA48657  11.466  16.137  10.565 -0.1982  0.0189 -0.0017
31134ION     NA48658   1.857   4.778  10.547  0.1712  0.2337 -0.0027
31135ION     NA48659  10.578   6.253   5.735  0.2276 -0.1390  0.0424
31136ION     NA48660   4.590  13.172   0.738  0.0381  0.2334 -0.0540
31137ION     NA48661   1.899  16.682  10.418  0.0060  0.2748  0.1109
31138ION     NA48662   6.443   2.552  15.596  0.0439 -0.2988 -0.1781
31139ION     NA48663  11.014  14.647   3.265 -0.0409 -0.0173  0.0637
31140ION     NA48664  16.149  16.347  10.819 -0.0202 -0.0825  0.1410
31141ION     NA48665   5.243  14.125  11.290  0.0170 -0.1819 -0.1910
31142ION     NA48666   3.854   2.492  14.559  0.0260 -0.1101  0.2377
31143ION     NA48667   1.030   4.951  13.472  0.0560 -0.4408  0.1268
31144ION     NA48668   1.939  12.617  14.783 -0.1315 -0.1189  0.0283
31145ION     NA48669  11.492  11.878   5.617 -0.0848  0.0567 -0.2964
31146ION     NA48670   5.859   2.759   0.352 -0.2781  0.1106 -0.3329
  18.14007  18.14007  16.05832
