INSANE! Membrane UpperLeaflet>loPI:POPI:DPPI:PYPI:ERGO=30.0:5.0:3.0:2.0:10.0 LowerLeaflet>loPI:POPI:DPPI:PYPI:ERGO=30.0:5.0:3.0:2.0:10.0
48670
    1loPI    C1    1  12.712   0.231  10.614  0.1650 -0.1556  0.1110
    1loPI    C2    2  12.448   0.179  10.910 -0.1329 -0.1208 -0.1431
    1loPI    C3    3  12.623   0.535  10.857  0.0911 -0.1874  0.1237
    1loPI   PO4    4  12.665   0.188  10.436  0.1654 -0.1186 -0.3258
    1loPI   GL1    5  12.546   0.304  10.004  0.4053  0.2345  0.0766
    1loPI   GL2    6  12.771   0.414   9.854 -0.1442  0.1465 -0.0566
    1loPI   C1A    7  12.447   0.179   9.596  0.0881  0.1024 -0.0519
    1loPI   C2A    8  12.502   0.250   9.149 -0.2846  0.3450  0.0800
    1loPI   C3A    9  12.532   0.270   8.647  0.1405  0.1839  0.0184
    1loPI   C4A   10  12.758   0.372   8.186 -0.0255 -0.1591  0.1138
    1loPI   C5A   11  12.684   0.167   7.807  0.0203  0.0147  0.0434
    1loPI   C6A   12  12.539   0.186   7.355 -0.2094  0.1096  0.1142
    1loPI   C1B   13  12.859   0.521   9.415 -0.0604 -0.1065 -0.0203
    1loPI   C2B   14  12.891   0.499   8.967  0.0173  0.1549 -0.1935
    1loPI   C3B   15  12.998   0.738   8.568  0.0015 -0.0173  0.1602
    1loPI   C4B   16  12.928   0.901   8.244 -0.1771  0.2429  0.0623
    2loPI    C1   17   0.678  10.696  10.560 -0.2879 -0.1284  0.1305
    2loPI    C2   18   0.940  10.789  10.847 -0.0664 -0.1958 -0.0467
    2loPI    C3   19   0.638  11.038  10.764 -0.0546 -0.1126  0.1527
    2loPI   PO4   20   0.799  10.653  10.182  0.0857 -0.0484 -0.3377
    2loPI   GL1   21   0.778  10.263   9.939 -0.1507  0.0752 -0.4998
    2loPI   GL2   22   0.984   9.981   9.882  0.1389  0.1666 -0.1447
    2loPI   C1A   23   0.640  10.336   9.501  0.2504 -0.0757 -0.0081
    2loPI   C2A   24   0.604  10.523   9.084 -0.0498  0.0991  0.1628
    2loPI   C3A   25   0.465  10.509   8.732  0.0198 -0.0144  0.2723
    2loPI   C4A   26   0.289  10.537   8.370  0.0027 -0.1091 -0.1090
    2loPI   C5A   27   0.064  10.716   8.078 -0.0243  0.0567  0.0382
    2loPI   C6A   28   0.132  10.811   7.677  0.0432 -0.3893  0.0422
    2loPI   C1B   29   0.792   9.751   9.584  0.0169 -0.0128  0.1134
    2loPI   C2B   30   0.768   9.654   9.159  0.1692 -0.1548  0.0926
    2loPI   C3B   31   0.771   9.663   8.825  0.2724  0.1014 -0.0689
    2loPI   C4B   32   0.798   9.511   8.466  0.2128  0.0669 -0.1659
    3loPI    C1   33  14.738  18.296  10.928  0.2370  0.1195 -0.0921
    3loPI    C2   34  15.127  18.278  11.018  0.2183  0.3807  0.0529
    3loPI    C3   35  14.854  18.237  11.307  0.1228 -0.2464 -0.1101
    3loPI   PO4   36  14.690  18.048  10.723  0.0631 -0.3815  0.1750
    3loPI   GL1   37  14.724  17.821  10.323  0.0000  0.1288 -0.1461
    3loPI   GL2   38  14.536  17.445  10.338  0.2674 -0.0468 -0.3490
    3loPI   C1A   39  14.373  17.811  10.040  0.0987  0.1339 -0.0157
    3loPI   C2A   40  13.993  17.863   9.824 -0.1541  0.0782  0.1213
    3loPI   C3A   41  13.773  17.877   9.568 -0.1879 -0.1247  0.1216
    3loPI   C4A   42  13.734  17.866   9.190  0.0559  0.1181  0.0282
    3loPI   C5A   43  13.778  17.762   8.772  0.0297  0.1363  0.0416
    3loPI   C6A   44  14.004  17.482   8.446  0.1648  0.0385 -0.2382
    3loPI   C1B   45  14.600  17.170   9.925  0.2593  0.0306  0.1448
    3loPI   C2B   46  14.804  17.057   9.563 -0.0141 -0.1032  0.2520
    3loPI   C3B   47  14.916  17.300   9.297 -0.2032  0.0562 -0.1240
    3loPI   C4B   48  14.642  17.525   9.024  0.3768 -0.0238  0.1363
    4loPI    C1   49  17.859   8.739  10.297  0.2263  0.1911  0.1846
    4loPI    C2   50  17.601   8.468  10.437  0.0304  0.2361 -0.0818
    4loPI    C3   51  17.958   8.512  10.612  0.0183 -0.1089  0.0387
    4loPI   PO4   52  17.695   8.832  10.052  0.2934 -0.0859 -0.1315
    4loPI   GL1   53  17.271   8.922   9.813  0.0142  0.3766 -0.0715
    4loPI   GL2   54  17.026   9.052   9.708 -0.1193  0.1810  0.0527
    4loPI   C1A   55  17.430   8.644   9.465  0.2114 -0.1126 -0.2125
    4loPI   C2A   56  17.344   8.725   8.995 -0.0286 -0.1061 -0.0644
    4loPI   C3A   57  17.087   8.617   8.610  0.1058  0.0205  0.0796
    4loPI   C4A   58  17.133   8.660   8.195 -0.0618  0.0152 -0.1139
    4loPI   C5A   59  16.838   8.443   7.802 -0.0288  0.0611  0.1697
    4loPI   C6A   60  16.552   8.675   7.494 -0.1990  0.0929  0.2506
    4loPI   C1B   61  17.058   9.128   9.301 -0.3994  0.2076  0.1564
    4loPI   C2B   62  17.018   9.116   8.774 -0.3051 -0.1730 -0.0140
    4loPI   C3B   63  16.871   9.099   8.418 -0.1517 -0.1361 -0.0941
    4loPI   C4B   64  16.712   8.837   8.041  0.1398  0.0600 -0.4701
    5loPI    C1   65   3.515  18.208  10.666 -0.0688  0.0311  0.1918
    5loPI    C2   66   3.260  18.443  10.864 -0.2136 -0.0974  0.1597
    5loPI    C3   67   3.615  18.353  11.025 -0.1568  0.1411  0.1724
    5loPI   PO4   68   3.396  18.229  10.420 -0.1367  0.2297 -0.1211
    5loPI   GL1   69   3.321  18.208   9.990  0.0215 -0.0102 -0.1605
    5loPI   GL2   70   3.065  18.408   9.897  0.0368 -0.0123  0.2080
    5loPI   C1A   71   3.040  17.936   9.771  0.1948 -0.1025  0.1351
    5loPI   C2A   72   2.957  17.865   9.445  0.0736  0.2264  0.1577
    5loPI   C3A   73   2.840  17.536   9.228  0.0961  0.0687 -0.0940
    5loPI   C4A   74   2.851  17.423   8.839  0.0804 -0.0030  0.4282
    5loPI   C5A   75   2.699  17.263   8.532  0.0319  0.1808  0.0494
    5loPI   C6A   76   2.337  17.271   8.231  0.3980 -0.1778 -0.0808
    5loPI   C1B   77   3.017  18.441   9.450  0.1086  0.0865 -0.1835
    5loPI   C2B   78   3.156  18.238   9.091 -0.0592  0.0709  0.3591
    5loPI   C3B   79   3.108  17.905   8.819  0.1414  0.4898 -0.0981
    5loPI   C4B   80   2.971  17.697   8.465 -0.2175  0.3466 -0.1593
    6loPI    C1   81   8.309  10.482   9.944  0.0912  0.0224 -0.2028
    6loPI    C2   82   8.044  10.383  10.227  0.3950 -0.1705  0.0194
    6loPI    C3   83   8.028  10.744  10.055  0.0822 -0.1263  0.1357
    6loPI   PO4   84   8.532  10.372  10.031 -0.0441  0.0546 -0.0030
    6loPI   GL1   85   8.730  10.151   9.724  0.2435  0.1995 -0.4733
    6loPI   GL2   86   9.012  10.304   9.624 -0.0106 -0.0590  0.1944
    6loPI   C1A   87   8.513   9.817   9.508 -0.1362  0.2088  0.1793
    6loPI   C2A   88   8.521   9.662   9.020 -0.1076 -0.2745 -0.1798
    6loPI   C3A   89   8.508   9.591   8.569 -0.0232  0.0238 -0.1605
    6loPI   C4A   90   8.519   9.870   8.271  0.1700  0.0882  0.0004
    6loPI   C5A   91   8.448  10.245   7.969 -0.0117  0.4226  0.0581
    6loPI   C6A   92   8.406  10.609   7.732  0.0519  0.1615  0.1575
    6loPI   C1B   93   8.860  10.370   9.177  0.3097 -0.3313 -0.2792
    6loPI   C2B   94   8.579  10.569   8.969 -0.4391  0.0802  0.1914
    6loPI   C3B   95   8.536  10.741   8.588 -0.0173 -0.0184  0.1527
    6loPI   C4B   96   8.668  10.855   8.132 -0.3463 -0.0654 -0.1534
    7loPI    C1   97   7.685   9.778  10.046 -0.0676  0.0256  0.0397
    7loPI    C2   98   7.380   9.916  10.265 -0.1736  0.0357 -0.1129
    7loPI    C3   99   7.336   9.583  10.048  0.0162 -0.1255  0.0911
    7loPI   PO4  100   7.741  10.058   9.965 -0.1855  0.0467 -0.3102
    7loPI   GL1  101   7.855  10.247   9.700 -0.2524  0.1255  0.0569
    7loPI   GL2  102   8.121  10.185   9.629  0.0188 -0.0436  0.2082
    7loPI   C1A  103   7.806  10.261   9.240  0.1512  0.0357 -0.0553
    7loPI   C2A  104   7.753  10.159   8.728  0.1413  0.0105 -0.1417
    7loPI   C3A  105   7.562  10.212   8.321 -0.0451  0.0443  0.0605
    7loPI   C4A  106   7.221  10.029   8.046  0.0277 -0.0273 -0.0353
    7loPI   C5A  107   7.096   9.915   7.711 -0.4027  0.0233 -0.3044
    7loPI   C6A  108   7.209   9.791   7.134  0.3159  0.1792 -0.0327
    7loPI   C1B  109   8.357  10.347   9.347  0.1850 -0.2316 -0.0513
    7loPI   C2B  110   8.333  10.121   9.036 -0.0158 -0.0241  0.2464
    7loPI   C3B  111   8.276  10.271   8.621 -0.0704 -0.0784  0.3464
    7loPI   C4B  112   8.057  10.195   8.268  0.1433  0.0961 -0.0258
    8loPI    C1  113  11.189  16.234  11.181  0.0696 -0.1233  0.1965
    8loPI    C2  114  11.006  15.932  10.994  0.0313 -0.0368  0.0929
    8loPI    C3  115  11.147  15.882  11.365 -0.2635 -0.0841  0.2020
    8loPI   PO4  116  11.387  16.244  10.883 -0.2882  0.1405  0.2196
    8loPI   GL1  117  11.524  15.923  10.483 -0.1705  0.1801  0.3210
    8loPI   GL2  118  11.203  15.945  10.531 -0.1067 -0.1883  0.1887
    8loPI   C1A  119  11.682  15.982  10.070 -0.0535 -0.1679 -0.1211
    8loPI   C2A  120  11.820  16.083   9.703 -0.0984 -0.1917 -0.0745
    8loPI   C3A  121  12.066  16.208   9.512  0.0037  0.3115  0.1474
    8loPI   C4A  122  12.286  16.378   9.265  0.3249  0.1850 -0.1461
    8loPI   C5A  123  12.439  16.630   8.894 -0.1669 -0.1621  0.1414
    8loPI   C6A  124  12.521  16.577   8.462  0.0670  0.1665 -0.2677
    8loPI   C1B  125  11.160  16.061  10.081  0.2948  0.1479 -0.0438
    8loPI   C2B  126  11.374  16.285   9.776 -0.0657 -0.1527  0.1442
    8loPI   C3B  127  11.342  16.519   9.436  0.3162  0.0131  0.1695
    8loPI   C4B  128  11.331  16.603   9.059 -0.1043  0.3171  0.2871
    9loPI    C1  129  13.047  10.331  10.409  0.0528  0.0687  0.0864
    9loPI    C2  130  12.865   9.976  10.423  0.1454  0.0220  0.1132
    9loPI    C3  131  13.256  10.003  10.502  0.1770  0.1028 -0.0682
    9loPI   PO4  132  12.901  10.416  10.137  0.1283  0.0359  0.0231
    9loPI   GL1  133  12.911  10.323   9.730  0.3677 -0.2733  0.2055
    9loPI   GL2  134  12.577  10.134   9.853 -0.2039  0.3264 -0.1793
    9loPI   C1A  135  13.077  10.481   9.322  0.2564  0.2890 -0.2076
    9loPI   C2A  136  13.293  10.688   9.015 -0.3052 -0.0704 -0.0449
    9loPI   C3A  137  13.103  10.651   8.625 -0.2762  0.0748  0.2480
    9loPI   C4A  138  13.052  10.797   8.122 -0.2796 -0.1929  0.2615
    9loPI   C5A  139  13.306  11.013   7.767 -0.0171 -0.2141  0.0907
    9loPI   C6A  140  13.341  11.411   7.647  0.4514 -0.0158 -0.0903
    9loPI   C1B  141  12.593  10.186   9.301  0.1562 -0.0786  0.1324
    9loPI   C2B  142  12.476  10.211   8.862 -0.1904 -0.1939 -0.3970
    9loPI   C3B  143  12.245  10.131   8.602 -0.1674  0.0507  0.2495
    9loPI   C4B  144  12.153   9.834   8.331 -0.1761  0.2819 -0.0655
   10loPI    C1  145   9.608   2.082  10.584 -0.0313  0.0073  0.0816
   10loPI    C2  146   9.325   1.852  10.748 -0.2163  0.1339 -0.0551
   10loPI    C3  147   9.538   2.100  10.977 -0.0827 -0.0995  0.0780
   10loPI   PO4  148   9.786   1.919  10.487  0.2945 -0.1461  0.4574
   10loPI   GL1  149  10.030   1.922  10.099 -0.0144  0.2525 -0.0622
   10loPI   GL2  150  10.354   2.059  10.075 -0.0981  0.1450 -0.1577
   10loPI   C1A  151   9.779   1.853   9.786  0.0815  0.1695 -0.1055
   10loPI   C2A  152   9.458   1.788   9.402  0.0702  0.2910 -0.1987
   10loPI   C3A  153   9.469   1.820   9.051  0.0002 -0.0223 -0.0363
   10loPI   C4A  154   9.741   1.740   8.664  0.0332 -0.0117 -0.3596
   10loPI   C5A  155   9.746   1.614   8.333 -0.0227 -0.2962 -0.0922
   10loPI   C6A  156   9.519   1.862   7.914 -0.1053 -0.1182  0.2217
   10loPI   C1B  157  10.295   2.109   9.662 -0.1487  0.0067 -0.0014
   10loPI   C2B  158  10.357   2.133   9.222 -0.1195 -0.1329 -0.2460
   10loPI   C3B  159  10.509   2.000   8.940 -0.5773  0.3077  0.1353
   10loPI   C4B  160  10.503   2.029   8.535 -0.2241 -0.0039  0.0115
   11loPI    C1  161   2.564  12.132  10.293  0.1476 -0.2848  0.1018
   11loPI    C2  162   2.568  12.455  10.530  0.0261 -0.3303  0.1666
   11loPI    C3  163   2.696  12.103  10.670  0.1879 -0.3047  0.0862
   11loPI   PO4  164   2.722  12.226  10.083  0.3045  0.0739 -0.0138
   11loPI   GL1  165   2.722  12.419   9.708  0.0102 -0.2016  0.3371
   11loPI   GL2  166   2.441  12.223   9.649 -0.3960 -0.0536  0.3208
   11loPI   C1A  167   2.834  12.424   9.336 -0.2333  0.1606  0.0876
   11loPI   C2A  168   2.892  12.764   9.170 -0.3339  0.1301  0.0384
   11loPI   C3A  169   2.965  12.873   8.783  0.0538 -0.1235  0.0675
   11loPI   C4A  170   3.137  12.710   8.424 -0.3602 -0.1605 -0.2997
   11loPI   C5A  171   3.208  12.592   8.118  0.0307  0.0425  0.0995
   11loPI   C6A  172   2.841  12.392   7.988  0.1761  0.0009 -0.3924
   11loPI   C1B  173   2.323  12.237   9.210 -0.0627 -0.0745  0.2317
   11loPI   C2B  174   2.172  12.020   8.875  0.0230  0.1004  0.3697
   11loPI   C3B  175   2.308  12.001   8.495  0.1936  0.0602 -0.0395
   11loPI   C4B  176   2.535  11.888   8.109 -0.2532  0.0382 -0.0857
   12loPI    C1  177  15.117   0.067  10.645 -0.1065 -0.1476  0.0761
   12loPI    C2  178  15.403   0.176  10.902 -0.1684 -0.1764  0.1573
   12loPI    C3  179  15.018   0.237  10.993 -0.1781  0.1787 -0.0985
   12loPI   PO4  180  15.273   0.220  10.399 -0.3330  0.1286  0.0620
   12loPI   GL1  181  15.538  -0.085  10.112  0.0345  0.2788 -0.0193
   12loPI   GL2  182  15.321   0.117   9.905  0.1639  0.3496  0.1543
   12loPI   C1A  183  15.809  -0.366   9.849 -0.1378 -0.1879  0.0051
   12loPI   C2A  184  15.737  -0.252   9.401  0.0453 -0.2068 -0.3448
   12loPI   C3A  185  15.913  -0.150   8.998  0.1065 -0.0223 -0.0281
   12loPI   C4A  186  15.675  -0.051   8.638 -0.0034 -0.0710  0.2384
   12loPI   C5A  187  15.723  -0.168   8.240 -0.2038 -0.2217 -0.1287
   12loPI   C6A  188  15.757  -0.407   7.881  0.0893  0.0144 -0.0332
   12loPI   C1B  189  15.336   0.009   9.508  0.1653  0.0919  0.0791
   12loPI   C2B  190  15.287  -0.098   9.032  0.0695 -0.2133 -0.2970
   12loPI   C3B  191  15.252  -0.355   8.645 -0.3102 -0.0567  0.1841
   12loPI   C4B  192  14.939  -0.644   8.517 -0.0635 -0.1538 -0.0940
   13loPI    C1  193   7.366   1.786  10.472  0.3340 -0.0765  0.0224
   13loPI    C2  194   7.318   1.517  10.764 -0.1094  0.0231  0.0485
   13loPI    C3  195   7.279   1.907  10.843 -0.2097  0.0521 -0.1376
   13loPI   PO4  196   7.654   1.612  10.260 -0.0330  0.1054  0.0832
   13loPI   GL1  197   7.866   1.269  10.008  0.1133  0.0709 -0.2128
   13loPI   GL2  198   7.918   1.450   9.731  0.2001  0.2614 -0.0276
   13loPI   C1A  199   7.610   0.991   9.655 -0.2502  0.0159 -0.0577
   13loPI   C2A  200   7.389   1.005   9.244  0.1854  0.2569 -0.1828
   13loPI   C3A  201   7.329   1.042   8.721 -0.1526 -0.0543 -0.2870
   13loPI   C4A  202   7.416   0.771   8.421 -0.2555 -0.3609  0.2370
   13loPI   C5A  203   7.664   0.464   8.168  0.0094 -0.0130  0.0199
   13loPI   C6A  204   7.840   0.456   7.707 -0.1864  0.4121  0.0373
   13loPI   C1B  205   7.941   1.479   9.328 -0.0056 -0.2283 -0.3392
   13loPI   C2B  206   8.113   1.653   8.920  0.0225  0.1264 -0.0195
   13loPI   C3B  207   7.948   1.912   8.498 -0.3421 -0.2223  0.1325
   13loPI   C4B  208   7.711   1.672   8.150  0.2014 -0.2791  0.0531
   14loPI    C1  209  14.594  13.863  10.643  0.1556 -0.1253  0.0996
   14loPI    C2  210  14.503  13.651  10.970 -0.2971  0.0273  0.0798
   14loPI    C3  211  14.435  14.045  10.963  0.0224  0.0821 -0.0814
   14loPI   PO4  212  14.481  13.793  10.435 -0.2166  0.1697  0.0299
   14loPI   GL1  213  14.430  14.072  10.185  0.1311  0.0685  0.0336
   14loPI   GL2  214  14.725  14.216   9.997  0.1012  0.0063 -0.0260
   14loPI   C1A  215  14.261  14.253   9.815  0.0419  0.0936  0.2300
   14loPI   C2A  216  14.283  14.337   9.356 -0.0696  0.0125 -0.1968
   14loPI   C3A  217  14.221  14.343   8.849  0.0615 -0.2413  0.0798
   14loPI   C4A  218  14.393  14.348   8.565 -0.1003  0.1687  0.4503
   14loPI   C5A  219  14.612  14.439   8.193  0.0828  0.3590  0.0867
   14loPI   C6A  220  14.861  14.432   7.780 -0.5411  0.0547  0.0387
   14loPI   C1B  221  14.758  14.216   9.469  0.0937 -0.1140  0.0999
   14loPI   C2B  222  14.950  14.118   9.086  0.3055  0.0628 -0.2138
   14loPI   C3B  223  14.918  14.016   8.635  0.2242  0.3259 -0.0335
   14loPI   C4B  224  14.903  13.925   8.217  0.1527 -0.0676 -0.0739
   15loPI    C1  225  12.869  12.943  10.767 -0.0662  0.2530 -0.1477
   15loPI    C2  226  12.719  13.001  11.133 -0.0283 -0.0390 -0.0832
   15loPI    C3  227  12.732  12.632  10.979  0.3527  0.0208 -0.2051
   15loPI   PO4  228  12.673  13.132  10.614  0.3214 -0.1790  0.3093
   15loPI   GL1  229  12.685  13.284  10.228  0.2337  0.1377  0.1255
   15loPI   GL2  230  12.646  12.977  10.109  0.1288  0.3603  0.1580
   15loPI   C1A  231  12.505  13.510   9.857  0.3813  0.0220  0.2288
   15loPI   C2A  232  12.470  13.764   9.539  0.1731  0.2837 -0.1719
   15loPI   C3A  233  12.177  13.925   9.205 -0.1323 -0.0535 -0.1440
   15loPI   C4A  234  12.150  13.928   8.769  0.3180 -0.2277  0.0049
   15loPI   C5A  235  11.945  14.052   8.309  0.2816 -0.0031  0.3431
   15loPI   C6A  236  11.725  14.041   7.881 -0.0812 -0.0573  0.0574
   15loPI   C1B  237  12.572  13.020   9.821 -0.0437 -0.2001 -0.0453
   15loPI   C2B  238  12.586  12.885   9.504  0.0913 -0.0118 -0.1090
   15loPI   C3B  239  12.726  12.968   9.177 -0.1479  0.0727  0.0402
   15loPI   C4B  240  12.996  12.926   8.786  0.0056 -0.1703 -0.4564
   16loPI    C1  241   9.602   8.069  10.573 -0.1528 -0.0417 -0.0618
   16loPI    C2  242   9.542   7.673  10.584 -0.2697 -0.0301 -0.2404
   16loPI    C3  243   9.913   7.818  10.556 -0.1824 -0.1134  0.3411
   16loPI   PO4  244   9.394   8.185  10.385 -0.1884  0.0360  0.0109
   16loPI   GL1  245   9.232   7.961   9.970 -0.0406 -0.0747 -0.0848
   16loPI   GL2  246   9.007   7.993   9.801  0.0221 -0.1595 -0.0620
   16loPI   C1A  247   9.327   8.372   9.774  0.1007  0.0635 -0.0344
   16loPI   C2A  248   9.301   8.260   9.277 -0.1294  0.2249  0.1800
   16loPI   C3A  249   9.546   8.065   8.964  0.0563  0.0547  0.2798
   16loPI   C4A  250   9.635   8.048   8.593 -0.1026 -0.0776 -0.3389
   16loPI   C5A  251   9.834   8.060   8.191 -0.1393  0.0306  0.2717
   16loPI   C6A  252   9.908   8.294   7.822  0.1289  0.4870 -0.0671
   16loPI   C1B  253   8.784   7.899   9.486  0.2261  0.1810  0.0086
   16loPI   C2B  254   8.449   7.638   9.527 -0.1715  0.2051  0.0481
   16loPI   C3B  255   8.309   7.317   9.256 -0.0781 -0.0802 -0.0225
   16loPI   C4B  256   8.121   7.462   8.878  0.0057 -0.3133  0.0850
   17loPI    C1  257  17.217   4.917  10.297  0.1998  0.0918 -0.1361
   17loPI    C2  258  17.433   4.595  10.397 -0.0611 -0.0938 -0.1605
   17loPI    C3  259  17.126   4.710  10.627  0.0613  0.1688 -0.1253
   17loPI   PO4  260  17.167   4.949  10.076 -0.1129 -0.0362  0.1564
   17loPI   GL1  261  17.066   4.798   9.695 -0.1730  0.0350 -0.0028
   17loPI   GL2  262  17.207   4.556   9.556  0.1929  0.2563 -0.1094
   17loPI   C1A  263  16.800   4.696   9.314  0.0776 -0.3513  0.2026
   17loPI   C2A  264  16.864   4.640   8.877  0.0837  0.0830  0.1560
   17loPI   C3A  265  16.934   4.839   8.524  0.3558 -0.2321 -0.1952
   17loPI   C4A  266  16.682   4.959   8.128  0.0811  0.4045  0.1524
   17loPI   C5A  267  16.552   5.033   7.734  0.0586 -0.2401 -0.0058
   17loPI   C6A  268  16.166   5.022   7.625  0.1043  0.2099  0.0550
   17loPI   C1B  269  17.534   4.513   9.182  0.0338 -0.0945  0.2857
   17loPI   C2B  270  17.721   4.491   8.809 -0.3248 -0.0890  0.1374
   17loPI   C3B  271  18.014   4.371   8.542 -0.1648 -0.0774 -0.1557
   17loPI   C4B  272  18.139   4.392   8.102  0.1014  0.0519 -0.1801
   18loPI    C1  273   3.480  16.165  10.829  0.1155  0.2788 -0.1802
   18loPI    C2  274   3.877  16.122  10.812  0.0994 -0.0033  0.0704
   18loPI    C3  275   3.709  16.299  11.129  0.0188  0.0419  0.0027
   18loPI   PO4  276   3.460  16.240  10.578  0.0093  0.0154  0.0230
   18loPI   GL1  277   3.526  16.163  10.211  0.0583  0.0299 -0.5179
   18loPI   GL2  278   3.677  15.877  10.089  0.0343  0.0081 -0.0207
   18loPI   C1A  279   3.426  16.384   9.827 -0.0872  0.4398 -0.0462
   18loPI   C2A  280   3.414  16.253   9.398  0.1980  0.2324 -0.3202
   18loPI   C3A  281   3.281  16.178   9.052 -0.0638  0.0163  0.0645
   18loPI   C4A  282   3.145  16.185   8.693 -0.2202 -0.1745  0.1769
   18loPI   C5A  283   3.406  16.308   8.368  0.1896 -0.0694  0.0687
   18loPI   C6A  284   3.443  16.263   7.929 -0.2678 -0.0270 -0.1515
   18loPI   C1B  285   3.754  15.996   9.654 -0.1330 -0.0475 -0.1830
   18loPI   C2B  286   3.768  16.030   9.159  0.1367 -0.1706 -0.0618
   18loPI   C3B  287   3.737  16.119   8.746  0.3086 -0.0299 -0.1289
   18loPI   C4B  288   4.074  16.190   8.400 -0.0490  0.0639 -0.0016
   19loPI    C1  289   8.934   7.751  10.346 -0.3326 -0.0915  0.0848
   19loPI    C2  290   9.053   7.537  10.663  0.0642  0.0355  0.0268
   19loPI    C3  291   9.083   7.936  10.668 -0.0470  0.0465 -0.1220
   19loPI   PO4  292   8.653   7.589  10.181 -0.0470  0.2483  0.0765
   19loPI   GL1  293   8.554   7.116  10.035 -0.0846  0.0347 -0.0073
   19loPI   GL2  294   8.193   7.143   9.968  0.2540 -0.4258  0.1329
   19loPI   C1A  295   8.561   7.136   9.616  0.0536  0.0145 -0.0014
   19loPI   C2A  296   8.801   6.999   9.272  0.0504 -0.0493 -0.3921
   19loPI   C3A  297   8.589   7.054   8.876 -0.1861 -0.2596 -0.0005
   19loPI   C4A  298   8.321   7.029   8.479  0.0569 -0.1256 -0.2389
   19loPI   C5A  299   8.255   6.779   8.137 -0.0660 -0.2458  0.0503
   19loPI   C6A  300   8.167   6.702   7.724  0.0835  0.2399 -0.0607
   19loPI   C1B  301   7.959   7.411   9.701  0.1217 -0.2759  0.0169
   19loPI   C2B  302   7.953   7.709   9.428 -0.0840 -0.2444 -0.0560
   19loPI   C3B  303   8.002   8.019   9.047  0.2548 -0.1175 -0.1628
   19loPI   C4B  304   8.117   7.921   8.634  0.1353 -0.1608 -0.2203
   20loPI    C1  305  15.723   7.268   9.767  0.1190 -0.2093 -0.1781
   20loPI    C2  306  15.407   7.162   9.989  0.2031 -0.1250 -0.0159
   20loPI    C3  307  15.740   6.940   9.996  0.2414 -0.0670  0.0205
   20loPI   PO4  308  15.634   7.527   9.574 -0.0289 -0.3524 -0.0265
   20loPI   GL1  309  15.374   7.710   9.182  0.1572  0.1048 -0.1054
   20loPI   GL2  310  15.606   7.962   9.199  0.2795  0.2172  0.0864
   20loPI   C1A  311  15.181   7.947   8.770  0.1977  0.0239 -0.3224
   20loPI   C2A  312  15.101   8.208   8.375  0.1613 -0.0569 -0.0300
   20loPI   C3A  313  15.362   8.246   7.993  0.1790  0.0718  0.2077
   20loPI   C4A  314  15.430   7.968   7.664 -0.3523 -0.0943  0.2012
   20loPI   C5A  315  15.293   7.884   7.289  0.2187  0.2259 -0.2595
   20loPI   C6A  316  15.287   8.024   6.964 -0.0994 -0.1774 -0.1410
   20loPI   C1B  317  15.696   8.101   8.774 -0.1261  0.1405  0.1205
   20loPI   C2B  318  15.613   7.957   8.492  0.1755  0.2741  0.0617
   20loPI   C3B  319  15.761   7.959   8.104 -0.0012 -0.1491  0.2223
   20loPI   C4B  320  16.011   8.051   7.748 -0.1839 -0.1000 -0.1616
   21loPI    C1  321  11.757   5.875  10.074 -0.2085 -0.0037  0.0797
   21loPI    C2  322  11.795   5.746  10.451 -0.0700  0.0421  0.0824
   21loPI    C3  323  11.996   6.069  10.330  0.0539 -0.0976 -0.0902
   21loPI   PO4  324  11.800   5.628   9.898  0.3573  0.0040  0.0688
   21loPI   GL1  325  12.093   5.382   9.656 -0.3950 -0.0312  0.2228
   21loPI   GL2  326  11.834   5.446   9.435 -0.1399 -0.1432 -0.1280
   21loPI   C1A  327  12.341   5.546   9.309  0.0579 -0.1172  0.0503
   21loPI   C2A  328  12.328   5.498   8.861  0.0710  0.3595 -0.0090
   21loPI   C3A  329  12.054   5.517   8.472 -0.0411 -0.2871  0.1587
   21loPI   C4A  330  12.060   5.740   8.051 -0.3036  0.1310  0.0966
   21loPI   C5A  331  12.344   5.913   7.747 -0.1355 -0.0476  0.2739
   21loPI   C6A  332  12.422   6.169   7.406  0.0163  0.0915 -0.1323
   21loPI   C1B  333  11.722   5.396   8.958  0.2280  0.2931 -0.0519
   21loPI   C2B  334  11.563   5.374   8.519  0.2399  0.1410 -0.1425
   21loPI   C3B  335  11.741   5.362   8.131 -0.1602 -0.0102 -0.1823
   21loPI   C4B  336  12.003   5.190   7.783 -0.0299 -0.0961 -0.0555
   22loPI    C1  337  14.009   1.213  10.743 -0.0841  0.1208 -0.1192
   22loPI    C2  338  14.369   1.251  10.573  0.0890  0.0922  0.2310
   22loPI    C3  339  14.283   0.924  10.786 -0.1802  0.0567  0.0723
   22loPI   PO4  340  13.910   1.407  10.577 -0.0473 -0.0243  0.0484
   22loPI   GL1  341  13.839   1.802  10.307  0.3416  0.0186  0.2900
   22loPI   GL2  342  13.558   1.673  10.229 -0.0054 -0.1809  0.1035
   22loPI   C1A  343  13.949   1.493   9.902 -0.2888  0.2122  0.4804
   22loPI   C2A  344  14.212   1.299   9.695 -0.1998  0.1610  0.5677
   22loPI   C3A  345  14.317   1.238   9.268 -0.1336  0.0296 -0.1119
   22loPI   C4A  346  14.301   1.299   8.875  0.0654  0.2423  0.4442
   22loPI   C5A  347  14.122   1.087   8.508  0.1194  0.0045  0.3006
   22loPI   C6A  348  13.921   1.174   8.105 -0.0114 -0.0381  0.2122
   22loPI   C1B  349  13.528   1.774   9.787  0.0473 -0.3453 -0.0415
   22loPI   C2B  350  13.535   1.906   9.386 -0.1116  0.2477 -0.0743
   22loPI   C3B  351  13.392   2.197   9.027 -0.0616  0.2456 -0.1900
   22loPI   C4B  352  13.512   2.425   8.607  0.0646  0.0925  0.3049
   23loPI    C1  353   7.132  10.943  10.156 -0.1564  0.1091 -0.1540
   23loPI    C2  354   7.117  10.719  10.487 -0.1322 -0.0114 -0.2337
   23loPI    C3  355   7.469  10.846  10.347 -0.1465  0.0836 -0.1843
   23loPI   PO4  356   6.936  10.966   9.982  0.1462 -0.1853  0.2552
   23loPI   GL1  357   6.833  11.231   9.599 -0.1212 -0.1035  0.0822
   23loPI   GL2  358   6.646  11.511   9.510  0.0212 -0.1320 -0.2179
   23loPI   C1A  359   6.978  11.250   9.218 -0.1049 -0.0392  0.0699
   23loPI   C2A  360   6.949  11.362   8.792  0.3413 -0.1972  0.0525
   23loPI   C3A  361   6.978  11.119   8.416  0.1218  0.1909 -0.1749
   23loPI   C4A  362   6.641  11.256   8.048  0.3560  0.1202 -0.1572
   23loPI   C5A  363   6.434  11.162   7.723 -0.2073  0.2276  0.0312
   23loPI   C6A  364   6.343  11.391   7.305  0.0341 -0.3271 -0.0381
   23loPI   C1B  365   6.510  11.291   9.123 -0.0685 -0.0161 -0.0420
   23loPI   C2B  366   6.404  11.338   8.735 -0.1495  0.3207 -0.2358
   23loPI   C3B  367   6.321  11.513   8.374  0.2979  0.1799 -0.0410
   23loPI   C4B  368   6.204  11.619   7.985  0.2179 -0.1499  0.4600
   24loPI    C1  369  15.906   8.245  10.131  0.0268 -0.0151 -0.1819
   24loPI    C2  370  15.565   8.242   9.922 -0.1189 -0.2708  0.0528
   24loPI    C3  371  15.870   8.009   9.811  0.0458  0.0814 -0.2555
   24loPI   PO4  372  15.836   8.526  10.279  0.0669  0.4575  0.1659
   24loPI   GL1  373  15.671   8.802  10.027  0.1099 -0.2467 -0.1822
   24loPI   GL2  374  15.461   9.171   9.913 -0.0616  0.1404  0.1344
   24loPI   C1A  375  15.652   8.775   9.594 -0.1740 -0.2828  0.2052
   24loPI   C2A  376  15.474   8.928   9.151 -0.0173  0.0351 -0.4803
   24loPI   C3A  377  15.320   9.138   8.751 -0.1571  0.2727 -0.1293
   24loPI   C4A  378  15.093   9.305   8.433  0.0400 -0.0342  0.1926
   24loPI   C5A  379  15.170   9.337   8.102 -0.3204 -0.0487 -0.0029
   24loPI   C6A  380  15.330   9.381   7.694  0.1381  0.1815  0.3132
   24loPI   C1B  381  15.605   9.344   9.506  0.1775 -0.3224 -0.0297
   24loPI   C2B  382  15.649   9.449   8.996  0.2984 -0.0101 -0.0527
   24loPI   C3B  383  15.619   9.426   8.511  0.0444  0.1132  0.0792
   24loPI   C4B  384  15.656   9.385   8.128  0.0064 -0.2004  0.1561
   25loPI    C1  385  10.658   4.965  10.211 -0.2953 -0.0851  0.2800
   25loPI    C2  386  10.453   5.299  10.293 -0.1074  0.1431 -0.1460
   25loPI    C3  387  10.718   5.157  10.557 -0.1313  0.3752  0.0060
   25loPI   PO4  388  10.756   5.014  10.030 -0.0233 -0.1353  0.1093
   25loPI   GL1  389  11.030   5.066   9.769 -0.1187  0.2353  0.0860
   25loPI   GL2  390  11.362   5.273   9.791  0.1313 -0.0544 -0.0179
   25loPI   C1A  391  10.940   5.021   9.326  0.0172 -0.1332  0.1080
   25loPI   C2A  392  10.961   4.814   8.899 -0.2556 -0.1408  0.2012
   25loPI   C3A  393  10.789   4.816   8.596 -0.0190 -0.1341 -0.2847
   25loPI   C4A  394  10.597   4.648   8.229  0.0560  0.1304 -0.0355
   25loPI   C5A  395  10.381   4.433   7.992  0.0790 -0.0303 -0.0523
   25loPI   C6A  396   9.954   4.323   7.953  0.3008  0.2154  0.3464
   25loPI   C1B  397  11.295   5.334   9.379  0.0121 -0.5302  0.0839
   25loPI   C2B  398  11.066   5.270   8.917  0.0073 -0.3405  0.2471
   25loPI   C3B  399  11.136   5.172   8.462  0.0908 -0.2097 -0.0062
   25loPI   C4B  400  10.890   5.092   8.112  0.1374 -0.1644  0.0745
   26loPI    C1  401   9.633  16.491  10.919  0.1776  0.0267  0.1374
   26loPI    C2  402   9.680  16.888  10.907 -0.0385  0.0478 -0.1126
   26loPI    C3  403   9.479  16.720  11.209  0.1508  0.1155  0.0537
   26loPI   PO4  404   9.795  16.460  10.653 -0.1432 -0.0724 -0.0037
   26loPI   GL1  405   9.750  16.518  10.205  0.1276 -0.1647  0.4069
   26loPI   GL2  406   9.915  16.633   9.950 -0.2611 -0.3404 -0.1889
   26loPI   C1A  407   9.727  16.156   9.801 -0.0678 -0.0553  0.1150
   26loPI   C2A  408   9.667  16.139   9.388 -0.0913 -0.0810  0.2074
   26loPI   C3A  409   9.615  15.991   9.017 -0.0433  0.2630 -0.0632
   26loPI   C4A  410   9.875  15.967   8.545 -0.0686  0.1599 -0.2545
   26loPI   C5A  411   9.934  15.933   8.076  0.1670  0.2535  0.1705
   26loPI   C6A  412   9.848  16.176   7.758  0.0338  0.0114 -0.0025
   26loPI   C1B  413   9.918  16.587   9.472 -0.1577  0.0857  0.1039
   26loPI   C2B  414   9.917  16.577   9.015  0.2086 -0.0515  0.3239
   26loPI   C3B  415   9.837  16.460   8.663  0.0361  0.0404 -0.1145
   26loPI   C4B  416   9.857  16.429   8.336  0.1443  0.2406 -0.0815
   27loPI    C1  417   1.228  10.219  10.495 -0.0607  0.2675 -0.1762
   27loPI    C2  418   0.960  10.271  10.786  0.0305 -0.0684 -0.0275
   27loPI    C3  419   1.320  10.442  10.814  0.0140 -0.0415  0.0217
   27loPI   PO4  420   1.100  10.181  10.302  0.4623  0.1825  0.0206
   27loPI   GL1  421   1.202  10.477   9.938  0.0842 -0.4178  0.0754
   27loPI   GL2  422   1.486  10.648   9.816  0.0252 -0.1745 -0.1465
   27loPI   C1A  423   1.346  10.227   9.557  0.1788  0.1409 -0.1730
   27loPI   C2A  424   1.011  10.127   9.232 -0.4087  0.0045  0.0023
   27loPI   C3A  425   0.908  10.245   8.857  0.0749  0.0307 -0.5630
   27loPI   C4A  426   0.882   9.999   8.385  0.1115 -0.0202 -0.1120
   27loPI   C5A  427   1.096  10.088   7.987 -0.1267  0.0878  0.1907
   27loPI   C6A  428   1.143  10.188   7.516 -0.0592  0.0684 -0.3226
   27loPI   C1B  429   1.533  10.779   9.473 -0.1621 -0.0310  0.1157
   27loPI   C2B  430   1.587  10.884   9.021 -0.2235 -0.0680 -0.0678
   27loPI   C3B  431   1.661  10.746   8.592  0.0092  0.3759 -0.0538
   27loPI   C4B  432   1.672  10.847   8.149  0.0331 -0.0374 -0.1414
   28loPI    C1  433  12.476   2.126  10.343 -0.1601 -0.2654  0.0122
   28loPI    C2  434  12.564   1.929  10.680 -0.0684  0.0302  0.1638
   28loPI    C3  435  12.321   2.247  10.691  0.0420  0.1230 -0.0276
   28loPI   PO4  436  12.601   2.059  10.216  0.0050 -0.0326 -0.0558
   28loPI   GL1  437  12.650   1.656   9.911  0.1529 -0.1450  0.2959
   28loPI   GL2  438  12.554   1.351   9.955 -0.1283 -0.2852  0.1640
   28loPI   C1A  439  12.617   1.489   9.470  0.2498 -0.0878 -0.0712
   28loPI   C2A  440  12.539   1.456   9.159 -0.0046 -0.0835  0.1540
   28loPI   C3A  441  12.663   1.588   8.767 -0.0095 -0.0173  0.2221
   28loPI   C4A  442  12.814   1.717   8.421 -0.3334 -0.4367  0.1323
   28loPI   C5A  443  12.664   1.773   7.959 -0.0379  0.1407  0.4799
   28loPI   C6A  444  12.396   1.645   7.612  0.1411 -0.0737  0.1409
   28loPI   C1B  445  12.268   1.223   9.631 -0.0351 -0.0795  0.2198
   28loPI   C2B  446  12.090   1.101   9.135 -0.0206 -0.1160 -0.0523
   28loPI   C3B  447  12.020   1.014   8.659  0.0410 -0.3088  0.1374
   28loPI   C4B  448  11.813   0.974   8.327  0.1376 -0.3359  0.2242
   29loPI    C1  449  18.233  17.119  10.807 -0.0288  0.0170  0.0722
   29loPI    C2  450  18.241  17.485  10.646 -0.2003  0.0104  0.0472
   29loPI    C3  451  17.964  17.392  10.921  0.0229 -0.0120  0.2680
   29loPI   PO4  452  18.293  16.981  10.554 -0.1243  0.3994  0.0678
   29loPI   GL1  453  18.309  17.045  10.155 -0.1946  0.0693 -0.1012
   29loPI   GL2  454  18.305  16.738  10.111 -0.1547 -0.1393  0.0548
   29loPI   C1A  455  18.199  17.143   9.740  0.0759  0.0555  0.0042
   29loPI   C2A  456  18.297  17.184   9.378  0.2167 -0.1088 -0.1093
   29loPI   C3A  457  18.270  17.309   9.005  0.2282  0.1412 -0.0100
   29loPI   C4A  458  18.124  17.351   8.605  0.3686 -0.0300  0.1316
   29loPI   C5A  459  18.047  17.381   8.249 -0.2435 -0.2276 -0.0345
   29loPI   C6A  460  18.240  17.384   7.835  0.1845 -0.0626 -0.2222
   29loPI   C1B  461  18.335  16.740   9.619  0.0375 -0.0977 -0.0637
   29loPI   C2B  462  18.239  16.698   9.171 -0.0113  0.1637 -0.1476
   29loPI   C3B  463  18.012  16.882   8.858 -0.1103 -0.0202  0.1966
   29loPI   C4B  464  17.622  17.010   8.539  0.1793 -0.2497 -0.0305
   30loPI    C1  465   4.164   4.447  10.210  0.0399  0.0746  0.1295
   30loPI    C2  466   4.020   4.758  10.415  0.3361  0.0665  0.3552
   30loPI    C3  467   4.062   4.403  10.594 -0.1330 -0.1471  0.0607
   30loPI   PO4  468   4.309   4.568  10.064  0.1366  0.0580 -0.4622
   30loPI   GL1  469   4.284   4.767   9.567  0.1116 -0.0680  0.2617
   30loPI   GL2  470   4.508   4.587   9.608 -0.1707 -0.4310  0.2080
   30loPI   C1A  471   3.974   5.015   9.345 -0.3553  0.4196 -0.1430
   30loPI   C2A  472   3.887   5.097   9.002 -0.0542 -0.0431 -0.4499
   30loPI   C3A  473   3.955   5.062   8.601 -0.2170  0.1201 -0.3959
   30loPI   C4A  474   3.863   4.911   8.206  0.1885  0.0941  0.0968
   30loPI   C5A  475   3.815   4.945   7.788 -0.0537 -0.2856  0.0795
   30loPI   C6A  476   3.580   5.012   7.424  0.1370 -0.1042 -0.0985
   30loPI   C1B  477   4.793   4.538   9.329  0.3273 -0.3482 -0.0276
   30loPI   C2B  478   4.667   4.358   8.921  0.2092 -0.0993 -0.0375
   30loPI   C3B  479   4.526   4.327   8.537 -0.0981  0.0215 -0.1001
   30loPI   C4B  480   4.810   4.320   8.162  0.2230 -0.1305  0.1134
   31loPI    C1  481  14.684  12.350  10.119 -0.0248 -0.0981 -0.0555
   31loPI    C2  482  14.798  12.388  10.500 -0.1611 -0.0353 -0.0203
   31loPI    C3  483  15.045  12.221  10.233 -0.1256 -0.2229  0.1275
   31loPI   PO4  484  14.634  12.563  10.057 -0.0364 -0.0314  0.0409
   31loPI   GL1  485  14.594  12.999   9.857  0.2522  0.1085  0.0691
   31loPI   GL2  486  14.737  12.709   9.606 -0.0398  0.2505 -0.0589
   31loPI   C1A  487  14.767  13.181   9.489  0.1896 -0.2538  0.0920
   31loPI   C2A  488  15.005  13.172   9.072  0.2282  0.0817 -0.0750
   31loPI   C3A  489  15.128  13.133   8.778  0.0332 -0.0942 -0.1225
   31loPI   C4A  490  15.241  13.009   8.375 -0.0835 -0.0521  0.0922
   31loPI   C5A  491  15.085  12.903   7.997  0.0589 -0.3375  0.4066
   31loPI   C6A  492  14.906  12.877   7.652 -0.0783 -0.1256  0.0706
   31loPI   C1B  493  14.676  12.795   9.180  0.1304  0.1030 -0.0888
   31loPI   C2B  494  14.781  12.731   8.774  0.1336 -0.0616 -0.1044
   31loPI   C3B  495  14.925  12.642   8.437  0.0197  0.2604 -0.2099
   31loPI   C4B  496  14.722  12.501   8.057  0.2929 -0.0875  0.0836
   32loPI    C1  497   4.135   3.966  10.182 -0.2544  0.0037 -0.0886
   32loPI    C2  498   3.829   3.923  10.436 -0.0545 -0.2112  0.1214
   32loPI    C3  499   4.206   3.901  10.571  0.0545 -0.1922 -0.1733
   32loPI   PO4  500   4.186   3.690   9.991  0.3227  0.3657 -0.1201
   32loPI   GL1  501   4.183   3.561   9.571 -0.0312 -0.0118 -0.0433
   32loPI   GL2  502   3.900   3.780   9.525 -0.1125 -0.1329 -0.0375
   32loPI   C1A  503   4.261   3.564   9.151 -0.1794  0.3653 -0.0205
   32loPI   C2A  504   4.589   3.774   8.833  0.0793 -0.1601  0.2705
   32loPI   C3A  505   4.850   3.799   8.507 -0.0034  0.1478  0.1679
   32loPI   C4A  506   4.912   3.364   8.194  0.2213  0.1645 -0.0297
   32loPI   C5A  507   4.901   3.285   7.746  0.1307 -0.2238 -0.2037
   32loPI   C6A  508   4.908   3.259   7.334  0.2633  0.0194 -0.1242
   32loPI   C1B  509   3.840   3.806   9.101  0.0033 -0.0473  0.1878
   32loPI   C2B  510   4.015   3.559   8.719  0.1426 -0.2605  0.2594
   32loPI   C3B  511   4.371   3.652   8.371 -0.2380  0.1171  0.1261
   32loPI   C4B  512   4.661   3.824   8.059  0.0993 -0.0409  0.0533
   33loPI    C1  513   2.919  16.872  10.924  0.0937  0.0847  0.0466
   33loPI    C2  514   2.842  17.252  11.022 -0.0534  0.1359 -0.2565
   33loPI    C3  515   2.958  16.992  11.303 -0.1662  0.3507 -0.0076
   33loPI   PO4  516   2.968  16.893  10.599  0.2977  0.2820  0.2292
   33loPI   GL1  517   2.883  16.986  10.175  0.1546 -0.0931  0.0584
   33loPI   GL2  518   2.484  17.024  10.075 -0.0053  0.0827 -0.4302
   33loPI   C1A  519   3.042  16.970   9.730  0.3529  0.0858 -0.1308
   33loPI   C2A  520   3.155  17.169   9.312 -0.0706  0.0894 -0.1434
   33loPI   C3A  521   3.177  17.056   8.838 -0.0459  0.5802  0.3316
   33loPI   C4A  522   3.274  17.039   8.456  0.1856 -0.0913 -0.1034
   33loPI   C5A  523   3.449  16.713   8.122 -0.0457 -0.2062  0.4414
   33loPI   C6A  524   3.513  16.731   7.721  0.1587  0.0874 -0.1270
   33loPI   C1B  525   2.477  16.788   9.762  0.1467  0.1286  0.0789
   33loPI   C2B  526   2.113  16.600   9.371  0.0456 -0.0218  0.1281
   33loPI   C3B  527   2.051  16.515   8.988 -0.0948 -0.2904 -0.1536
   33loPI   C4B  528   2.163  16.535   8.607 -0.1201  0.1141 -0.0497
   34loPI    C1  529   2.600  18.113  10.642  0.0481 -0.1050 -0.0263
   34loPI    C2  530   2.632  18.005  11.026  0.0400  0.0836  0.0287
   34loPI    C3  531   2.672  17.731  10.737  0.4530  0.0086  0.1491
   34loPI   PO4  532   2.373  18.192  10.603  0.0725  0.0991  0.1109
   34loPI   GL1  533   2.184  17.986  10.381  0.0935 -0.0576  0.1465
   34loPI   GL2  534   1.933  17.935  10.525 -0.2137 -0.3871  0.2418
   34loPI   C1A  535   2.122  17.866   9.960 -0.1296 -0.3763  0.0972
   34loPI   C2A  536   2.078  18.057   9.589  0.0078  0.2529 -0.3560
   34loPI   C3A  537   2.078  17.998   9.139  0.4231  0.1525 -0.0443
   34loPI   C4A  538   2.102  18.073   8.662 -0.0444  0.2781 -0.1380
   34loPI   C5A  539   1.965  18.403   8.516 -0.2523 -0.0811 -0.0269
   34loPI   C6A  540   1.626  18.408   8.214 -0.0177 -0.2469  0.0177
   34loPI   C1B  541   1.685  17.995  10.118  0.2361 -0.2469 -0.2793
   34loPI   C2B  542   1.597  18.068   9.706  0.2507  0.1746  0.1433
   34loPI   C3B  543   1.382  17.978   9.413 -0.0261 -0.2026 -0.2670
   34loPI   C4B  544   1.178  18.230   9.140  0.1277 -0.0414  0.0213
   35loPI    C1  545   6.612  12.671  10.376  0.0283 -0.4913  0.3044
   35loPI    C2  546   6.263  12.814  10.242  0.3421 -0.1530 -0.1863
   35loPI    C3  547   6.355  12.428  10.190  0.0893 -0.2205 -0.1481
   35loPI   PO4  548   6.792  12.808  10.290  0.3010  0.1702 -0.1726
   35loPI   GL1  549   6.811  13.131   9.985  0.1809 -0.0186 -0.0540
   35loPI   GL2  550   6.983  13.305   9.778 -0.0238 -0.1002 -0.1504
   35loPI   C1A  551   6.524  13.419   9.778  0.1948 -0.0062  0.1574
   35loPI   C2A  552   6.384  13.238   9.336  0.1607 -0.0013 -0.3351
   35loPI   C3A  553   6.387  13.261   8.911  0.2770 -0.2987  0.1234
   35loPI   C4A  554   6.354  13.508   8.652  0.0589 -0.0106 -0.0949
   35loPI   C5A  555   6.443  14.032   8.589  0.2078  0.2965 -0.0852
   35loPI   C6A  556   6.684  14.274   8.651 -0.0453 -0.0222  0.2979
   35loPI   C1B  557   6.914  13.249   9.409 -0.1575 -0.0398 -0.0635
   35loPI   C2B  558   6.935  13.309   8.969 -0.1982 -0.1316  0.0462
   35loPI   C3B  559   6.843  13.349   8.583 -0.2107 -0.2262 -0.0215
   35loPI   C4B  560   6.997  13.404   8.158  0.0347  0.0337 -0.0190
   36loPI    C1  561  16.225   9.440  10.245  0.0919 -0.3771 -0.1496
   36loPI    C2  562  15.876   9.262  10.167  0.0755 -0.2569 -0.3565
   36loPI    C3  563  15.938   9.641  10.053  0.1332 -0.1481  0.0236
   36loPI   PO4  564  16.393   9.296  10.292 -0.0703 -0.0562 -0.2144
   36loPI   GL1  565  16.794   9.425   9.997 -0.0586  0.1308 -0.1210
   36loPI   GL2  566  16.992   9.606   9.734 -0.2219  0.1420 -0.0460
   36loPI   C1A  567  16.619   9.317   9.567  0.2061  0.1569 -0.0539
   36loPI   C2A  568  16.502   9.336   9.060  0.0874  0.0341  0.2345
   36loPI   C3A  569  16.501   9.308   8.693 -0.2348 -0.0134  0.2163
   36loPI   C4A  570  16.358   9.038   8.335 -0.0362  0.1708  0.1047
   36loPI   C5A  571  16.066   8.905   8.141 -0.4122  0.1521  0.1750
   36loPI   C6A  572  16.107   8.811   7.755 -0.2467 -0.0506  0.0409
   36loPI   C1B  573  16.903   9.578   9.266  0.0709 -0.0933 -0.1183
   36loPI   C2B  574  17.042   9.631   8.877  0.0336  0.1040  0.0402
   36loPI   C3B  575  17.013   9.611   8.507 -0.2654  0.2399 -0.4517
   36loPI   C4B  576  17.166   9.689   8.188  0.2059 -0.1636 -0.0717
   37loPI    C1  577   6.155  11.951  10.206 -0.0724 -0.0391 -0.0819
   37loPI    C2  578   5.834  11.766  10.357 -0.0248 -0.0863 -0.0385
   37loPI    C3  579   6.185  11.575  10.339 -0.0107 -0.0520 -0.1320
   37loPI   PO4  580   6.124  11.983  10.010  0.0172 -0.1548 -0.1258
   37loPI   GL1  581   6.171  11.671   9.694 -0.0307  0.2250 -0.2420
   37loPI   GL2  582   6.287  11.797   9.586  0.2621  0.0541  0.1950
   37loPI   C1A  583   6.074  11.574   9.225 -0.1650 -0.0629 -0.1549
   37loPI   C2A  584   6.417  11.795   8.961  0.0322  0.2643 -0.1847
   37loPI   C3A  585   6.604  11.845   8.581 -0.2823 -0.1004 -0.2660
   37loPI   C4A  586   6.838  11.719   8.383 -0.2610 -0.0928 -0.0213
   37loPI   C5A  587   7.168  11.650   8.109 -0.0742 -0.0912 -0.1015
   37loPI   C6A  588   7.323  11.476   7.702  0.3631 -0.0843  0.2533
   37loPI   C1B  589   6.189  12.193   9.213 -0.0376 -0.2887  0.1532
   37loPI   C2B  590   6.115  12.261   8.771  0.2876 -0.1218 -0.0993
   37loPI   C3B  591   6.120  12.071   8.325 -0.1951 -0.2014 -0.1943
   37loPI   C4B  592   6.122  12.212   7.970 -0.0100  0.2354 -0.3106
   38loPI    C1  593   7.362  13.311  10.595 -0.1831  0.0218  0.1218
   38loPI    C2  594   7.207  13.460  10.259 -0.0419 -0.0000  0.0460
   38loPI    C3  595   6.979  13.242  10.505 -0.0853 -0.1816 -0.1521
   38loPI   PO4  596   7.580  13.178  10.525 -0.1433  0.3160  0.1652
   38loPI   GL1  597   7.773  13.115  10.090  0.1881 -0.3677 -0.2772
   38loPI   GL2  598   7.529  13.182   9.972  0.2021  0.0632  0.2945
   38loPI   C1A  599   8.039  13.318   9.787  0.1498  0.2880 -0.0732
   38loPI   C2A  600   7.895  13.647   9.547  0.0478  0.0449 -0.0269
   38loPI   C3A  601   7.867  13.818   9.199 -0.1404  0.1970  0.2102
   38loPI   C4A  602   8.018  14.215   8.976  0.3812  0.1368 -0.1135
   38loPI   C5A  603   8.105  14.199   8.557 -0.2090 -0.2022  0.3107
   38loPI   C6A  604   8.092  14.058   8.085  0.1458  0.0457 -0.1428
   38loPI   C1B  605   7.673  13.252   9.523  0.1838 -0.0764  0.0154
   38loPI   C2B  606   7.819  13.308   9.121 -0.2176 -0.1464 -0.0531
   38loPI   C3B  607   8.129  13.244   8.842 -0.2246  0.0137 -0.2019
   38loPI   C4B  608   8.517  13.103   8.867  0.2380 -0.0453  0.1698
   39loPI    C1  609  18.053  15.397  10.600  0.1052  0.0969 -0.0691
   39loPI    C2  610  18.270  15.724  10.677  0.1170  0.0530  0.0893
   39loPI    C3  611  18.201  15.458  10.967 -0.1149  0.0458  0.0297
   39loPI   PO4  612  17.903  15.537  10.421  0.0109  0.0126 -0.4135
   39loPI   GL1  613  17.739  15.732  10.005  0.0117  0.2042  0.1158
   39loPI   GL2  614  17.446  15.847   9.932  0.2689 -0.1024 -0.2349
   39loPI   C1A  615  17.964  15.832   9.577  0.1746 -0.0197  0.6100
   39loPI   C2A  616  18.134  15.877   9.113 -0.0582 -0.1217  0.2631
   39loPI   C3A  617  18.016  15.733   8.759  0.1453 -0.0716  0.0891
   39loPI   C4A  618  18.046  15.644   8.356  0.0889  0.1374 -0.0752
   39loPI   C5A  619  17.974  15.168   8.151 -0.0613 -0.1713 -0.1336
   39loPI   C6A  620  17.808  15.030   7.837  0.1399 -0.2103  0.3413
   39loPI   C1B  621  17.398  15.845   9.512 -0.3152  0.0866  0.1303
   39loPI   C2B  622  17.245  15.808   9.152  0.2424 -0.1194  0.3652
   39loPI   C3B  623  17.108  15.825   8.895 -0.0247 -0.3744  0.0699
   39loPI   C4B  624  16.765  15.753   8.785  0.1213  0.2768  0.2114
   40loPI    C1  625  11.187  13.617  10.838 -0.1168 -0.2550  0.1961
   40loPI    C2  626  11.031  13.253  10.897 -0.3381 -0.1389  0.3420
   40loPI    C3  627  11.241  13.431  11.188 -0.1906 -0.1678  0.2543
   40loPI   PO4  628  11.176  13.661  10.512  0.2293 -0.0328  0.0586
   40loPI   GL1  629  11.341  13.827  10.202 -0.1850  0.0101 -0.1907
   40loPI   GL2  630  11.379  13.499  10.074  0.0635  0.2236 -0.1666
   40loPI   C1A  631  11.336  14.142   9.980  0.0019 -0.3619  0.1273
   40loPI   C2A  632  11.169  14.260   9.569  0.1779 -0.0786  0.0402
   40loPI   C3A  633  11.285  14.011   9.223  0.1522  0.1387  0.4051
   40loPI   C4A  634  11.444  14.001   8.752 -0.1041 -0.0899  0.3721
   40loPI   C5A  635  11.330  14.061   8.283  0.1875  0.0824  0.3488
   40loPI   C6A  636  11.112  14.281   8.067  0.0817 -0.0749 -0.0032
   40loPI   C1B  637  11.052  13.208   9.802  0.4188 -0.0165  0.0866
   40loPI   C2B  638  10.964  13.119   9.252 -0.1825 -0.2368 -0.2046
   40loPI   C3B  639  10.876  13.434   8.876  0.3744  0.0494  0.0018
   40loPI   C4B  640  11.124  13.593   8.485 -0.1410  0.0272 -0.2419
   41loPI    C1  641   1.385  16.500  10.751  0.0687 -0.0961 -0.3614
   41loPI    C2  642   1.516  16.222  10.496 -0.2474 -0.2296 -0.3830
   41loPI    C3  643   1.506  16.144  10.888 -0.0899 -0.1515 -0.3628
   41loPI   PO4  644   1.519  16.740  10.625 -0.2474 -0.2864 -0.2381
   41loPI   GL1  645   1.396  16.870  10.286  0.2105  0.0933 -0.0533
   41loPI   GL2  646   1.650  16.575  10.156 -0.0778 -0.0816 -0.0558
   41loPI   C1A  647   1.360  17.189   9.948 -0.0883  0.0017 -0.1011
   41loPI   C2A  648   1.169  17.314   9.598  0.1846 -0.0983  0.1248
   41loPI   C3A  649   1.370  17.484   9.248 -0.2602  0.2050 -0.0241
   41loPI   C4A  650   1.443  17.450   8.833 -0.0453 -0.2245  0.1677
   41loPI   C5A  651   1.551  17.265   8.417 -0.0437 -0.2884 -0.1538
   41loPI   C6A  652   1.315  17.011   8.143 -0.1940 -0.0118 -0.0199
   41loPI   C1B  653   2.117  16.469   9.902 -0.4092  0.1919  0.2644
   41loPI   C2B  654   2.149  16.162   9.687  0.1311 -0.3264 -0.1510
   41loPI   C3B  655   1.766  16.191   9.307  0.2853 -0.0059  0.0904
   41loPI   C4B  656   1.593  16.219   8.909 -0.2105 -0.1038  0.0179
   42loPI    C1  657   2.101  16.969  10.981  0.1375  0.0762  0.1224
   42loPI    C2  658   2.443  16.932  11.185  0.2018  0.3244  0.0630
   42loPI    C3  659   2.152  16.662  11.231  0.3035  0.2547  0.3117
   42loPI   PO4  660   2.036  16.968  10.731  0.0761 -0.0011 -0.0069
   42loPI   GL1  661   1.865  17.081  10.385 -0.1341 -0.2855 -0.1648
   42loPI   GL2  662   1.787  17.487  10.269  0.1878 -0.0153 -0.2623
   42loPI   C1A  663   1.980  16.993   9.920 -0.1602  0.2171 -0.1125
   42loPI   C2A  664   1.741  17.057   9.521  0.2748 -0.0318  0.1660
   42loPI   C3A  665   1.699  17.130   9.106  0.3070  0.4123 -0.0016
   42loPI   C4A  666   1.669  16.967   8.740 -0.0080  0.0283  0.0406
   42loPI   C5A  667   1.646  16.561   8.582  0.0860 -0.1138  0.2261
   42loPI   C6A  668   1.842  16.164   8.390 -0.0996  0.0385 -0.1123
   42loPI   C1B  669   1.736  17.529   9.736  0.4160 -0.1575 -0.2401
   42loPI   C2B  670   1.865  17.602   9.341 -0.0956  0.4066  0.1528
   42loPI   C3B  671   1.972  17.593   8.876 -0.0567 -0.4244  0.1084
   42loPI   C4B  672   1.994  17.500   8.476 -0.1360 -0.4112  0.2112
   43loPI    C1  673  12.926  16.531  10.940  0.3328  0.0679  0.1913
   43loPI    C2  674  13.210  16.330  11.138  0.0949 -0.3175  0.1526
   43loPI    C3  675  12.968  16.580  11.335  0.3470 -0.1172  0.2140
   43loPI   PO4  676  12.933  16.474  10.722 -0.0714 -0.0812  0.2282
   43loPI   GL1  677  12.769  16.443  10.421 -0.2541 -0.0397  0.0641
   43loPI   GL2  678  13.087  16.401  10.288  0.1719  0.0203  0.1528
   43loPI   C1A  679  12.671  16.423  10.003 -0.1511  0.1218  0.0266
   43loPI   C2A  680  12.627  16.282   9.605  0.0018  0.0113 -0.0234
   43loPI   C3A  681  12.653  16.042   9.290  0.1172 -0.1738  0.1148
   43loPI   C4A  682  12.872  15.819   9.071  0.0560  0.0627 -0.0660
   43loPI   C5A  683  13.204  15.918   8.918 -0.4083 -0.0368  0.2002
   43loPI   C6A  684  13.477  16.090   8.441  0.1937 -0.1557  0.1686
   43loPI   C1B  685  13.216  16.431   9.865 -0.0820  0.0514  0.2378
   43loPI   C2B  686  13.543  16.455   9.517 -0.0131  0.2576  0.1392
   43loPI   C3B  687  13.592  16.369   9.115 -0.0847  0.3022 -0.0955
   43loPI   C4B  688  13.427  16.487   8.715  0.0573 -0.1273  0.0309
   44loPI    C1  689  10.627  14.550  11.094  0.1507 -0.2324 -0.0693
   44loPI    C2  690  10.270  14.456  11.249  0.0293  0.0226 -0.1898
   44loPI    C3  691  10.605  14.354  11.442 -0.1116 -0.0690  0.0087
   44loPI   PO4  692  10.690  14.518  10.881 -0.0685  0.1654  0.0145
   44loPI   GL1  693  10.653  14.567  10.481  0.3254 -0.0616  0.0059
   44loPI   GL2  694  10.480  14.395  10.185  0.1377  0.1361 -0.0562
   44loPI   C1A  695  10.883  14.608  10.036  0.0098  0.0458  0.0308
   44loPI   C2A  696  10.877  14.690   9.597  0.0094 -0.2213 -0.1102
   44loPI   C3A  697  10.767  14.673   9.190 -0.3009 -0.2149 -0.2319
   44loPI   C4A  698  10.579  15.008   8.862 -0.1496 -0.0847  0.0992
   44loPI   C5A  699  10.418  14.750   8.534  0.1328 -0.1073 -0.2806
   44loPI   C6A  700  10.193  14.650   8.120  0.1718 -0.0067 -0.2802
   44loPI   C1B  701  10.460  14.406   9.738 -0.2221 -0.1906 -0.1131
   44loPI   C2B  702  10.328  14.553   9.457  0.2473 -0.0014  0.0475
   44loPI   C3B  703  10.272  14.682   8.988  0.1489  0.0538  0.3138
   44loPI   C4B  704  10.017  14.575   8.776  0.0232  0.0817 -0.1616
   45loPI    C1  705  15.235   3.799  10.435 -0.0142  0.1093 -0.0331
   45loPI    C2  706  15.293   4.123  10.207  0.0213  0.1620  0.0506
   45loPI    C3  707  15.522   4.061  10.529 -0.0512  0.1055  0.0916
   45loPI   PO4  708  15.234   3.582  10.256 -0.1135 -0.0386  0.0945
   45loPI   GL1  709  15.014   3.620   9.848 -0.3160  0.0228  0.0170
   45loPI   GL2  710  14.764   3.823  10.095  0.0597  0.0635  0.0973
   45loPI   C1A  711  14.876   3.697   9.427  0.2066 -0.1377 -0.3820
   45loPI   C2A  712  14.610   3.630   9.093 -0.0952 -0.1230  0.2196
   45loPI   C3A  713  14.658   3.610   8.548  0.4379  0.4630  0.0992
   45loPI   C4A  714  14.257   3.593   8.295  0.0787  0.1284  0.2164
   45loPI   C5A  715  14.127   3.450   7.919 -0.1175 -0.1238  0.1946
   45loPI   C6A  716  13.814   3.704   7.679  0.1801  0.0692  0.4330
   45loPI   C1B  717  14.437   3.809   9.617 -0.1499  0.5305  0.3034
   45loPI   C2B  718  14.252   3.391   9.610  0.1221  0.1957 -0.2316
   45loPI   C3B  719  14.225   3.215   9.165 -0.2509 -0.0489 -0.0399
   45loPI   C4B  720  14.214   3.396   8.722  0.0231 -0.1190  0.1845
   46loPI    C1  721   1.825  12.067  10.509  0.0350  0.0290 -0.2450
   46loPI    C2  722   2.168  12.152  10.697  0.0543 -0.4126 -0.0701
   46loPI    C3  723   1.826  12.136  10.903 -0.0474 -0.1415 -0.2141
   46loPI   PO4  724   1.960  12.170  10.206  0.0445  0.0956 -0.0039
   46loPI   GL1  725   1.836  11.980   9.754  0.0314 -0.0629  0.0292
   46loPI   GL2  726   1.977  12.248   9.689 -0.0229  0.0081 -0.1469
   46loPI   C1A  727   1.456  11.834   9.544  0.0769  0.0165  0.0822
   46loPI   C2A  728   1.314  11.657   9.143  0.0009 -0.1769 -0.0367
   46loPI   C3A  729   1.251  11.714   8.782  0.1602 -0.0386  0.1390
   46loPI   C4A  730   1.426  11.856   8.259  0.0813  0.1061  0.0271
   46loPI   C5A  731   1.645  11.891   7.969 -0.1310  0.0128  0.1854
   46loPI   C6A  732   1.943  11.819   7.623  0.2506 -0.0105  0.0242
   46loPI   C1B  733   1.834  12.502   9.348 -0.3698  0.1185 -0.0620
   46loPI   C2B  734   1.976  12.476   8.897  0.5020  0.1237 -0.2806
   46loPI   C3B  735   2.041  12.427   8.520 -0.2750 -0.0860  0.1223
   46loPI   C4B  736   1.872  12.230   8.139 -0.0271  0.1108  0.2991
   47loPI    C1  737  16.139   0.578  10.704 -0.1783 -0.3168 -0.0471
   47loPI    C2  738  16.362   0.867  10.867 -0.1373 -0.1655 -0.3631
   47loPI    C3  739  16.339   0.508  11.044 -0.1670  0.0187  0.0179
   47loPI   PO4  740  16.255   0.505  10.409  0.0454 -0.0511 -0.0427
   47loPI   GL1  741  16.099   0.219  10.207  0.0323  0.1230  0.1050
   47loPI   GL2  742  16.093  -0.098  10.295 -0.1253 -0.1258  0.0388
   47loPI   C1A  743  15.861   0.170   9.801 -0.0618  0.1047 -0.4854
   47loPI   C2A  744  15.880   0.274   9.311 -0.3167  0.1800 -0.2166
   47loPI   C3A  745  15.849   0.401   8.928 -0.0432 -0.0472  0.2256
   47loPI   C4A  746  16.088   0.613   8.660 -0.1696 -0.0378 -0.1505
   47loPI   C5A  747  16.049   0.983   8.361  0.0164 -0.1339  0.0552
   47loPI   C6A  748  16.323   1.297   8.232  0.1597  0.2079  0.1755
   47loPI   C1B  749  16.301  -0.155   9.877 -0.2876  0.1033 -0.2031
   47loPI   C2B  750  16.259  -0.092   9.440 -0.0989 -0.1758 -0.0968
   47loPI   C3B  751  16.518  -0.184   9.062 -0.1041  0.0372  0.1071
   47loPI   C4B  752  16.838   0.009   8.881  0.0010  0.2869  0.1412
   48loPI    C1  753   6.428   7.887  10.484  0.2217  0.0338 -0.0545
   48loPI    C2  754   6.593   8.242  10.564 -0.0323  0.1537 -0.0529
   48loPI    C3  755   6.324   8.085  10.815 -0.0935  0.0686 -0.1705
   48loPI   PO4  756   6.564   7.857  10.224 -0.0634 -0.0320 -0.1927
   48loPI   GL1  757   6.460   7.693   9.846 -0.5002 -0.2123  0.2672
   48loPI   GL2  758   6.416   8.027   9.818  0.0897 -0.0876  0.1610
   48loPI   C1A  759   6.432   7.738   9.447  0.0198  0.2035  0.1704
   48loPI   C2A  760   6.295   7.989   9.150 -0.1604 -0.1839  0.1962
   48loPI   C3A  761   6.387   8.014   8.708 -0.1154  0.0092 -0.2282
   48loPI   C4A  762   6.376   8.100   8.333 -0.0762 -0.0912  0.3522
   48loPI   C5A  763   6.418   7.963   7.865  0.0867 -0.1069  0.0372
   48loPI   C6A  764   6.208   7.807   7.535  0.0034  0.0822  0.0235
   48loPI   C1B  765   6.412   8.384   9.451 -0.1389 -0.0691  0.2046
   48loPI   C2B  766   6.555   8.417   8.974 -0.1073  0.3292 -0.0477
   48loPI   C3B  767   6.406   8.646   8.550 -0.1806 -0.1052 -0.1147
   48loPI   C4B  768   6.191   8.941   8.339  0.3010  0.0535  0.1029
   49loPI    C1  769  16.753  10.393  10.192  0.1950  0.1485 -0.0907
   49loPI    C2  770  16.568  10.714  10.341  0.1268  0.0142  0.1197
   49loPI    C3  771  16.537  10.362  10.528  0.3317 -0.0802 -0.0213
   49loPI   PO4  772  17.020  10.501  10.212  0.0374 -0.1642  0.1495
   49loPI   GL1  773  17.271  10.624   9.944  0.1337 -0.1465 -0.1406
   49loPI   GL2  774  17.313  10.937   9.762  0.1272 -0.0573 -0.0397
   49loPI   C1A  775  17.086  10.588   9.456  0.0156  0.0313  0.0455
   49loPI   C2A  776  17.014  10.588   9.050 -0.0154 -0.0787  0.0687
   49loPI   C3A  777  16.926  10.680   8.543  0.0616  0.0150  0.1958
   49loPI   C4A  778  17.051  10.476   8.111  0.1932 -0.2118 -0.1224
   49loPI   C5A  779  16.769  10.362   7.829  0.2817  0.0188 -0.1700
   49loPI   C6A  780  16.489  10.211   7.422  0.0874 -0.1257 -0.2000
   49loPI   C1B  781  17.399  10.926   9.423  0.2716  0.3230 -0.0761
   49loPI   C2B  782  17.482  10.885   8.993 -0.0671  0.3150 -0.2046
   49loPI   C3B  783  17.531  10.922   8.547 -0.0732  0.0931  0.1330
   49loPI   C4B  784  17.827  11.012   8.186 -0.0577 -0.0304  0.1702
   50loPI    C1  785   8.621   0.587  10.560  0.0819  0.1625  0.0747
   50loPI    C2  786   8.951   0.394  10.678  0.0797  0.1109 -0.0026
   50loPI    C3  787   8.777   0.660  10.921  0.0605 -0.0131  0.1206
   50loPI   PO4  788   8.668   0.577  10.287 -0.0268 -0.0669 -0.0751
   50loPI   GL1  789   8.913   0.580   9.928  0.0586  0.0512 -0.3296
   50loPI   GL2  790   8.965   0.848   9.970  0.0410  0.1381  0.3044
   50loPI   C1A  791   9.104   0.460   9.520 -0.1696  0.0004  0.1045
   50loPI   C2A  792   9.497   0.336   9.300 -0.2053 -0.3538 -0.1197
   50loPI   C3A  793   9.503   0.273   8.858 -0.0791  0.0595 -0.3380
   50loPI   C4A  794   9.466   0.258   8.379  0.2346 -0.2941 -0.0431
   50loPI   C5A  795   9.882   0.197   8.231  0.0805 -0.2037  0.2105
   50loPI   C6A  796  10.138   0.335   8.011 -0.2155 -0.1475  0.5274
   50loPI   C1B  797   8.839   0.912   9.522  0.1758  0.2381 -0.1035
   50loPI   C2B  798   8.913   1.035   9.181  0.3491  0.1968 -0.3864
   50loPI   C3B  799   8.912   1.051   8.783  0.0880  0.1231 -0.0142
   50loPI   C4B  800   8.905   1.146   8.365  0.0878  0.1760  0.0293
   51loPI    C1  801  10.357  15.336  10.910  0.0957  0.0619  0.1448
   51loPI    C2  802  10.586  15.034  10.784 -0.0420  0.0665 -0.1232
   51loPI    C3  803  10.296  14.967  11.051  0.1940  0.0402  0.1314
   51loPI   PO4  804  10.243  15.423  10.696 -0.1519  0.1792  0.0261
   51loPI   GL1  805  10.487  15.401  10.311  0.1470  0.2306  0.3409
   51loPI   GL2  806  10.795  15.658  10.201 -0.3124  0.1970 -0.0145
   51loPI   C1A  807  10.502  15.355   9.834 -0.0190  0.1394 -0.2193
   51loPI   C2A  808  10.471  15.561   9.417 -0.3678  0.1799 -0.1489
   51loPI   C3A  809  10.322  15.314   9.087 -0.0200 -0.0548 -0.0501
   51loPI   C4A  810  10.358  15.556   8.689  0.0804 -0.2447  0.0380
   51loPI   C5A  811  10.304  15.626   8.274  0.1139  0.1615 -0.1976
   51loPI   C6A  812  10.148  15.445   7.890  0.4158 -0.2338  0.3640
   51loPI   C1B  813  10.945  15.701   9.780 -0.2264 -0.0771 -0.0656
   51loPI   C2B  814  11.141  15.677   9.258 -0.3064  0.0206  0.0460
   51loPI   C3B  815  11.366  15.701   8.876  0.1902 -0.1470 -0.2844
   51loPI   C4B  816  11.503  15.984   8.711 -0.0938 -0.0371  0.0930
   52loPI    C1  817  10.798  12.650  10.876  0.0643  0.0567 -0.0174
   52loPI    C2  818  10.766  12.935  11.154 -0.0006  0.0020  0.0316
   52loPI    C3  819  10.786  12.551  11.264 -0.0792 -0.0231 -0.0415
   52loPI   PO4  820  10.976  12.803  10.675  0.2539  0.1069 -0.0947
   52loPI   GL1  821  10.969  12.720  10.259  0.3137  0.3031 -0.1514
   52loPI   GL2  822  11.201  12.832  10.187 -0.1783  0.2301 -0.1304
   52loPI   C1A  823  10.773  12.748   9.958  0.0186  0.0150 -0.0000
   52loPI   C2A  824  10.610  12.776   9.416  0.0813  0.2483 -0.2254
   52loPI   C3A  825  10.826  12.534   9.139 -0.0070  0.1237  0.1444
   52loPI   C4A  826  10.930  12.358   8.772 -0.2657  0.1146 -0.1852
   52loPI   C5A  827  10.849  12.265   8.411  0.1023 -0.1058 -0.0411
   52loPI   C6A  828  10.554  12.365   8.210  0.2228  0.0554 -0.0200
   52loPI   C1B  829  11.397  12.732   9.793 -0.4617 -0.3925 -0.2276
   52loPI   C2B  830  11.291  12.827   9.413 -0.1009 -0.0060  0.1040
   52loPI   C3B  831  11.271  12.697   8.981 -0.1253 -0.1263  0.2441
   52loPI   C4B  832  10.996  12.942   8.738 -0.3282 -0.0950 -0.2666
   53loPI    C1  833  13.275  12.430  10.360  0.0215  0.0789 -0.2058
   53loPI    C2  834  13.102  12.334  10.708  0.1437 -0.0785 -0.1871
   53loPI    C3  835  13.317  12.670  10.677  0.2420 -0.1306 -0.0731
   53loPI   PO4  836  13.129  12.347  10.146 -0.1648 -0.1825 -0.4168
   53loPI   GL1  837  12.830  12.546   9.894 -0.0164  0.3532  0.1936
   53loPI   GL2  838  12.796  12.190   9.703 -0.0526  0.0095 -0.1470
   53loPI   C1A  839  12.934  12.598   9.471 -0.1753  0.1808  0.3307
   53loPI   C2A  840  13.110  12.605   9.134 -0.0059 -0.1312  0.2347
   53loPI   C3A  841  12.750  12.525   8.776  0.0241 -0.1564 -0.2694
   53loPI   C4A  842  12.765  12.597   8.469 -0.0029  0.0931  0.0823
   53loPI   C5A  843  12.536  12.704   8.123 -0.2441 -0.0864 -0.0696
   53loPI   C6A  844  12.515  13.089   8.049 -0.0720 -0.2001 -0.1118
   53loPI   C1B  845  12.799  12.118   9.367  0.2476  0.0705 -0.0156
   53loPI   C2B  846  12.741  12.072   9.013 -0.2041  0.1284  0.0067
   53loPI   C3B  847  12.637  12.110   8.550 -0.0343 -0.0904 -0.2387
   53loPI   C4B  848  12.520  11.757   8.270  0.1092 -0.1727  0.0060
   54loPI    C1  849   0.574   7.863  10.605 -0.2149 -0.1907  0.0434
   54loPI    C2  850   0.670   7.482  10.528 -0.2448 -0.2612  0.3419
   54loPI    C3  851   0.912   7.708  10.753 -0.0897 -0.0183 -0.0583
   54loPI   PO4  852   0.448   8.021  10.394 -0.2330 -0.3180  0.0650
   54loPI   GL1  853   0.264   7.941   9.934 -0.0602  0.0619 -0.1074
   54loPI   GL2  854  -0.049   8.138   9.875 -0.0509  0.0690 -0.1443
   54loPI   C1A  855   0.227   8.204   9.477  0.0342 -0.1616  0.0021
   54loPI   C2A  856   0.363   8.262   8.999  0.0377 -0.2449 -0.1184
   54loPI   C3A  857   0.266   8.129   8.518  0.1394 -0.1651 -0.0616
   54loPI   C4A  858   0.247   8.224   8.201 -0.1702  0.0753  0.0616
   54loPI   C5A  859  -0.031   8.108   7.874  0.1460 -0.1524 -0.2314
   54loPI   C6A  860  -0.136   7.759   7.616  0.0103  0.1376  0.1464
   54loPI   C1B  861  -0.122   7.889   9.485  0.0571  0.3382  0.0770
   54loPI   C2B  862   0.032   7.905   9.110  0.0391 -0.0705  0.0064
   54loPI   C3B  863   0.173   7.525   8.900 -0.1202  0.2344 -0.1280
   54loPI   C4B  864   0.590   7.276   8.907  0.2777 -0.0649 -0.1180
   55loPI    C1  865  13.928   4.166  10.489 -0.1836  0.0116  0.0372
   55loPI    C2  866  13.584   4.107  10.684 -0.0905 -0.2178  0.1357
   55loPI    C3  867  13.932   4.056  10.874 -0.0004 -0.2213 -0.0288
   55loPI   PO4  868  13.855   4.166  10.250 -0.1757  0.1627 -0.1031
   55loPI   GL1  869  14.070   3.915  10.018 -0.1598  0.3458  0.2329
   55loPI   GL2  870  14.061   3.519  10.031 -0.0268 -0.0993 -0.0749
   55loPI   C1A  871  14.045   4.113   9.579  0.2136  0.0547 -0.5200
   55loPI   C2A  872  13.871   4.188   9.167  0.0452 -0.2788 -0.0053
   55loPI   C3A  873  13.780   4.285   8.760  0.1413  0.1307 -0.0998
   55loPI   C4A  874  13.781   4.262   8.311 -0.0729 -0.0706 -0.1076
   55loPI   C5A  875  13.793   4.435   7.820 -0.2152  0.1900 -0.0865
   55loPI   C6A  876  13.963   4.159   7.519 -0.2492  0.0888 -0.4415
   55loPI   C1B  877  13.862   3.636   9.516  0.1873 -0.0912 -0.0868
   55loPI   C2B  878  13.956   3.628   9.066  0.1721 -0.0911  0.1562
   55loPI   C3B  879  14.123   3.928   8.686  0.2696 -0.4139  0.0184
   55loPI   C4B  880  13.800   3.658   8.450 -0.0540 -0.1893  0.0464
   56loPI    C1  881  10.760   3.064  10.637 -0.1093 -0.0630 -0.1513
   56loPI    C2  882  10.709   3.157  11.022 -0.3707  0.0252 -0.2053
   56loPI    C3  883  10.486   3.336  10.742 -0.1356  0.0112 -0.4043
   56loPI   PO4  884  10.899   3.146  10.506  0.1802 -0.1763  0.0575
   56loPI   GL1  885  10.920   3.235  10.060 -0.1298  0.0593  0.1204
   56loPI   GL2  886  11.203   3.037  10.110 -0.2883  0.3113 -0.2539
   56loPI   C1A  887  10.987   3.229   9.629 -0.2358 -0.0217  0.0373
   56loPI   C2A  888  11.141   3.300   9.288 -0.2129 -0.1083  0.1449
   56loPI   C3A  889  11.031   3.225   8.950  0.1267  0.2076 -0.1544
   56loPI   C4A  890  11.113   3.057   8.537 -0.0054  0.0034  0.0901
   56loPI   C5A  891  11.474   2.979   8.238 -0.0162 -0.2628  0.0471
   56loPI   C6A  892  11.432   3.063   7.818 -0.1868  0.0301  0.1328
   56loPI   C1B  893  11.444   3.119   9.754 -0.3515  0.0872  0.0413
   56loPI   C2B  894  11.581   3.124   9.397 -0.1423 -0.1686  0.1208
   56loPI   C3B  895  11.541   3.119   8.989  0.1381  0.1348  0.0581
   56loPI   C4B  896  11.721   3.219   8.587  0.1164 -0.2755 -0.0819
   57loPI    C1  897   8.799   2.049  10.979 -0.1228 -0.1602 -0.1549
   57loPI    C2  898   9.088   1.938  11.232 -0.2696 -0.1055  0.0400
   57loPI    C3  899   8.973   2.321  11.215 -0.1611 -0.0819 -0.2165
   57loPI   PO4  900   8.854   1.977  10.763  0.1688  0.0960 -0.0621
   57loPI   GL1  901   9.061   1.875  10.283  0.0923 -0.2684  0.2461
   57loPI   GL2  902   9.263   2.067  10.139  0.2450  0.0998 -0.2905
   57loPI   C1A  903   9.283   1.656   9.859  0.0345 -0.3000  0.0962
   57loPI   C2A  904   9.236   1.263   9.552  0.0770  0.2120  0.0291
   57loPI   C3A  905   9.180   1.422   9.238 -0.0436  0.0395  0.0351
   57loPI   C4A  906   9.246   1.447   8.782 -0.0895  0.2664 -0.2548
   57loPI   C5A  907   9.275   1.689   8.425  0.0543  0.0192 -0.2417
   57loPI   C6A  908   9.047   1.729   8.136 -0.0253 -0.0151  0.1212
   57loPI   C1B  909   9.238   2.161   9.699  0.4617  0.0288 -0.0109
   57loPI   C2B  910   9.325   2.355   9.286  0.2685 -0.0892  0.1444
   57loPI   C3B  911   9.371   2.236   8.817 -0.1477 -0.0148 -0.0741
   57loPI   C4B  912   9.330   2.236   8.356 -0.1235 -0.3497  0.0916
   58loPI    C1  913   5.820  10.784  10.185 -0.0535  0.2882 -0.0399
   58loPI    C2  914   6.101  10.907  10.442 -0.0409  0.0558  0.0602
   58loPI    C3  915   5.902  10.567  10.511 -0.2814  0.1698 -0.0595
   58loPI   PO4  916   5.961  10.728   9.933  0.1136 -0.1262  0.0108
   58loPI   GL1  917   6.225  10.549   9.563 -0.0767  0.0285  0.1963
   58loPI   GL2  918   6.436  10.438   9.741  0.1339 -0.3418 -0.2251
   58loPI   C1A  919   6.302  10.836   9.184 -0.1254 -0.1263 -0.0614
   58loPI   C2A  920   5.996  11.140   9.033  0.3807 -0.1494 -0.1358
   58loPI   C3A  921   5.953  11.230   8.497 -0.2312  0.0122 -0.4082
   58loPI   C4A  922   5.980  11.117   8.091 -0.1703  0.1030 -0.3565
   58loPI   C5A  923   6.158  10.783   7.967 -0.3520  0.0484 -0.0155
   58loPI   C6A  924   6.517  10.603   7.673  0.2375 -0.0559 -0.0600
   58loPI   C1B  925   6.611  10.309   9.325  0.0131 -0.1744  0.0638
   58loPI   C2B  926   6.412  10.328   9.000 -0.1286 -0.0564 -0.1011
   58loPI   C3B  927   6.499  10.312   8.631  0.0829  0.1404  0.3242
   58loPI   C4B  928   6.314  10.365   8.305 -0.0254 -0.1657  0.1797
   59loPI    C1  929   4.866   0.867  10.720 -0.1777 -0.2455 -0.1049
   59loPI    C2  930   4.764   0.567  10.965 -0.1503 -0.1194  0.0621
   59loPI    C3  931   4.789   0.941  11.105 -0.0401 -0.0603 -0.1121
   59loPI   PO4  932   4.747   0.733  10.438 -0.0237  0.2071 -0.0081
   59loPI   GL1  933   4.636   0.558  10.002  0.1158  0.2112  0.2459
   59loPI   GL2  934   4.631   0.307   9.867  0.0081  0.0800  0.3873
   59loPI   C1A  935   4.870   0.835   9.592 -0.1238 -0.0283 -0.3164
   59loPI   C2A  936   5.035   0.966   9.124  0.1070  0.0432  0.1223
   59loPI   C3A  937   5.238   0.908   8.823 -0.0797 -0.0957  0.0621
   59loPI   C4A  938   5.014   0.727   8.524  0.2060 -0.2814 -0.1315
   59loPI   C5A  939   4.810   0.574   8.129  0.1652  0.2396  0.1586
   59loPI   C6A  940   4.345   0.602   7.877 -0.2128  0.0312  0.0237
   59loPI   C1B  941   4.406   0.389   9.530  0.0525  0.0424 -0.1070
   59loPI   C2B  942   4.220   0.517   9.244 -0.0019 -0.0152 -0.3786
   59loPI   C3B  943   4.179   0.661   8.812  0.2646  0.0079 -0.3469
   59loPI   C4B  944   4.240   1.142   8.625 -0.2227  0.0527  0.1236
   60loPI    C1  945  12.346  18.335  10.569  0.0818 -0.2087  0.3110
   60loPI    C2  946  12.091  18.050  10.685  0.0969 -0.3664 -0.0311
   60loPI    C3  947  11.976  18.433  10.687  0.0793 -0.3679  0.4390
   60loPI   PO4  948  12.415  18.269  10.336 -0.4013  0.2141  0.1455
   60loPI   GL1  949  12.387  18.305   9.998  0.2379  0.2086  0.0819
   60loPI   GL2  950  12.112  18.175   9.783  0.3513  0.0022 -0.2249
   60loPI   C1A  951  12.569  18.129   9.579  0.2386  0.1800  0.0777
   60loPI   C2A  952  12.571  18.047   9.253  0.2749  0.2957  0.3121
   60loPI   C3A  953  12.739  17.792   8.998  0.0345 -0.0622 -0.1278
   60loPI   C4A  954  13.039  17.679   8.637 -0.3181 -0.0913 -0.0674
   60loPI   C5A  955  13.375  17.582   8.526 -0.2939 -0.0234  0.3553
   60loPI   C6A  956  13.640  17.856   8.299 -0.0744 -0.0762 -0.0024
   60loPI   C1B  957  12.076  18.308   9.431  0.2664 -0.1607 -0.3083
   60loPI   C2B  958  12.181  18.383   9.010  0.1228  0.0964  0.2412
   60loPI   C3B  959  12.296  18.336   8.618  0.4532  0.3249 -0.3954
   60loPI   C4B  960  12.336  18.023   8.260 -0.1577  0.0840 -0.0279
   61loPI    C1  961   4.607   2.456  10.331  0.0863 -0.0459  0.0289
   61loPI    C2  962   4.595   2.104  10.142  0.1412 -0.1203  0.1627
   61loPI    C3  963   4.307   2.202  10.402  0.0286  0.0113 -0.0099
   61loPI   PO4  964   4.859   2.494  10.204 -0.1173  0.0377 -0.0899
   61loPI   GL1  965   5.024   2.398   9.777  0.0656 -0.1233 -0.2172
   61loPI   GL2  966   5.202   2.661   9.689  0.2742  0.2662 -0.2750
   61loPI   C1A  967   4.782   2.312   9.391 -0.1229 -0.2530 -0.0578
   61loPI   C2A  968   4.871   2.398   8.951  0.2815 -0.0998 -0.2067
   61loPI   C3A  969   5.123   2.448   8.590 -0.0836  0.1323  0.1477
   61loPI   C4A  970   5.267   2.195   8.357  0.1200  0.2110  0.1647
   61loPI   C5A  971   5.300   2.105   7.823  0.0506 -0.2943 -0.3424
   61loPI   C6A  972   5.192   2.449   7.603 -0.0929  0.1258  0.1883
   61loPI   C1B  973   5.244   2.566   9.223 -0.1623 -0.1903 -0.0496
   61loPI   C2B  974   5.486   2.680   8.822  0.0493  0.1904 -0.0797
   61loPI   C3B  975   5.626   2.547   8.449  0.1678 -0.0496  0.3639
   61loPI   C4B  976   5.484   2.535   8.122 -0.1486  0.0992 -0.0123
   62loPI    C1  977   6.758   0.697  10.720  0.0607  0.1187  0.0208
   62loPI    C2  978   6.717   0.822  11.097  0.1321  0.0843  0.0401
   62loPI    C3  979   6.698   0.431  11.012 -0.0957  0.1070 -0.0207
   62loPI   PO4  980   6.557   0.844  10.547 -0.1394 -0.0122 -0.1051
   62loPI   GL1  981   6.411   0.885  10.098  0.3004  0.1051  0.3346
   62loPI   GL2  982   6.527   1.220  10.152  0.3610  0.3064  0.1914
   62loPI   C1A  983   6.592   1.023   9.676 -0.0381  0.1773 -0.0748
   62loPI   C2A  984   6.529   1.149   9.224 -0.0193 -0.2372  0.0539
   62loPI   C3A  985   6.553   0.845   8.904  0.1640  0.4259  0.3924
   62loPI   C4A  986   6.527   0.730   8.435  0.1432 -0.2768 -0.0124
   62loPI   C5A  987   6.372   0.861   8.118 -0.3154  0.2706 -0.3247
   62loPI   C6A  988   6.414   0.490   7.862  0.0945  0.2375  0.1188
   62loPI   C1B  989   6.171   1.265   9.748  0.1106 -0.1504 -0.4361
   62loPI   C2B  990   6.108   1.475   9.388  0.0140  0.0691  0.0927
   62loPI   C3B  991   6.015   1.189   8.990  0.0503  0.0878  0.1689
   62loPI   C4B  992   5.904   0.869   8.557  0.4010  0.2220 -0.0014
   63loPI    C1  993   0.326   8.511  10.391  0.2351 -0.0935  0.2573
   63loPI    C2  994  -0.035   8.534  10.561  0.0968 -0.1332 -0.0268
   63loPI    C3  995   0.251   8.313  10.730  0.0468  0.0450  0.2985
   63loPI   PO4  996   0.268   8.434  10.115 -0.0401 -0.1072 -0.0647
   63loPI   GL1  997   0.472   8.536   9.694  0.0260 -0.1194 -0.2467
   63loPI   GL2  998   0.099   8.757   9.669  0.1168 -0.3493  0.3468
   63loPI   C1A  999   0.718   8.425   9.302  0.1920  0.2860 -0.3043
   63loPI   C2A 1000   0.876   8.185   8.886  0.0142 -0.2530  0.1755
   63loPI   C3A 1001   1.000   7.966   8.503 -0.0146  0.1901 -0.1838
   63loPI   C4A 1002   0.704   8.038   8.205 -0.0879  0.1778  0.0593
   63loPI   C5A 1003   0.554   7.964   7.832 -0.5596 -0.2490 -0.0528
   63loPI   C6A 1004   0.359   7.937   7.474 -0.0063  0.0238 -0.0969
   63loPI   C1B 1005   0.140   8.633   9.270 -0.3087 -0.2996  0.1559
   63loPI   C2B 1006   0.215   8.723   8.834 -0.2026  0.0054  0.2003
   63loPI   C3B 1007   0.225   8.672   8.421 -0.0233 -0.2181 -0.0524
   63loPI   C4B 1008   0.312   8.838   7.933 -0.2525  0.1161 -0.4063
   64loPI    C1 1009   0.235  17.805  10.643 -0.1766 -0.2105 -0.0401
   64loPI    C2 1010   0.166  17.777  11.036  0.0288 -0.1826 -0.0007
   64loPI    C3 1011   0.517  17.916  10.904 -0.0334 -0.2066 -0.1947
   64loPI   PO4 1012  -0.009  17.966  10.522 -0.1989 -0.1309  0.0734
   64loPI   GL1 1013  -0.230  18.030  10.065 -0.1770  0.0849  0.3344
   64loPI   GL2 1014   0.040  18.244  10.008 -0.0887 -0.1328 -0.2660
   64loPI   C1A 1015  -0.538  18.122   9.742  0.0201 -0.2566 -0.0696
   64loPI   C2A 1016  -0.821  17.907   9.459 -0.4270  0.1089 -0.0084
   64loPI   C3A 1017  -1.000  17.719   9.171 -0.1882  0.0119 -0.0710
   64loPI   C4A 1018  -1.099  17.629   8.807 -0.0736  0.0726  0.4066
   64loPI   C5A 1019  -1.390  17.340   8.594  0.0954 -0.0860  0.0053
   64loPI   C6A 1020  -1.753  17.050   8.506  0.0179 -0.3337 -0.3329
   64loPI   C1B 1021  -0.020  18.137   9.645 -0.2560 -0.2845 -0.0716
   64loPI   C2B 1022   0.012  18.078   9.200 -0.0480 -0.0689 -0.0217
   64loPI   C3B 1023   0.129  18.042   8.841 -0.2359 -0.0479  0.0478
   64loPI   C4B 1024   0.264  18.251   8.497  0.0172  0.0805  0.2984
   65loPI    C1 1025  10.388   7.934  10.368  0.1385 -0.1005 -0.0196
   65loPI    C2 1026  10.440   7.622  10.613  0.2712  0.0352  0.1276
   65loPI    C3 1027  10.386   7.988  10.764  0.2942  0.1112 -0.0461
   65loPI   PO4 1028  10.265   7.796  10.140  0.0013 -0.2122  0.0520
   65loPI   GL1 1029  10.114   7.682   9.761  0.0100  0.1456 -0.0526
   65loPI   GL2 1030  10.058   7.972   9.637  0.2965  0.1628  0.1851
   65loPI   C1A 1031  10.170   7.768   9.216 -0.0904 -0.2034 -0.0836
   65loPI   C2A 1032  10.004   7.823   8.887  0.2370 -0.3929 -0.1540
   65loPI   C3A 1033   9.949   7.670   8.492  0.0209  0.2270  0.1111
   65loPI   C4A 1034  10.056   7.675   8.108 -0.0083  0.0234  0.2211
   65loPI   C5A 1035  10.205   7.907   7.814  0.1851  0.1350 -0.1775
   65loPI   C6A 1036  10.293   7.954   7.388 -0.2365 -0.0200  0.1440
   65loPI   C1B 1037   9.640   7.927   9.626 -0.0935 -0.0034  0.1420
   65loPI   C2B 1038   9.268   7.774   9.384  0.2084 -0.1845 -0.3452
   65loPI   C3B 1039   9.188   7.722   9.030  0.1937 -0.2754 -0.1282
   65loPI   C4B 1040   9.103   7.787   8.601  0.0287 -0.0591 -0.0252
   66loPI    C1 1041  12.653   3.349  10.702 -0.0067 -0.0522 -0.0323
   66loPI    C2 1042  13.038   3.336  10.811  0.0241  0.0072 -0.1334
   66loPI    C3 1043  12.831   3.676  10.848 -0.0142 -0.0202 -0.0946
   66loPI   PO4 1044  12.632   3.144  10.532  0.0827  0.0176  0.2659
   66loPI   GL1 1045  12.692   3.015  10.117 -0.0311  0.0442  0.1360
   66loPI   GL2 1046  12.539   3.329   9.941  0.0828 -0.2753  0.3588
   66loPI   C1A 1047  13.014   3.061   9.759 -0.0278  0.0789  0.2546
   66loPI   C2A 1048  13.251   2.897   9.598 -0.1428 -0.1586 -0.1247
   66loPI   C3A 1049  13.584   2.747   9.478 -0.1473  0.1138 -0.3747
   66loPI   C4A 1050  13.562   2.683   9.003  0.0386 -0.1585 -0.0194
   66loPI   C5A 1051  13.343   2.989   8.796  0.1894  0.1884  0.1947
   66loPI   C6A 1052  13.087   3.202   9.130 -0.1622 -0.1261  0.0253
   66loPI   C1B 1053  12.560   3.316   9.371  0.0422  0.2537  0.1039
   66loPI   C2B 1054  12.457   3.427   8.848 -0.0748  0.0080 -0.1199
   66loPI   C3B 1055  12.464   3.500   8.414  0.0306  0.0322  0.1151
   66loPI   C4B 1056  12.462   3.217   8.083  0.0169  0.2975 -0.1625
   67loPI    C1 1057  10.812   6.994  10.309 -0.1602 -0.0728 -0.0571
   67loPI    C2 1058  10.539   6.821  10.544 -0.1868  0.0468  0.0011
   67loPI    C3 1059  10.717   7.159  10.661 -0.1640  0.0805 -0.1290
   67loPI   PO4 1060  10.721   6.973  10.037 -0.0498  0.0183 -0.0824
   67loPI   GL1 1061  10.935   6.852   9.693 -0.2309  0.3616 -0.0102
   67loPI   GL2 1062  10.811   6.545   9.645 -0.2363  0.1912 -0.1513
   67loPI   C1A 1063  10.837   7.208   9.411 -0.1747  0.0594  0.1771
   67loPI   C2A 1064  10.875   7.335   8.984  0.1217  0.0314 -0.1817
   67loPI   C3A 1065  11.014   7.364   8.581 -0.0325 -0.0075  0.1237
   67loPI   C4A 1066  11.075   7.470   8.214  0.0508  0.0394 -0.2337
   67loPI   C5A 1067  10.978   7.637   7.833  0.0559 -0.1378  0.0992
   67loPI   C6A 1068  10.686   8.055   7.777  0.1823  0.0010  0.2560
   67loPI   C1B 1069  10.785   6.692   9.259 -0.0140  0.2109  0.0799
   67loPI   C2B 1070  10.599   6.942   8.911  0.0766  0.0505  0.0596
   67loPI   C3B 1071  10.688   7.024   8.408  0.1529  0.1045 -0.1706
   67loPI   C4B 1072  10.760   6.978   8.063 -0.1194  0.2095  0.0286
   68loPI    C1 1073  12.122   3.880  10.410  0.1153  0.2598  0.0243
   68loPI    C2 1074  12.225   3.493  10.421 -0.1554  0.1786 -0.1901
   68loPI    C3 1075  12.303   3.730  10.734  0.3596  0.0428 -0.2072
   68loPI   PO4 1076  12.169   3.953  10.148  0.2498 -0.2347 -0.0642
   68loPI   GL1 1077  11.929   4.060   9.739  0.0568  0.0865  0.1566
   68loPI   GL2 1078  11.768   3.872   9.816  0.0042 -0.1637  0.0160
   68loPI   C1A 1079  12.033   4.171   9.326  0.0061 -0.0629  0.1314
   68loPI   C2A 1080  12.133   4.162   8.854  0.1735  0.1828  0.2941
   68loPI   C3A 1081  12.272   4.228   8.375  0.0200 -0.2895  0.2516
   68loPI   C4A 1082  12.303   4.435   7.946  0.1318 -0.1333  0.1295
   68loPI   C5A 1083  12.145   4.564   7.594  0.1878  0.1091 -0.0649
   68loPI   C6A 1084  11.789   4.799   7.588 -0.1087  0.1293 -0.0988
   68loPI   C1B 1085  11.593   3.599   9.469 -0.1107 -0.0694 -0.1543
   68loPI   C2B 1086  11.825   3.534   9.062 -0.2524  0.0730 -0.2092
   68loPI   C3B 1087  12.003   3.633   8.664 -0.0636 -0.1178  0.0133
   68loPI   C4B 1088  11.959   3.897   8.258  0.3356  0.2296 -0.0192
   69loPI    C1 1089   0.965   9.703  10.267 -0.0216 -0.0128 -0.0968
   69loPI    C2 1090   1.234   9.585  10.539 -0.1454 -0.2524 -0.0752
   69loPI    C3 1091   0.923   9.809  10.650 -0.2654 -0.4570  0.0066
   69loPI   PO4 1092   1.151   9.544  10.087  0.1585  0.2252  0.2451
   69loPI   GL1 1093   1.399   9.514   9.728  0.2152 -0.2710 -0.1396
   69loPI   GL2 1094   1.462   9.213   9.748  0.2267 -0.0850  0.0191
   69loPI   C1A 1095   1.251   9.707   9.412 -0.3222 -0.0157  0.0769
   69loPI   C2A 1096   1.257   9.719   9.096  0.0212  0.0704  0.1234
   69loPI   C3A 1097   1.252   9.841   8.705  0.1898 -0.1859  0.0275
   69loPI   C4A 1098   1.224   9.683   8.307  0.0672 -0.1526 -0.1681
   69loPI   C5A 1099   1.057   9.613   8.033  0.0254 -0.0674  0.0528
   69loPI   C6A 1100   0.703   9.359   7.906 -0.0229  0.0062 -0.0422
   69loPI   C1B 1101   1.502   9.296   9.277  0.1720  0.0582  0.1864
   69loPI   C2B 1102   1.735   9.288   8.843  0.0262 -0.1067 -0.0337
   69loPI   C3B 1103   1.786   9.299   8.485  0.3125 -0.0661  0.0461
   69loPI   C4B 1104   1.856   9.337   8.006  0.2059 -0.1487 -0.1588
   70loPI    C1 1105  10.983   7.624  10.471  0.1504  0.2100  0.0576
   70loPI    C2 1106  10.850   7.738  10.830  0.0785  0.0096  0.0961
   70loPI    C3 1107  11.172   7.502  10.801  0.0314 -0.0471  0.0331
   70loPI   PO4 1108  10.931   7.786  10.290 -0.1818  0.0802 -0.1481
   70loPI   GL1 1109  10.686   7.943   9.913 -0.2511  0.1267  0.0251
   70loPI   GL2 1110  10.878   8.234   9.900 -0.0277 -0.1930 -0.2131
   70loPI   C1A 1111  10.599   7.770   9.544 -0.1307 -0.1852  0.1858
   70loPI   C2A 1112  10.636   7.735   9.055  0.2618 -0.0317  0.0896
   70loPI   C3A 1113  10.485   7.798   8.769  0.3020 -0.1335  0.1231
   70loPI   C4A 1114  10.472   7.582   8.389 -0.0569 -0.0202 -0.3896
   70loPI   C5A 1115  10.504   7.441   8.002 -0.2792 -0.0042 -0.2274
   70loPI   C6A 1116  10.589   7.559   7.519 -0.0211  0.0721  0.0768
   70loPI   C1B 1117  10.917   8.203   9.489  0.1385  0.0190  0.0729
   70loPI   C2B 1118  11.067   8.200   9.156  0.0385  0.1251 -0.2698
   70loPI   C3B 1119  11.050   8.025   8.823 -0.1952 -0.0359  0.0337
   70loPI   C4B 1120  11.051   7.996   8.322  0.1122  0.0060 -0.0144
   71loPI    C1 1121   8.235   4.129  10.712  0.1039 -0.0863  0.0454
   71loPI    C2 1122   8.410   4.478  10.802  0.2751 -0.1384 -0.0781
   71loPI    C3 1123   8.471   4.157  11.034 -0.0028 -0.0521  0.1211
   71loPI   PO4 1124   8.221   4.081  10.521  0.1343  0.1226 -0.0222
   71loPI   GL1 1125   8.486   4.218  10.191  0.0212 -0.3381 -0.1648
   71loPI   GL2 1126   8.622   4.541  10.235  0.0649  0.0764 -0.5041
   71loPI   C1A 1127   8.447   4.096   9.740 -0.0622  0.1156 -0.0831
   71loPI   C2A 1128   8.382   3.900   9.221 -0.0398 -0.0460 -0.0445
   71loPI   C3A 1129   8.435   3.984   8.775  0.0439 -0.0926  0.0096
   71loPI   C4A 1130   8.552   4.052   8.327  0.2564 -0.5019  0.1689
   71loPI   C5A 1131   8.631   4.007   7.872 -0.1077 -0.0798 -0.1632
   71loPI   C6A 1132   8.792   3.765   7.567  0.1950  0.2237  0.1053
   71loPI   C1B 1133   8.578   4.583   9.741 -0.0142 -0.2121 -0.0267
   71loPI   C2B 1134   8.509   4.451   9.267  0.1343  0.1215 -0.2863
   71loPI   C3B 1135   8.529   4.485   8.836 -0.0462 -0.2788  0.1552
   71loPI   C4B 1136   8.455   4.528   8.355  0.1823  0.0279 -0.5387
   72loPI    C1 1137  13.662  13.369  10.547 -0.1345  0.1598 -0.0187
   72loPI    C2 1138  13.634  13.043  10.778 -0.0304  0.0985 -0.0916
   72loPI    C3 1139  13.716  13.398  10.943  0.2404  0.0211 -0.0555
   72loPI   PO4 1140  13.771  13.313  10.368 -0.1259 -0.3696  0.2819
   72loPI   GL1 1141  13.670  13.161   9.954  0.1810 -0.0652  0.3143
   72loPI   GL2 1142  13.424  13.203  10.001  0.0436 -0.0735 -0.2174
   72loPI   C1A 1143  13.817  13.218   9.471 -0.1708  0.0126 -0.3582
   72loPI   C2A 1144  13.937  13.430   9.193 -0.1247  0.2270 -0.1445
   72loPI   C3A 1145  13.972  13.365   8.730 -0.0130  0.1285 -0.2566
   72loPI   C4A 1146  14.152  13.275   8.373 -0.2848  0.0755 -0.1080
   72loPI   C5A 1147  14.305  13.384   8.118 -0.0697  0.0932  0.0919
   72loPI   C6A 1148  14.289  13.636   7.711  0.2141 -0.1569 -0.1942
   72loPI   C1B 1149  12.973  13.374   9.798  0.0969 -0.0931  0.1028
   72loPI   C2B 1150  12.875  13.423   9.331 -0.1149  0.2319  0.2558
   72loPI   C3B 1151  12.948  13.380   8.895  0.1567  0.0804  0.0114
   72loPI   C4B 1152  13.146  13.423   8.520  0.0008 -0.0585  0.1799
   73loPI    C1 1153  14.609   6.265  10.622 -0.0677  0.2672 -0.1314
   73loPI    C2 1154  14.473   5.928  10.455  0.2353  0.1451 -0.1379
   73loPI    C3 1155  14.509   5.953  10.852  0.0592  0.2295 -0.1264
   73loPI   PO4 1156  14.419   6.477  10.499  0.0358 -0.0369 -0.0609
   73loPI   GL1 1157  14.340   6.693   9.990  0.1514 -0.2018 -0.0362
   73loPI   GL2 1158  14.491   6.944   9.839 -0.1122  0.1374 -0.2552
   73loPI   C1A 1159  14.105   6.836   9.542 -0.1017  0.0542 -0.1222
   73loPI   C2A 1160  13.983   6.844   9.149  0.1233  0.2310  0.1532
   73loPI   C3A 1161  13.716   6.741   8.837 -0.0290 -0.2379  0.1568
   73loPI   C4A 1162  13.788   6.576   8.457  0.2705  0.1347  0.2247
   73loPI   C5A 1163  13.592   6.626   8.168  0.1191 -0.1243 -0.1289
   73loPI   C6A 1164  13.675   6.625   7.795  0.0846 -0.2569 -0.0106
   73loPI   C1B 1165  14.752   6.949   9.512  0.3290 -0.0658  0.0580
   73loPI   C2B 1166  14.935   6.999   9.137 -0.3955 -0.0575  0.0354
   73loPI   C3B 1167  15.060   6.751   8.824 -0.0989 -0.1512  0.2268
   73loPI   C4B 1168  15.152   6.330   8.772  0.2462  0.1170  0.1998
   74loPI    C1 1169  15.373   9.457  10.442  0.0144 -0.0548  0.0049
   74loPI    C2 1170  15.571   9.245  10.717  0.0804  0.0785  0.0613
   74loPI    C3 1171  15.399   9.060  10.407  0.1594 -0.0542  0.0959
   74loPI   PO4 1172  15.470   9.572  10.241 -0.0930  0.1282  0.2380
   74loPI   GL1 1173  15.484   9.762   9.802  0.0314  0.1328  0.0454
   74loPI   GL2 1174  15.367  10.143   9.581 -0.0402 -0.1827  0.0612
   74loPI   C1A 1175  15.680   9.843   9.410 -0.1996 -0.2046  0.0544
   74loPI   C2A 1176  15.586   9.937   9.000 -0.2050  0.1495 -0.0682
   74loPI   C3A 1177  15.672   9.911   8.675 -0.1139  0.1591  0.1788
   74loPI   C4A 1178  15.714   9.836   8.231  0.2056 -0.0790 -0.0264
   74loPI   C5A 1179  15.771   9.861   7.798 -0.0664  0.0209  0.2387
   74loPI   C6A 1180  15.571   9.912   7.438 -0.0001 -0.0848 -0.1020
   74loPI   C1B 1181  15.295  10.254   9.273  0.0976  0.2705  0.1390
   74loPI   C2B 1182  15.373  10.590   9.102 -0.2415 -0.2851  0.1290
   74loPI   C3B 1183  15.203  10.815   8.803 -0.0500  0.1152  0.1932
   74loPI   C4B 1184  15.228  10.750   8.402 -0.0578  0.1281  0.4036
   75loPI    C1 1185  11.610  12.304  10.720  0.0035 -0.2948 -0.0398
   75loPI    C2 1186  11.331  12.440  10.468  0.1239  0.1198  0.0436
   75loPI    C3 1187  11.241  12.381  10.853  0.0828  0.0011  0.0161
   75loPI   PO4 1188  11.720  12.113  10.618 -0.3704 -0.0686  0.2651
   75loPI   GL1 1189  11.665  11.858  10.231 -0.1063  0.1239 -0.1934
   75loPI   GL2 1190  12.049  11.837  10.244  0.2429 -0.0994 -0.3601
   75loPI   C1A 1191  11.509  11.971   9.842  0.0350 -0.0737 -0.0993
   75loPI   C2A 1192  11.378  12.258   9.482  0.0588  0.0407 -0.0731
   75loPI   C3A 1193  11.400  12.236   9.020  0.2506 -0.1895 -0.1422
   75loPI   C4A 1194  11.354  12.338   8.578 -0.4549 -0.2311  0.1141
   75loPI   C5A 1195  11.292  12.295   8.138  0.0582 -0.2903 -0.1671
   75loPI   C6A 1196  10.912  12.122   7.874  0.3250 -0.0184  0.0488
   75loPI   C1B 1197  12.096  12.074   9.864 -0.3450 -0.2899  0.0529
   75loPI   C2B 1198  11.787  12.397   9.650 -0.0187 -0.1494  0.0424
   75loPI   C3B 1199  11.755  12.624   9.211 -0.1636  0.3283  0.1782
   75loPI   C4B 1200  11.845  12.809   8.763 -0.0182  0.1812 -0.1834
   76loPI    C1 1201  13.107   2.812  10.339 -0.1056 -0.2713  0.2059
   76loPI    C2 1202  12.966   2.816  10.714 -0.1616 -0.0188  0.1837
   76loPI    C3 1203  13.314   2.994  10.629 -0.0814 -0.1944  0.1406
   76loPI   PO4 1204  13.191   2.507  10.301 -0.1838  0.1530  0.2588
   76loPI   GL1 1205  13.482   2.344   9.903 -0.1524 -0.0349 -0.2968
   76loPI   GL2 1206  13.606   2.191  10.089 -0.0093  0.2459  0.0483
   76loPI   C1A 1207  13.335   2.354   9.535  0.3500  0.2907 -0.0922
   76loPI   C2A 1208  13.020   2.467   9.241  0.1089  0.1213 -0.1016
   76loPI   C3A 1209  13.054   2.613   8.824 -0.0434 -0.3502 -0.2104
   76loPI   C4A 1210  13.164   2.707   8.407  0.2184  0.2637  0.0924
   76loPI   C5A 1211  13.348   2.442   8.099  0.1744 -0.2144 -0.1019
   76loPI   C6A 1212  13.299   2.276   7.743  0.1965  0.0343 -0.2503
   76loPI   C1B 1213  13.983   2.032   9.822  0.0453  0.1787  0.0280
   76loPI   C2B 1214  13.971   1.737   9.393  0.2679 -0.1090 -0.2533
   76loPI   C3B 1215  13.984   1.746   8.968 -0.2512  0.3656 -0.1637
   76loPI   C4B 1216  13.948   1.555   8.474 -0.1995 -0.0645  0.0172
   77loPI    C1 1217  14.838   4.629  10.475 -0.0476 -0.0556  0.0608
   77loPI    C2 1218  15.201   4.476  10.543  0.1041  0.2766  0.0179
   77loPI    C3 1219  15.063   4.774  10.772 -0.2835 -0.0701  0.2504
   77loPI   PO4 1220  14.838   4.707  10.248 -0.0111 -0.0203  0.4698
   77loPI   GL1 1221  14.593   4.860   9.897  0.4178 -0.1027  0.0538
   77loPI   GL2 1222  14.806   4.695   9.727 -0.1439  0.0531 -0.2546
   77loPI   C1A 1223  14.340   4.538   9.635 -0.1648  0.1037 -0.0424
   77loPI   C2A 1224  14.313   4.459   9.265 -0.1100  0.1757  0.0528
   77loPI   C3A 1225  14.301   4.361   8.883 -0.0419  0.3887 -0.2057
   77loPI   C4A 1226  14.225   4.353   8.454 -0.2735 -0.0706  0.0282
   77loPI   C5A 1227  14.453   4.515   8.021  0.0321 -0.0426 -0.2278
   77loPI   C6A 1228  14.382   4.405   7.682 -0.1791 -0.3538  0.1393
   77loPI   C1B 1229  14.780   4.813   9.389 -0.2091 -0.4640 -0.0045
   77loPI   C2B 1230  14.720   4.577   9.019 -0.1458  0.0588  0.1612
   77loPI   C3B 1231  14.676   4.549   8.540 -0.1178 -0.1082 -0.2747
   77loPI   C4B 1232  14.931   4.383   8.228 -0.1805 -0.1920 -0.3465
   78loPI    C1 1233  10.062   6.234  10.333 -0.0364 -0.0455  0.0818
   78loPI    C2 1234  10.080   6.550  10.578 -0.0032  0.1829 -0.2108
   78loPI    C3 1235   9.732   6.359  10.522  0.0124  0.0593  0.0981
   78loPI   PO4 1236  10.214   6.306  10.139 -0.0267 -0.2416  0.4332
   78loPI   GL1 1237  10.353   6.604   9.717 -0.2603 -0.3470  0.0936
   78loPI   GL2 1238  10.065   6.418   9.659  0.4846 -0.0252  0.0948
   78loPI   C1A 1239  10.313   6.734   9.316  0.0965 -0.1756 -0.1726
   78loPI   C2A 1240  10.137   6.763   8.921  0.2999 -0.0232  0.1432
   78loPI   C3A 1241   9.999   6.716   8.536  0.2035 -0.3191 -0.0594
   78loPI   C4A 1242   9.875   6.622   8.165  0.1101 -0.0447 -0.0984
   78loPI   C5A 1243   9.821   6.821   7.766 -0.2011 -0.1938  0.0392
   78loPI   C6A 1244   9.458   6.872   7.612 -0.3778 -0.0691 -0.2818
   78loPI   C1B 1245   9.897   6.457   9.216 -0.0534 -0.1224  0.0644
   78loPI   C2B 1246   9.616   6.421   8.906  0.1712  0.1205 -0.0139
   78loPI   C3B 1247   9.552   6.298   8.443  0.2196 -0.0910 -0.2102
   78loPI   C4B 1248   9.467   6.334   7.922 -0.0480 -0.2316 -0.2364
   79loPI    C1 1249  17.276  12.817   9.920 -0.1045  0.1445  0.1366
   79loPI    C2 1250  17.456  12.723  10.264  0.0168 -0.2092 -0.0192
   79loPI    C3 1251  17.622  12.992  10.019 -0.0330 -0.0101  0.1629
   79loPI   PO4 1252  17.170  12.616   9.813  0.3909  0.0608 -0.0013
   79loPI   GL1 1253  17.262  12.388   9.438  0.0918  0.0704  0.1301
   79loPI   GL2 1254  17.102  12.156   9.409  0.0120 -0.0262  0.0105
   79loPI   C1A 1255  17.635  12.353   9.200 -0.3368  0.1653  0.3691
   79loPI   C2A 1256  17.596  12.553   8.783 -0.1010 -0.0103  0.0046
   79loPI   C3A 1257  17.593  12.641   8.480 -0.0422  0.0950  0.0970
   79loPI   C4A 1258  17.567  12.653   8.140 -0.0588 -0.0208 -0.0992
   79loPI   C5A 1259  17.258  12.703   7.811  0.3030 -0.2064 -0.0811
   79loPI   C6A 1260  17.250  12.502   7.366  0.1242 -0.0636  0.1848
   79loPI   C1B 1261  17.250  12.155   8.946 -0.5156 -0.0958  0.0582
   79loPI   C2B 1262  17.256  12.276   8.531  0.1294 -0.0173 -0.3372
   79loPI   C3B 1263  17.220  12.299   8.105  0.1061  0.0724  0.0514
   79loPI   C4B 1264  17.531  12.265   7.849  0.1286  0.0696 -0.0840
   80loPI    C1 1265   0.884  13.112  10.396 -0.2940 -0.1387  0.0613
   80loPI    C2 1266   0.560  13.236  10.596 -0.3146 -0.0385 -0.0334
   80loPI    C3 1267   0.878  13.477  10.561 -0.1427 -0.2190  0.2480
   80loPI   PO4 1268   0.731  13.057  10.153  0.1231  0.0691  0.2854
   80loPI   GL1 1269   0.553  12.781   9.767 -0.0738  0.0955  0.1292
   80loPI   GL2 1270   0.195  12.890   9.677 -0.0541  0.3152  0.2981
   80loPI   C1A 1271   0.568  12.696   9.307 -0.1210 -0.3163  0.0597
   80loPI   C2A 1272   0.453  12.685   8.897  0.0315  0.0094 -0.3124
   80loPI   C3A 1273   0.167  12.609   8.516 -0.3112 -0.1225 -0.0723
   80loPI   C4A 1274   0.016  12.676   8.057 -0.1121  0.3068 -0.0922
   80loPI   C5A 1275   0.232  12.371   7.811  0.0022  0.0022  0.2144
   80loPI   C6A 1276   0.596  12.123   7.685 -0.3262  0.1911 -0.0771
   80loPI   C1B 1277   0.033  12.819   9.219  0.0007 -0.3071  0.0821
   80loPI   C2B 1278  -0.114  12.998   8.836 -0.0607  0.2614  0.2617
   80loPI   C3B 1279   0.005  13.095   8.401  0.1833 -0.0400 -0.0082
   80loPI   C4B 1280  -0.002  13.129   7.955 -0.2810  0.1363 -0.0344
   81loPI    C1 1281   7.815  15.476  10.657 -0.3903  0.1645 -0.1894
   81loPI    C2 1282   7.879  15.806  10.873 -0.2193 -0.0335  0.0679
   81loPI    C3 1283   7.515  15.640  10.864 -0.2094 -0.0692  0.2723
   81loPI   PO4 1284   7.919  15.527  10.392 -0.0017  0.2986  0.1263
   81loPI   GL1 1285   7.836  15.165   9.974 -0.0963 -0.1350 -0.0287
   81loPI   GL2 1286   7.925  15.435   9.901 -0.1265 -0.0630 -0.0605
   81loPI   C1A 1287   7.579  15.052   9.689 -0.0499  0.0242  0.1925
   81loPI   C2A 1288   7.602  14.918   9.221  0.2767  0.0115  0.1585
   81loPI   C3A 1289   7.664  14.561   8.887 -0.1488 -0.3333  0.1027
   81loPI   C4A 1290   7.580  14.399   8.462  0.2232  0.0825  0.0800
   81loPI   C5A 1291   7.674  13.965   8.306  0.1558  0.2702  0.4121
   81loPI   C6A 1292   7.512  13.561   8.071  0.4070 -0.0316  0.0978
   81loPI   C1B 1293   7.767  15.414   9.390  0.1686  0.0246 -0.2639
   81loPI   C2B 1294   7.801  15.365   9.024 -0.0101  0.0725 -0.0020
   81loPI   C3B 1295   7.965  15.404   8.703 -0.0128 -0.0483 -0.1704
   81loPI   C4B 1296   8.030  15.342   8.328  0.1720 -0.1230  0.0200
   82loPI    C1 1297   0.903  16.336  10.832  0.0163  0.0358  0.1901
   82loPI    C2 1298   0.599  16.465  10.607  0.1127 -0.1674 -0.0627
   82loPI    C3 1299   0.615  16.560  10.995 -0.1311  0.0681 -0.1068
   82loPI   PO4 1300   1.034  16.176  10.680 -0.3498 -0.0876  0.0716
   82loPI   GL1 1301   0.985  15.938  10.294 -0.0958 -0.1697 -0.2400
   82loPI   GL2 1302   0.691  16.071  10.298  0.1949 -0.1766  0.3357
   82loPI   C1A 1303   0.944  15.749   9.845 -0.1249 -0.3791  0.1743
   82loPI   C2A 1304   0.920  15.794   9.436  0.0823 -0.0296  0.0170
   82loPI   C3A 1305   0.686  15.732   8.989  0.0263  0.0003 -0.0708
   82loPI   C4A 1306   0.451  16.008   8.691  0.1603  0.0803 -0.2064
   82loPI   C5A 1307   0.357  16.243   8.335 -0.1353 -0.0621  0.4244
   82loPI   C6A 1308  -0.149  16.254   8.211  0.0452  0.0782  0.1102
   82loPI   C1B 1309   0.668  16.501   9.973 -0.0331 -0.1381 -0.1955
   82loPI   C2B 1310   0.704  16.637   9.601  0.1310  0.2742 -0.0632
   82loPI   C3B 1311   0.794  16.641   9.253 -0.2159  0.0997  0.2870
   82loPI   C4B 1312   0.871  16.793   8.850 -0.1056 -0.0062  0.2695
   83loPI    C1 1313   6.473  16.614  10.193  0.2206 -0.0223 -0.1158
   83loPI    C2 1314   6.269  16.930  10.330  0.2098 -0.0739 -0.0120
   83loPI    C3 1315   6.522  16.736  10.571  0.0264 -0.2996  0.0023
   83loPI   PO4 1316   6.342  16.495   9.995 -0.0121  0.1585 -0.0388
   83loPI   GL1 1317   6.407  16.323   9.593  0.0315 -0.6222  0.0112
   83loPI   GL2 1318   6.235  16.152   9.656  0.1468  0.0464  0.1439
   83loPI   C1A 1319   6.393  16.204   9.199 -0.0711  0.2116  0.0608
   83loPI   C2A 1320   6.388  16.337   8.857 -0.1322 -0.2251 -0.0642
   83loPI   C3A 1321   6.364  16.297   8.370  0.0211  0.0158 -0.0071
   83loPI   C4A 1322   6.190  16.659   8.164 -0.3100 -0.1666 -0.3207
   83loPI   C5A 1323   6.086  17.072   7.985 -0.1534  0.2020 -0.0530
   83loPI   C6A 1324   5.854  17.386   7.746  0.0059 -0.1245 -0.1690
   83loPI   C1B 1325   5.933  15.992   9.371  0.1956 -0.0497 -0.0716
   83loPI   C2B 1326   5.925  16.054   9.004  0.0459 -0.0006  0.5635
   83loPI   C3B 1327   5.945  15.911   8.525 -0.1053 -0.0142  0.2046
   83loPI   C4B 1328   6.101  15.769   8.130 -0.1018 -0.1424  0.2028
   84loPI    C1 1329  11.167  11.092  10.826  0.1953 -0.1254 -0.1126
   84loPI    C2 1330  11.063  10.720  10.932  0.0942 -0.0481  0.0655
   84loPI    C3 1331  11.053  11.015  11.202 -0.0748  0.1354 -0.1373
   84loPI   PO4 1332  11.397  11.118  10.706  0.0220  0.0806 -0.0615
   84loPI   GL1 1333  11.587  11.212  10.277  0.0513  0.2993 -0.2157
   84loPI   GL2 1334  11.684  10.935  10.045 -0.1369  0.4762  0.0086
   84loPI   C1A 1335  11.543  11.484   9.887 -0.1577  0.1268  0.1549
   84loPI   C2A 1336  11.650  11.416   9.496 -0.0119  0.0610  0.2126
   84loPI   C3A 1337  11.764  11.458   9.114 -0.3587  0.2510 -0.0982
   84loPI   C4A 1338  11.945  11.438   8.755 -0.0905 -0.0461 -0.1475
   84loPI   C5A 1339  11.977  11.425   8.270  0.3803 -0.1207 -0.1296
   84loPI   C6A 1340  11.805  11.724   7.948 -0.0837  0.4813  0.1687
   84loPI   C1B 1341  11.898  11.013   9.724 -0.0797  0.2382  0.0977
   84loPI   C2B 1342  12.004  11.130   9.379  0.1038 -0.2572  0.0574
   84loPI   C3B 1343  12.191  11.049   8.945 -0.1522 -0.1026 -0.2283
   84loPI   C4B 1344  12.277  11.118   8.512 -0.0612  0.1838  0.0837
   85loPI    C1 1345   2.020   0.336  11.181 -0.0467 -0.0074 -0.0815
   85loPI    C2 1346   2.264   0.653  11.163 -0.1622  0.0821 -0.0825
   85loPI    C3 1347   2.412   0.291  11.244 -0.0258  0.1319 -0.1073
   85loPI   PO4 1348   1.825   0.335  10.977 -0.2178 -0.0404 -0.0730
   85loPI   GL1 1349   1.715   0.362  10.584 -0.1055 -0.1660 -0.0224
   85loPI   GL2 1350   1.921   0.354  10.402  0.1813 -0.0976  0.0060
   85loPI   C1A 1351   1.495   0.290  10.120 -0.0959 -0.3036  0.2083
   85loPI   C2A 1352   1.541   0.512   9.838  0.0265  0.0500  0.1810
   85loPI   C3A 1353   1.676   0.419   9.304 -0.1576 -0.3258 -0.0540
   85loPI   C4A 1354   1.766   0.320   8.952 -0.3958  0.3292  0.2756
   85loPI   C5A 1355   1.802   0.376   8.484  0.1678 -0.2514  0.3799
   85loPI   C6A 1356   1.652   0.659   8.144  0.0376 -0.3569  0.3290
   85loPI   C1B 1357   2.005   0.475  10.022 -0.1599 -0.2727 -0.2312
   85loPI   C2B 1358   2.071   0.464   9.651  0.0637 -0.0372  0.2599
   85loPI   C3B 1359   2.189   0.520   9.218 -0.0880  0.2921  0.4145
   85loPI   C4B 1360   2.353   0.914   8.967 -0.1102 -0.2503  0.2536
   86loPI    C1 1361   9.336   6.519  10.245  0.3626 -0.4561  0.1904
   86loPI    C2 1362   8.967   6.511  10.400  0.1433  0.1426 -0.2623
   86loPI    C3 1363   9.281   6.586  10.636 -0.0531 -0.0680  0.0744
   86loPI   PO4 1364   9.288   6.486   9.903 -0.0144 -0.2984 -0.2145
   86loPI   GL1 1365   9.529   6.615   9.582  0.2386  0.0838  0.2896
   86loPI   GL2 1366   9.543   6.267   9.532 -0.1961  0.4655 -0.0074
   86loPI   C1A 1367   9.209   6.640   9.271 -0.1697 -0.4473  0.1874
   86loPI   C2A 1368   9.188   6.660   8.883  0.2352 -0.3467  0.2689
   86loPI   C3A 1369   9.369   6.714   8.435  0.2229 -0.0911  0.1452
   86loPI   C4A 1370   9.340   6.932   8.063  0.3746  0.1179  0.0724
   86loPI   C5A 1371   9.019   7.174   7.805  0.0634 -0.2768 -0.1236
   86loPI   C6A 1372   8.573   7.130   7.915  0.3499  0.0851  0.1475
   86loPI   C1B 1373   9.437   5.978   9.310 -0.0726  0.1050 -0.0398
   86loPI   C2B 1374   9.341   5.554   9.052 -0.0195  0.0038 -0.3478
   86loPI   C3B 1375   9.402   5.481   8.570 -0.1585 -0.0574  0.0315
   86loPI   C4B 1376   9.039   5.422   8.329 -0.2168  0.0194  0.1788
   87loPI    C1 1377  10.287   1.963  10.671  0.1161  0.0195 -0.0180
   87loPI    C2 1378  10.406   2.009  11.050 -0.0109  0.2652 -0.0055
   87loPI    C3 1379  10.018   2.041  10.957 -0.0304 -0.1735 -0.1005
   87loPI   PO4 1380  10.392   2.066  10.562  0.0530 -0.0856  0.5124
   87loPI   GL1 1381  10.760   2.029  10.361 -0.0527  0.1391 -0.0346
   87loPI   GL2 1382  10.834   2.421  10.292 -0.0652  0.2205 -0.0664
   87loPI   C1A 1383  10.740   1.871   9.897  0.0237 -0.1443  0.0950
   87loPI   C2A 1384  10.711   1.899   9.456 -0.2148  0.3346 -0.1268
   87loPI   C3A 1385  10.971   1.867   9.110  0.0539  0.1053  0.0975
   87loPI   C4A 1386  11.041   1.986   8.682 -0.2874 -0.2368  0.0960
   87loPI   C5A 1387  11.322   2.250   8.286  0.0180  0.2957  0.0110
   87loPI   C6A 1388  11.217   2.594   8.044 -0.0092 -0.0937  0.1035
   87loPI   C1B 1389  10.716   2.394   9.836 -0.1222  0.1837 -0.0388
   87loPI   C2B 1390  10.758   2.429   9.342  0.2133  0.2311  0.2551
   87loPI   C3B 1391  10.874   2.350   8.909  0.1007 -0.2911  0.2354
   87loPI   C4B 1392  10.809   2.355   8.355  0.2315 -0.2664 -0.4782
   88loPI    C1 1393  18.043   8.049  10.359 -0.1608  0.2510 -0.0943
   88loPI    C2 1394  18.442   8.049  10.379 -0.1654  0.1230  0.0069
   88loPI    C3 1395  18.236   7.724  10.490 -0.2887  0.1177 -0.2326
   88loPI   PO4 1396  18.032   8.315  10.138 -0.2101 -0.1971  0.0294
   88loPI   GL1 1397  18.099   8.512   9.726  0.0132 -0.0453 -0.2842
   88loPI   GL2 1398  18.014   8.266   9.586  0.0359 -0.0707 -0.1074
   88loPI   C1A 1399  18.170   8.780   9.314  0.1061 -0.1781 -0.3208
   88loPI   C2A 1400  18.325   9.046   8.982 -0.0032 -0.0483 -0.1167
   88loPI   C3A 1401  18.314   9.201   8.556  0.0446  0.0691  0.1327
   88loPI   C4A 1402  18.626   9.134   8.356  0.0928  0.1536  0.3128
   88loPI   C5A 1403  19.036   9.070   8.363 -0.2869 -0.2371  0.2488
   88loPI   C6A 1404  19.456   9.011   8.572 -0.2646 -0.2847 -0.2282
   88loPI   C1B 1405  18.279   8.318   9.276 -0.1192  0.0239 -0.5672
   88loPI   C2B 1406  18.360   8.210   8.802 -0.2074  0.1436  0.0699
   88loPI   C3B 1407  18.310   7.810   8.616 -0.3956 -0.0254 -0.1006
   88loPI   C4B 1408  18.053   7.800   8.227  0.0622 -0.2898  0.0019
   89loPI    C1 1409   3.483  13.466  10.493  0.0032 -0.1534  0.2257
   89loPI    C2 1410   3.463  13.294  10.853  0.0879 -0.2087  0.2043
   89loPI    C3 1411   3.601  13.668  10.817 -0.1644 -0.1085  0.2596
   89loPI   PO4 1412   3.420  13.312  10.351 -0.0960 -0.0062  0.2088
   89loPI   GL1 1413   3.344  13.163   9.940 -0.1684 -0.1470 -0.0547
   89loPI   GL2 1414   3.160  13.489   9.966  0.3013 -0.0228 -0.0539
   89loPI   C1A 1415   3.204  13.062   9.598 -0.0419  0.0744  0.1075
   89loPI   C2A 1416   3.274  13.113   9.175  0.1904  0.2283 -0.0705
   89loPI   C3A 1417   3.635  13.136   8.792  0.0975 -0.0739  0.1548
   89loPI   C4A 1418   3.681  12.988   8.368 -0.2293  0.1956 -0.0818
   89loPI   C5A 1419   3.857  13.163   7.953 -0.2299 -0.0354 -0.1621
   89loPI   C6A 1420   4.119  13.487   7.969  0.0112 -0.2527 -0.1479
   89loPI   C1B 1421   3.224  13.563   9.501  0.0319  0.0760 -0.1071
   89loPI   C2B 1422   3.107  13.609   8.979 -0.0979  0.2829 -0.1129
   89loPI   C3B 1423   2.938  13.787   8.581  0.0051  0.2050  0.0334
   89loPI   C4B 1424   3.030  13.669   8.194 -0.1694  0.2417 -0.1065
   90loPI    C1 1425   8.028   8.652  10.539 -0.0712 -0.0564 -0.0050
   90loPI    C2 1426   8.215   8.991  10.643 -0.2493  0.0272  0.0464
   90loPI    C3 1427   8.013   8.781  10.917  0.0574 -0.2491  0.0676
   90loPI   PO4 1428   7.915   8.764  10.275 -0.2581 -0.0732 -0.1673
   90loPI   GL1 1429   8.015   8.822   9.798  0.1177 -0.0025  0.3921
   90loPI   GL2 1430   7.995   9.117   9.561  0.2191  0.0967  0.1913
   90loPI   C1A 1431   7.979   8.543   9.422 -0.3092  0.1728 -0.1921
   90loPI   C2A 1432   8.008   8.534   9.059 -0.0922  0.1624  0.2843
   90loPI   C3A 1433   7.836   8.406   8.683  0.4951 -0.0255  0.2338
   90loPI   C4A 1434   7.734   8.303   8.321 -0.2714 -0.2207  0.2242
   90loPI   C5A 1435   7.934   8.061   7.911  0.1379 -0.1915 -0.2337
   90loPI   C6A 1436   8.252   7.761   7.811  0.0096  0.3017 -0.2045
   90loPI   C1B 1437   8.053   9.028   9.150 -0.2533  0.1518  0.2703
   90loPI   C2B 1438   8.094   8.930   8.680 -0.3643 -0.0663  0.0072
   90loPI   C3B 1439   8.017   8.835   8.320 -0.2182  0.1050  0.0461
   90loPI   C4B 1440   7.873   9.078   7.984  0.1486  0.1392  0.0376
   91loPI    C1 1441  15.790  13.607  10.326 -0.1532 -0.0090 -0.0280
   91loPI    C2 1442  15.874  13.976  10.454  0.0783 -0.0582 -0.0342
   91loPI    C3 1443  15.594  13.760  10.640  0.1977 -0.0156  0.2004
   91loPI   PO4 1444  15.834  13.565  10.026  0.1277 -0.2135  0.3481
   91loPI   GL1 1445  15.701  13.819   9.640  0.3138 -0.0452  0.2251
   91loPI   GL2 1446  16.089  13.807   9.519  0.2179  0.1347 -0.0306
   91loPI   C1A 1447  15.714  13.666   9.241 -0.0099 -0.0562 -0.1611
   91loPI   C2A 1448  15.896  13.590   8.833 -0.3271 -0.1665 -0.0624
   91loPI   C3A 1449  15.928  13.749   8.381 -0.3734  0.3373  0.1490
   91loPI   C4A 1450  16.051  14.146   8.204 -0.2000  0.0672  0.0171
   91loPI   C5A 1451  16.265  14.471   8.214 -0.1957  0.1500  0.0318
   91loPI   C6A 1452  16.493  14.945   8.143 -0.1796  0.2692  0.1299
   91loPI   C1B 1453  16.422  13.892   9.207  0.4525 -0.1988 -0.0456
   91loPI   C2B 1454  16.670  14.056   8.835 -0.0702  0.0111 -0.0626
   91loPI   C3B 1455  16.807  14.176   8.486 -0.1279 -0.1160  0.1631
   91loPI   C4B 1456  16.739  14.405   8.146 -0.0196  0.1055 -0.2767
   92loPI    C1 1457   8.529  10.671  10.439 -0.3517  0.2235 -0.2988
   92loPI    C2 1458   8.176  10.837  10.526 -0.3660  0.0381  0.0099
   92loPI    C3 1459   8.453  10.794  10.812 -0.1756 -0.0165 -0.1808
   92loPI   PO4 1460   8.540  10.900  10.110  0.0182  0.0921 -0.1006
   92loPI   GL1 1461   8.728  11.062   9.726  0.2089 -0.0168  0.0810
   92loPI   GL2 1462   8.614  10.744   9.571 -0.2365  0.0628  0.3851
   92loPI   C1A 1463   8.900  11.215   9.306  0.3008  0.2389 -0.1556
   92loPI   C2A 1464   8.951  11.396   8.974 -0.0268  0.4568 -0.0419
   92loPI   C3A 1465   9.184  11.538   8.658 -0.0208  0.2077 -0.0662
   92loPI   C4A 1466   9.266  11.722   8.250 -0.1491  0.1232 -0.1545
   92loPI   C5A 1467   9.130  12.017   7.946 -0.1993 -0.0739  0.1120
   92loPI   C6A 1468   8.844  12.352   7.767  0.1626 -0.0223 -0.0741
   92loPI   C1B 1469   8.395  11.011   9.386 -0.0733  0.0195 -0.1769
   92loPI   C2B 1470   8.538  11.094   8.991  0.1112 -0.0726 -0.0856
   92loPI   C3B 1471   8.300  11.198   8.649 -0.2912 -0.2263 -0.0297
   92loPI   C4B 1472   8.392  11.331   8.201 -0.0983 -0.2262 -0.0775
   93loPI    C1 1473  18.434   4.652  10.308 -0.0421  0.2134  0.2098
   93loPI    C2 1474  18.684   4.884  10.518  0.0841  0.2267  0.0476
   93loPI    C3 1475  18.291   4.895  10.591  0.1542  0.0141  0.4854
   93loPI   PO4 1476  18.496   4.672  10.050 -0.2485  0.0222 -0.1565
   93loPI   GL1 1477  18.172   4.547   9.653  0.1810 -0.2162 -0.2842
   93loPI   GL2 1478  17.941   4.650   9.646 -0.2937 -0.1433 -0.0433
   93loPI   C1A 1479  18.497   4.369   9.253 -0.1275  0.0547  0.0111
   93loPI   C2A 1480  18.596   4.393   8.814 -0.4369  0.2129  0.0296
   93loPI   C3A 1481  18.516   4.455   8.363 -0.1707  0.1392 -0.0993
   93loPI   C4A 1482  18.516   4.669   7.993 -0.3711 -0.1398  0.3040
   93loPI   C5A 1483  18.482   4.818   7.661  0.0612  0.1517  0.2298
   93loPI   C6A 1484  18.182   5.059   7.517  0.2011 -0.1951 -0.0612
   93loPI   C1B 1485  18.129   4.699   9.225  0.0268  0.0377  0.2104
   93loPI   C2B 1486  18.213   4.733   8.853 -0.4157 -0.1125 -0.2137
   93loPI   C3B 1487  18.256   4.894   8.373  0.0409  0.0224 -0.1740
   93loPI   C4B 1488  18.413   5.119   8.098 -0.2001  0.0569  0.4185
   94loPI    C1 1489  11.996  16.834  10.872  0.0026  0.2906  0.2690
   94loPI    C2 1490  12.289  17.011  10.664  0.1271  0.0434  0.2302
   94loPI    C3 1491  12.155  17.177  11.002  0.1492  0.2790  0.1251
   94loPI   PO4 1492  11.857  16.719  10.634  0.0700  0.0461 -0.2074
   94loPI   GL1 1493  11.798  16.787  10.177 -0.2127  0.1012 -0.0084
   94loPI   GL2 1494  11.536  17.036  10.199  0.1546 -0.1408  0.0054
   94loPI   C1A 1495  11.803  16.688   9.694  0.1472  0.2559 -0.1949
   94loPI   C2A 1496  11.800  16.560   9.220 -0.0186  0.1417  0.2328
   94loPI   C3A 1497  11.919  16.595   8.854  0.0765 -0.2792  0.3266
   94loPI   C4A 1498  11.953  16.462   8.463  0.2760  0.1879 -0.0642
   94loPI   C5A 1499  11.972  15.988   8.520 -0.0710 -0.0519  0.1775
   94loPI   C6A 1500  12.112  15.587   8.398 -0.2684  0.0286  0.3354
   94loPI   C1B 1501  11.387  17.048   9.726 -0.0161  0.0400 -0.3711
   94loPI   C2B 1502  11.503  17.025   9.312  0.3435  0.0533  0.1365
   94loPI   C3B 1503  11.696  16.999   8.893  0.1443  0.1245 -0.2419
   94loPI   C4B 1504  11.732  17.087   8.433 -0.2804  0.3489  0.1210
   95loPI    C1 1505   6.107   8.467  10.176  0.2351  0.0347 -0.1132
   95loPI    C2 1506   6.190   8.507  10.566  0.0075  0.0331 -0.0633
   95loPI    C3 1507   5.985   8.189  10.437  0.1940 -0.0319 -0.2031
   95loPI   PO4 1508   6.369   8.420  10.123 -0.2079  0.0946  0.0922
   95loPI   GL1 1509   6.612   8.651   9.840 -0.0839  0.1432  0.0271
   95loPI   GL2 1510   6.730   8.951   9.867  0.2021  0.2911  0.1929
   95loPI   C1A 1511   6.685   8.797   9.398 -0.0219 -0.2376  0.1079
   95loPI   C2A 1512   6.479   8.945   9.006 -0.3113  0.0303  0.2223
   95loPI   C3A 1513   6.642   9.095   8.573  0.0632  0.3610 -0.1663
   95loPI   C4A 1514   6.915   8.880   8.367 -0.4259  0.0525  0.1581
   95loPI   C5A 1515   7.195   8.481   8.193 -0.0507 -0.1667 -0.2926
   95loPI   C6A 1516   7.351   8.242   7.838  0.2706 -0.1190  0.2950
   95loPI   C1B 1517   6.766   9.287   9.473 -0.1400 -0.1679  0.1932
   95loPI   C2B 1518   6.585   9.395   8.945 -0.1058  0.2579 -0.0019
   95loPI   C3B 1519   6.287   9.414   8.629  0.2745 -0.0780 -0.0235
   95loPI   C4B 1520   5.952   9.451   8.314  0.2588  0.1005 -0.3171
   96loPI    C1 1521   6.536  15.498  10.258  0.1767 -0.1861  0.1970
   96loPI    C2 1522   6.804  15.791  10.206  0.1305 -0.2010 -0.1432
   96loPI    C3 1523   6.894  15.416  10.099  0.0084 -0.2223 -0.1729
   96loPI   PO4 1524   6.333  15.521  10.151 -0.1164  0.1726  0.0340
   96loPI   GL1 1525   6.278  15.611   9.745  0.4244  0.1166 -0.1150
   96loPI   GL2 1526   6.626  15.784   9.746  0.3591 -0.1734 -0.0356
   96loPI   C1A 1527   6.424  15.705   9.321  0.2093 -0.0699  0.2402
   96loPI   C2A 1528   6.466  15.793   8.821  0.0384 -0.1080 -0.2873
   96loPI   C3A 1529   6.609  15.831   8.466 -0.2587 -0.0944 -0.0100
   96loPI   C4A 1530   6.582  15.934   8.060 -0.0336 -0.1417  0.1214
   96loPI   C5A 1531   6.404  16.216   7.765 -0.0238  0.0090 -0.3242
   96loPI   C6A 1532   6.232  16.651   7.623 -0.0000 -0.4292 -0.0436
   96loPI   C1B 1533   6.826  15.536   9.529  0.1364 -0.3373  0.2731
   96loPI   C2B 1534   6.977  15.479   9.086  0.0856  0.2726  0.0110
   96loPI   C3B 1535   7.004  15.747   8.764  0.0417 -0.4501 -0.3184
   96loPI   C4B 1536   7.032  15.727   8.298  0.2110  0.0761 -0.2960
   97loPI    C1 1537  11.342  18.476  10.131  0.0201  0.1162 -0.0411
   97loPI    C2 1538  11.561  18.596  10.443  0.2504 -0.0013 -0.1550
   97loPI    C3 1539  11.164  18.648  10.445  0.2381 -0.0823  0.1951
   97loPI   PO4 1540  11.573  18.693   9.980 -0.3181  0.1582  0.0511
   97loPI   GL1 1541  11.668  18.507   9.694 -0.0302  0.2406  0.1603
   97loPI   GL2 1542  11.532  18.205   9.738 -0.4415  0.2872  0.1514
   97loPI   C1A 1543  11.653  18.463   9.241  0.0652  0.1332 -0.2056
   97loPI   C2A 1544  11.687  18.363   8.880 -0.0321 -0.2171  0.3230
   97loPI   C3A 1545  11.521  18.164   8.558  0.2254 -0.0875 -0.0631
   97loPI   C4A 1546  11.181  17.959   8.435 -0.0141 -0.1979  0.0231
   97loPI   C5A 1547  10.951  17.671   8.105 -0.3145  0.0249 -0.1726
   97loPI   C6A 1548  10.963  17.267   7.792  0.1788 -0.1404 -0.0463
   97loPI   C1B 1549  11.610  17.916   9.471 -0.2699  0.2273 -0.0611
   97loPI   C2B 1550  11.449  17.892   9.125  0.2480  0.0336  0.1596
   97loPI   C3B 1551  11.475  17.641   8.755 -0.2954 -0.3143 -0.0732
   97loPI   C4B 1552  11.325  17.443   8.408 -0.0391 -0.0379  0.1821
   98loPI    C1 1553   5.013   5.807  10.187  0.0570  0.1099  0.1138
   98loPI    C2 1554   5.101   6.098  10.447  0.2895  0.0472  0.1077
   98loPI    C3 1555   5.182   5.717  10.538 -0.0501 -0.0227  0.1324
   98loPI   PO4 1556   4.740   5.969  10.098  0.3360  0.0024 -0.0183
   98loPI   GL1 1557   4.721   6.006   9.637  0.1463  0.1750 -0.1041
   98loPI   GL2 1558   5.057   6.029   9.627  0.1399  0.0842  0.1410
   98loPI   C1A 1559   4.637   5.900   9.280 -0.1531  0.2167 -0.0221
   98loPI   C2A 1560   4.611   5.803   8.812 -0.3205  0.1914  0.1173
   98loPI   C3A 1561   4.646   5.790   8.421 -0.0734 -0.1058  0.0652
   98loPI   C4A 1562   4.954   5.689   8.159 -0.1042  0.0822 -0.1104
   98loPI   C5A 1563   5.172   5.773   7.911 -0.0861 -0.0478  0.0615
   98loPI   C6A 1564   5.438   5.925   7.658  0.1067 -0.0722  0.3714
   98loPI   C1B 1565   5.404   6.215   9.393 -0.0263  0.0827  0.2053
   98loPI   C2B 1566   5.510   6.599   9.158 -0.0268  0.1116 -0.0478
   98loPI   C3B 1567   5.250   7.026   9.302  0.0451 -0.0505  0.2927
   98loPI   C4B 1568   4.770   7.137   9.147  0.1907 -0.0911  0.0975
   99loPI    C1 1569   0.156   6.265  10.371  0.0931  0.1518  0.2103
   99loPI    C2 1570   0.405   5.966  10.464 -0.0319 -0.0400 -0.0577
   99loPI    C3 1571   0.075   6.026  10.681 -0.0480 -0.1486 -0.0520
   99loPI   PO4 1572   0.276   6.402  10.165  0.1943  0.0432 -0.0815
   99loPI   GL1 1573   0.288   6.609   9.803 -0.3482  0.0239  0.0819
   99loPI   GL2 1574   0.577   6.741   9.820 -0.0718  0.0651 -0.1179
   99loPI   C1A 1575   0.465   6.721   9.309 -0.1342 -0.1706 -0.2805
   99loPI   C2A 1576   0.584   6.727   8.882 -0.3856 -0.0261  0.0774
   99loPI   C3A 1577   0.803   7.040   8.549  0.2045 -0.2491  0.0421
   99loPI   C4A 1578   0.759   7.035   8.100  0.0311  0.1101  0.0099
   99loPI   C5A 1579   0.467   7.223   7.932  0.0691  0.2740 -0.1417
   99loPI   C6A 1580   0.345   7.544   7.754  0.0580  0.2849  0.1441
   99loPI   C1B 1581   0.640   6.328   9.598  0.1154  0.1867  0.0049
   99loPI   C2B 1582   0.896   6.370   9.184 -0.0363  0.2867 -0.0928
   99loPI   C3B 1583   1.136   6.486   8.685  0.0553  0.1228 -0.2417
   99loPI   C4B 1584   1.086   6.679   8.290 -0.1403 -0.0253 -0.3061
  100loPI    C1 1585   4.223   5.684  10.333 -0.1633  0.1768  0.0384
  100loPI    C2 1586   3.988   5.495  10.597 -0.2011  0.2751  0.0759
  100loPI    C3 1587   4.018   5.894  10.605  0.0126  0.2598  0.1083
  100loPI   PO4 1588   4.166   5.583  10.112  0.3085 -0.1814  0.0513
  100loPI   GL1 1589   4.204   5.832   9.689  0.1046 -0.1259  0.1217
  100loPI   GL2 1590   3.897   5.730   9.782  0.0753 -0.1819  0.4256
  100loPI   C1A 1591   4.170   5.920   9.164 -0.0307  0.0714  0.4460
  100loPI   C2A 1592   4.167   5.907   8.644 -0.1503  0.5005  0.2419
  100loPI   C3A 1593   4.119   6.071   8.270 -0.1220  0.3964  0.3272
  100loPI   C4A 1594   4.306   6.287   7.942  0.2555 -0.1251  0.1274
  100loPI   C5A 1595   4.153   6.745   7.845 -0.0956  0.1249  0.1694
  100loPI   C6A 1596   3.979   6.901   7.581 -0.2318 -0.1152  0.3305
  100loPI   C1B 1597   3.759   5.575   9.392 -0.0833  0.3627 -0.0193
  100loPI   C2B 1598   3.856   5.620   8.940 -0.0513 -0.1938  0.0152
  100loPI   C3B 1599   3.767   5.554   8.560  0.0240 -0.2377 -0.0339
  100loPI   C4B 1600   3.710   5.409   8.227  0.1351  0.1863  0.1868
  101loPI    C1 1601   3.690   0.926  10.364 -0.0652 -0.1049  0.1417
  101loPI    C2 1602   3.746   0.535  10.297 -0.0605 -0.1157  0.2082
  101loPI    C3 1603   3.896   0.706  10.626  0.2232  0.0116  0.0163
  101loPI   PO4 1604   3.814   0.989  10.130  0.2652  0.0700 -0.1428
  101loPI   GL1 1605   3.582   1.009   9.741  0.0683 -0.1153 -0.3676
  101loPI   GL2 1606   3.880   1.222   9.678  0.0206 -0.0134  0.0141
  101loPI   C1A 1607   3.363   0.631   9.916 -0.0251  0.0507  0.0934
  101loPI   C2A 1608   3.194   0.363   9.663  0.0764  0.0237  0.0767
  101loPI   C3A 1609   3.320   0.257   9.154 -0.2345 -0.1115  0.3288
  101loPI   C4A 1610   3.254   0.502   8.893  0.2100  0.0114  0.0326
  101loPI   C5A 1611   3.246   0.709   8.534  0.1803 -0.3929 -0.1850
  101loPI   C6A 1612   3.494   0.848   8.218  0.2312 -0.0647  0.0508
  101loPI   C1B 1613   3.879   0.889   9.392  0.0415 -0.5443 -0.0251
  101loPI   C2B 1614   3.738   0.466   9.213  0.1040 -0.3049 -0.1259
  101loPI   C3B 1615   3.749   0.371   8.861 -0.0362  0.0822 -0.0722
  101loPI   C4B 1616   3.801   0.550   8.526  0.0023 -0.0445  0.2092
  102loPI    C1 1617   1.990   9.817  10.475 -0.0412  0.1702 -0.1224
  102loPI    C2 1618   1.639   9.880  10.655 -0.0045 -0.1847  0.0824
  102loPI    C3 1619   1.861   9.563  10.755  0.3127 -0.0393 -0.1432
  102loPI   PO4 1620   1.955   9.839  10.239 -0.0876  0.3613  0.0913
  102loPI   GL1 1621   1.908   9.645   9.839  0.3358 -0.2113  0.3157
  102loPI   GL2 1622   1.962   9.361   9.580  0.2503  0.1161  0.0792
  102loPI   C1A 1623   1.807   9.746   9.373  0.0309 -0.2046  0.1680
  102loPI   C2A 1624   1.832   9.788   8.783  0.0367 -0.0340  0.1211
  102loPI   C3A 1625   1.811  10.213   8.473  0.1261 -0.0369  0.2800
  102loPI   C4A 1626   1.634  10.254   8.053  0.5686 -0.1240  0.1569
  102loPI   C5A 1627   1.500   9.857   7.792  0.0807 -0.3464 -0.1335
  102loPI   C6A 1628   1.448   9.462   7.701 -0.1240  0.0327  0.3343
  102loPI   C1B 1629   2.043   9.119   9.161  0.3008  0.2299 -0.1391
  102loPI   C2B 1630   2.021   8.908   8.736 -0.2595  0.4081  0.0538
  102loPI   C3B 1631   2.238   9.046   8.358 -0.1763 -0.1155  0.1578
  102loPI   C4B 1632   2.584   9.200   8.087  0.2755 -0.0854  0.1510
  103loPI    C1 1633   8.885  10.268  10.360  0.0183  0.0929  0.1140
  103loPI    C2 1634   8.761   9.936  10.544 -0.1555  0.1118  0.0334
  103loPI    C3 1635   8.862  10.258  10.759 -0.0389  0.0256  0.1093
  103loPI   PO4 1636   9.031  10.111  10.119 -0.1820  0.1153 -0.1825
  103loPI   GL1 1637   9.414   9.962   9.989 -0.2225  0.1743 -0.0211
  103loPI   GL2 1638   9.385   9.721   9.806 -0.0554  0.0286 -0.1698
  103loPI   C1A 1639   9.484  10.283   9.529  0.2325 -0.0672  0.2047
  103loPI   C2A 1640   9.347  10.191   9.187  0.1339 -0.0037  0.2478
  103loPI   C3A 1641   9.212  10.325   8.818  0.1392  0.0682 -0.1412
  103loPI   C4A 1642   9.396  10.192   8.351  0.0196 -0.0347 -0.3556
  103loPI   C5A 1643   9.260  10.000   8.011  0.0284 -0.2560  0.0414
  103loPI   C6A 1644   9.262   9.602   8.039  0.0748 -0.2175  0.3024
  103loPI   C1B 1645   9.165   9.841   9.536  0.2916  0.3714  0.4884
  103loPI   C2B 1646   8.955   9.917   9.205 -0.0598  0.0767  0.1535
  103loPI   C3B 1647   8.781  10.046   8.849  0.2517  0.0384  0.0881
  103loPI   C4B 1648   8.808  10.295   8.474  0.1719 -0.0948 -0.0666
  104loPI    C1 1649   7.754  11.204   9.950  0.0825 -0.2061 -0.0291
  104loPI    C2 1650   8.132  11.147   9.834  0.0546 -0.1276 -0.1608
  104loPI    C3 1651   8.053  11.252  10.212  0.1608 -0.1854 -0.1219
  104loPI   PO4 1652   7.637  11.011   9.825 -0.0733  0.1809 -0.1290
  104loPI   GL1 1653   7.296  10.987   9.593 -0.1671 -0.2695  0.0127
  104loPI   GL2 1654   7.350  10.594   9.504 -0.0707  0.1492 -0.0700
  104loPI   C1A 1655   7.436  11.071   9.145 -0.1580  0.0410  0.1955
  104loPI   C2A 1656   7.403  11.057   8.733 -0.0250  0.2063 -0.1872
  104loPI   C3A 1657   7.436  10.936   8.356 -0.2447  0.1880 -0.3582
  104loPI   C4A 1658   7.625  10.625   8.000  0.0565  0.0567 -0.1046
  104loPI   C5A 1659   7.873  10.352   7.866  0.2933 -0.1611 -0.1198
  104loPI   C6A 1660   7.981  10.020   7.688 -0.1664 -0.4268 -0.0337
  104loPI   C1B 1661   7.460  10.501   9.022 -0.0320  0.2967 -0.2993
  104loPI   C2B 1662   7.353  10.507   8.604  0.0956 -0.0446  0.2912
  104loPI   C3B 1663   7.146  10.516   8.215  0.2697 -0.3125  0.0666
  104loPI   C4B 1664   7.079  10.493   7.818  0.0422  0.0420  0.0065
  105loPI    C1 1665   0.664   4.792  10.257  0.2563 -0.2406 -0.1087
  105loPI    C2 1666   0.688   5.131  10.468  0.1111 -0.2926 -0.0069
  105loPI    C3 1667   0.969   5.044  10.197 -0.0068  0.0527 -0.2483
  105loPI   PO4 1668   0.499   4.769  10.117 -0.0251 -0.1064 -0.0053
  105loPI   GL1 1669   0.406   4.806   9.718  0.1306  0.2209 -0.0317
  105loPI   GL2 1670   0.361   4.450   9.740  0.1371 -0.1445  0.2681
  105loPI   C1A 1671   0.206   4.758   9.413 -0.0514  0.1092  0.2375
  105loPI   C2A 1672   0.281   4.851   9.054 -0.0187 -0.1100 -0.3082
  105loPI   C3A 1673   0.317   4.828   8.665  0.3303 -0.1136 -0.0510
  105loPI   C4A 1674   0.472   4.864   8.242 -0.0311  0.4941  0.2193
  105loPI   C5A 1675   0.507   4.720   7.737 -0.2749 -0.0956 -0.1476
  105loPI   C6A 1676   0.882   4.503   7.671 -0.0426 -0.5809  0.0615
  105loPI   C1B 1677   0.716   4.402   9.510 -0.3342  0.1519 -0.1571
  105loPI   C2B 1678   0.624   4.466   9.105 -0.1554 -0.2722  0.0672
  105loPI   C3B 1679   0.698   4.506   8.627 -0.0058  0.1956  0.2482
  105loPI   C4B 1680   0.810   4.490   8.171 -0.1859 -0.0109  0.5539
  106loPI    C1 1681  13.055   3.666  10.080 -0.0479 -0.2131  0.0168
  106loPI    C2 1682  12.733   3.633  10.315 -0.0718  0.0371  0.0224
  106loPI    C3 1683  13.013   3.346  10.316 -0.1115 -0.0032  0.2950
  106loPI   PO4 1684  13.168   3.934  10.078  0.1382 -0.1172 -0.3739
  106loPI   GL1 1685  13.060   4.122   9.700  0.2625  0.3097 -0.1454
  106loPI   GL2 1686  12.863   4.211   9.580 -0.0977  0.1286 -0.1696
  106loPI   C1A 1687  13.007   3.656   9.491 -0.1569 -0.3228  0.0604
  106loPI   C2A 1688  12.951   3.682   8.968  0.3814 -0.2330  0.0791
  106loPI   C3A 1689  12.923   3.400   8.617  0.2709 -0.0356 -0.1853
  106loPI   C4A 1690  12.714   3.024   8.602 -0.1560  0.1346 -0.0860
  106loPI   C5A 1691  12.614   2.694   8.334  0.0979 -0.2191  0.0202
  106loPI   C6A 1692  12.454   2.720   7.875  0.0431  0.0107 -0.2500
  106loPI   C1B 1693  12.918   4.165   9.109 -0.4493 -0.0660  0.0074
  106loPI   C2B 1694  13.096   4.334   8.767  0.2652 -0.1963  0.1347
  106loPI   C3B 1695  12.822   4.456   8.340  0.2369  0.1511 -0.1107
  106loPI   C4B 1696  12.879   4.394   7.825 -0.3198  0.2434  0.0699
  107loPI    C1 1697  14.165  10.629   9.938  0.0473 -0.1444  0.2752
  107loPI    C2 1698  14.041  10.933  10.167 -0.0343  0.3877 -0.4398
  107loPI    C3 1699  13.774  10.682  10.006  0.0244  0.0008  0.0428
  107loPI   PO4 1700  14.318  10.684   9.805 -0.2574 -0.1863 -0.0167
  107loPI   GL1 1701  14.652  10.670   9.518 -0.1333  0.3823 -0.1414
  107loPI   GL2 1702  14.488  10.411   9.421  0.1924 -0.0448  0.3032
  107loPI   C1A 1703  14.888  10.553   9.148  0.0298 -0.1481 -0.0476
  107loPI   C2A 1704  14.747  10.473   8.697 -0.1086 -0.2096  0.0035
  107loPI   C3A 1705  14.923  10.370   8.269 -0.0963  0.1895  0.1174
  107loPI   C4A 1706  15.024  10.343   7.827 -0.1126  0.1921 -0.2382
  107loPI   C5A 1707  15.352  10.358   7.598 -0.1907 -0.1776  0.0732
  107loPI   C6A 1708  15.694  10.368   7.860  0.0070  0.1828 -0.1440
  107loPI   C1B 1709  14.356  10.361   9.053  0.0879  0.0307 -0.2992
  107loPI   C2B 1710  14.082  10.256   8.656  0.2778  0.0289  0.1234
  107loPI   C3B 1711  13.972  10.633   8.328  0.0952 -0.4836  0.2422
  107loPI   C4B 1712  14.313  10.895   8.071  0.2466  0.1257  0.2989
  108loPI    C1 1713   3.343   3.393  10.204 -0.0856  0.0603  0.1122
  108loPI    C2 1714   3.489   3.611  10.506  0.0422 -0.0617  0.1394
  108loPI    C3 1715   3.110   3.485  10.516 -0.1305  0.4219 -0.0233
  108loPI   PO4 1716   3.473   3.275  10.134  0.0892  0.1477 -0.0078
  108loPI   GL1 1717   3.822   3.275   9.876 -0.0953 -0.2061 -0.3855
  108loPI   GL2 1718   4.035   3.111   9.742 -0.0802 -0.0879 -0.0267
  108loPI   C1A 1719   3.714   3.351   9.403 -0.1691 -0.0076 -0.1205
  108loPI   C2A 1720   3.657   3.287   8.985  0.3728  0.0826 -0.0222
  108loPI   C3A 1721   3.623   3.264   8.551 -0.0266 -0.0348 -0.2829
  108loPI   C4A 1722   3.965   3.248   8.271 -0.2100  0.0247 -0.1278
  108loPI   C5A 1723   4.184   2.918   8.032  0.1416  0.0763 -0.0220
  108loPI   C6A 1724   4.183   2.335   8.035  0.1311  0.0544  0.2792
  108loPI   C1B 1725   4.119   3.072   9.236 -0.1423 -0.1278 -0.1035
  108loPI   C2B 1726   4.117   3.042   8.786  0.2612 -0.1541 -0.1732
  108loPI   C3B 1727   3.967   2.670   8.487  0.0531 -0.1710  0.1757
  108loPI   C4B 1728   3.972   2.210   8.476  0.1173  0.1265  0.1388
  109loPI    C1 1729   7.039   0.896  10.341  0.0080  0.2242  0.0299
  109loPI    C2 1730   7.285   0.703  10.590  0.1325  0.1016 -0.1855
  109loPI    C3 1731   7.085   1.025  10.717  0.0558 -0.0644  0.1255
  109loPI   PO4 1732   7.119   0.830  10.121  0.1895 -0.5201  0.0138
  109loPI   GL1 1733   7.073   0.748   9.742 -0.0951 -0.1877 -0.0495
  109loPI   GL2 1734   7.044   0.441   9.787 -0.0913 -0.2397  0.2358
  109loPI   C1A 1735   6.887   0.668   9.347 -0.0753  0.0570  0.2459
  109loPI   C2A 1736   7.032   0.637   8.994  0.0795  0.0289  0.1071
  109loPI   C3A 1737   6.985   0.549   8.528 -0.1530 -0.2112 -0.3492
  109loPI   C4A 1738   6.933   0.477   8.072 -0.1418 -0.0274 -0.0166
  109loPI   C5A 1739   6.861   0.519   7.649 -0.0054  0.0732  0.2345
  109loPI   C6A 1740   6.641   0.732   7.368 -0.0713  0.2875  0.3579
  109loPI   C1B 1741   6.961   0.183   9.365  0.0113 -0.1000 -0.0972
  109loPI   C2B 1742   7.130   0.111   8.896 -0.1564  0.1881 -0.0006
  109loPI   C3B 1743   7.300   0.166   8.468 -0.1569 -0.1275  0.0337
  109loPI   C4B 1744   7.231   0.054   8.049  0.2420 -0.2863 -0.4536
  110loPI    C1 1745   9.194  16.739  10.756 -0.1813 -0.1292 -0.0405
  110loPI    C2 1746   9.202  17.135  10.706 -0.3354 -0.1203  0.0011
  110loPI    C3 1747   8.955  16.973  10.975 -0.0145 -0.2183  0.2425
  110loPI   PO4 1748   9.291  16.600  10.505 -0.1863  0.0302 -0.1031
  110loPI   GL1 1749   9.259  16.579  10.049  0.0618  0.2748  0.0978
  110loPI   GL2 1750   8.853  16.614   9.960  0.1234 -0.5134  0.0889
  110loPI   C1A 1751   9.311  16.353   9.769 -0.1987  0.1634  0.0758
  110loPI   C2A 1752   9.201  16.265   9.290 -0.0359 -0.2510 -0.0262
  110loPI   C3A 1753   9.212  16.270   8.859 -0.3428 -0.1075  0.0079
  110loPI   C4A 1754   9.292  15.889   8.538 -0.0083  0.0674  0.1813
  110loPI   C5A 1755   9.039  15.928   8.132  0.0627  0.1383 -0.0449
  110loPI   C6A 1756   8.804  15.884   7.791  0.2084 -0.0263  0.3699
  110loPI   C1B 1757   8.801  16.345   9.634  0.0370  0.0065 -0.2316
  110loPI   C2B 1758   8.773  16.543   9.211  0.4036  0.1547 -0.0949
  110loPI   C3B 1759   8.730  16.541   8.749 -0.0929  0.4273  0.0238
  110loPI   C4B 1760   8.889  16.395   8.430  0.0073  0.2522 -0.0308
  111loPI    C1 1761  16.130   1.304  10.880  0.0010  0.0672 -0.1324
  111loPI    C2 1762  16.151   1.642  11.093 -0.1733  0.0766 -0.1285
  111loPI    C3 1763  15.908   1.346  11.211  0.1306 -0.1341 -0.0173
  111loPI   PO4 1764  16.139   1.370  10.572  0.3396  0.2970  0.3111
  111loPI   GL1 1765  16.409   1.247  10.298 -0.1118 -0.2980 -0.1501
  111loPI   GL2 1766  16.196   1.002  10.214 -0.2474  0.1083 -0.0546
  111loPI   C1A 1767  16.554   1.385   9.939  0.3181 -0.0631 -0.0007
  111loPI   C2A 1768  16.343   1.393   9.540  0.3955  0.1749  0.1255
  111loPI   C3A 1769  16.180   1.369   9.136  0.1247 -0.0677 -0.0459
  111loPI   C4A 1770  16.102   1.368   8.665  0.0741  0.0204  0.2801
  111loPI   C5A 1771  15.802   1.504   8.377  0.1206 -0.3591 -0.0980
  111loPI   C6A 1772  15.433   1.531   8.260  0.0641  0.1425  0.0185
  111loPI   C1B 1773  16.058   1.207   9.902  0.1345 -0.2111 -0.1209
  111loPI   C2B 1774  15.826   1.538   9.924 -0.0545  0.1767  0.3049
  111loPI   C3B 1775  15.506   1.954   9.730 -0.0250 -0.0597 -0.2026
  111loPI   C4B 1776  15.516   1.991   9.311  0.0365 -0.0953 -0.0776
  112loPI    C1 1777   2.508   5.571  10.320  0.0009 -0.0299 -0.0032
  112loPI    C2 1778   2.456   5.714  10.690  0.0423 -0.1632  0.0549
  112loPI    C3 1779   2.607   5.949  10.403 -0.1840  0.0033  0.0698
  112loPI   PO4 1780   2.232   5.517  10.225  0.0038  0.1347 -0.2315
  112loPI   GL1 1781   2.331   5.400   9.801 -0.3292  0.0805  0.0232
  112loPI   GL2 1782   2.466   5.740   9.863 -0.0577  0.1024 -0.2413
  112loPI   C1A 1783   1.937   5.384   9.527 -0.1217 -0.1692 -0.3713
  112loPI   C2A 1784   1.834   5.386   9.116  0.0341 -0.0601  0.0344
  112loPI   C3A 1785   1.736   5.197   8.755  0.1097 -0.5450  0.0874
  112loPI   C4A 1786   1.895   5.112   8.310 -0.2881  0.0324 -0.1716
  112loPI   C5A 1787   1.843   5.192   7.851 -0.2412 -0.1263  0.0832
  112loPI   C6A 1788   1.761   5.562   7.671  0.0333  0.1479 -0.2148
  112loPI   C1B 1789   2.345   5.798   9.449 -0.1898 -0.1139  0.0021
  112loPI   C2B 1790   2.358   5.689   9.035  0.0520 -0.0016 -0.1459
  112loPI   C3B 1791   2.709   5.545   8.822 -0.0846 -0.2247  0.0717
  112loPI   C4B 1792   3.022   5.255   9.022  0.3273 -0.1664  0.1466
  113loPI    C1 1793   8.938  18.045  10.546  0.1949  0.1136  0.1332
  113loPI    C2 1794   9.303  18.195  10.478  0.1713  0.1655  0.1210
  113loPI    C3 1795   9.038  18.402  10.696  0.1444  0.1342  0.1182
  113loPI   PO4 1796   8.831  18.023  10.306 -0.0263 -0.3116  0.1921
  113loPI   GL1 1797   8.678  17.767   9.984 -0.0164  0.1588  0.0503
  113loPI   GL2 1798   8.529  17.935   9.861  0.0986  0.0025  0.0464
  113loPI   C1A 1799   8.859  17.521   9.746 -0.0787  0.3777 -0.3586
  113loPI   C2A 1800   8.908  17.469   9.361 -0.0069 -0.2246 -0.1365
  113loPI   C3A 1801   8.926  17.557   8.927 -0.3079 -0.2494 -0.1407
  113loPI   C4A 1802   9.000  17.427   8.636  0.1883  0.0325  0.2394
  113loPI   C5A 1803   9.065  17.032   8.367 -0.2982 -0.4862 -0.2642
  113loPI   C6A 1804   8.968  16.801   8.033  0.0589  0.1009 -0.0646
  113loPI   C1B 1805   8.657  17.931   9.500 -0.4613  0.0461  0.1691
  113loPI   C2B 1806   8.688  17.942   9.234  0.3609  0.1138  0.0933
  113loPI   C3B 1807   8.914  18.108   8.898  0.0658 -0.2836 -0.0297
  113loPI   C4B 1808   9.119  18.314   8.622 -0.2455 -0.1601  0.1551
  114loPI    C1 1809  17.916  12.477  10.292  0.2781  0.1800 -0.0470
  114loPI    C2 1810  18.176  12.497  10.594  0.1281 -0.1907  0.1129
  114loPI    C3 1811  17.828  12.307  10.643  0.1079 -0.2666 -0.2977
  114loPI   PO4 1812  18.022  12.699  10.193  0.0517  0.4805  0.1437
  114loPI   GL1 1813  18.095  13.017   9.859 -0.1384  0.1963 -0.1616
  114loPI   GL2 1814  18.126  12.795   9.656 -0.0007 -0.2549  0.1507
  114loPI   C1A 1815  18.307  13.303   9.520  0.0973  0.1942 -0.0412
  114loPI   C2A 1816  18.572  13.411   9.179 -0.1604  0.3524  0.1127
  114loPI   C3A 1817  18.813  13.202   8.787 -0.0445  0.2960  0.2044
  114loPI   C4A 1818  18.850  13.416   8.424 -0.2099  0.1319  0.1574
  114loPI   C5A 1819  19.137  13.286   8.230  0.0227  0.1816  0.2456
  114loPI   C6A 1820  19.381  13.489   7.913 -0.1430  0.0061  0.0537
  114loPI   C1B 1821  17.986  12.924   9.248 -0.0717 -0.0169  0.1102
  114loPI   C2B 1822  17.784  13.043   8.840  0.0044  0.0401 -0.3851
  114loPI   C3B 1823  17.853  13.334   8.575 -0.2275 -0.0008  0.1575
  114loPI   C4B 1824  18.065  13.377   8.237 -0.2377  0.1088 -0.0093
  115loPI    C1 1825   3.574  17.616  10.679  0.1754 -0.0006  0.1588
  115loPI    C2 1826   3.289  17.340  10.729  0.1081  0.0533  0.0756
  115loPI    C3 1827   3.375  17.595  11.025  0.2332 -0.1143  0.1857
  115loPI   PO4 1828   3.498  17.703  10.422 -0.3319 -0.2235  0.2188
  115loPI   GL1 1829   3.361  17.504  10.132  0.1915 -0.1188  0.1591
  115loPI   GL2 1830   3.137  17.440  10.041 -0.1761 -0.1012  0.0942
  115loPI   C1A 1831   3.465  17.265   9.690 -0.1516  0.3534 -0.0006
  115loPI   C2A 1832   3.648  17.224   9.347  0.0009 -0.0339 -0.0840
  115loPI   C3A 1833   3.627  16.984   9.039  0.1435 -0.0883  0.0959
  115loPI   C4A 1834   3.445  16.580   8.784  0.3450 -0.1945 -0.0683
  115loPI   C5A 1835   3.078  16.656   8.578  0.1301 -0.0171  0.2996
  115loPI   C6A 1836   2.752  16.363   8.334 -0.0139 -0.0925 -0.0966
  115loPI   C1B 1837   3.001  17.431   9.715  0.2528 -0.1410  0.0524
  115loPI   C2B 1838   2.683  17.170   9.478  0.1845 -0.0285 -0.2462
  115loPI   C3B 1839   2.619  16.939   9.000 -0.1677  0.3986 -0.0150
  115loPI   C4B 1840   2.577  16.747   8.587 -0.1644  0.1658  0.2428
  116loPI    C1 1841  16.774   2.710  10.693 -0.1209  0.3076 -0.0556
  116loPI    C2 1842  17.088   2.481  10.598 -0.2237  0.0603  0.1887
  116loPI    C3 1843  17.141   2.815  10.813 -0.1170  0.0739  0.1422
  116loPI   PO4 1844  16.683   2.766  10.444  0.3742  0.1549  0.2087
  116loPI   GL1 1845  16.820   2.678   9.964 -0.0336 -0.0943 -0.0943
  116loPI   GL2 1846  16.966   2.913   9.902 -0.0868  0.1199 -0.0612
  116loPI   C1A 1847  16.548   2.403   9.682  0.5059  0.1894  0.0502
  116loPI   C2A 1848  16.415   2.409   9.254  0.1311  0.1312  0.0871
  116loPI   C3A 1849  16.480   2.381   8.776  0.1546  0.4009  0.2199
  116loPI   C4A 1850  16.589   2.327   8.416 -0.1106 -0.0444 -0.1130
  116loPI   C5A 1851  16.533   2.170   8.033  0.1884 -0.0729  0.1505
  116loPI   C6A 1852  16.620   1.987   7.577  0.3276 -0.1486  0.4493
  116loPI   C1B 1853  16.647   2.862   9.504  0.1134 -0.0144 -0.0070
  116loPI   C2B 1854  16.520   2.804   9.087 -0.0727  0.1414 -0.1489
  116loPI   C3B 1855  16.617   2.855   8.620 -0.2011 -0.1031  0.2029
  116loPI   C4B 1856  16.739   2.900   8.182  0.2099 -0.2240  0.2129
  117loPI    C1 1857   9.190   3.058  10.743  0.1238 -0.1646  0.2569
  117loPI    C2 1858   8.883   3.161  10.978  0.0864  0.0855  0.1016
  117loPI    C3 1859   9.081   3.442  10.772  0.1886 -0.1172 -0.0810
  117loPI   PO4 1860   9.120   2.796  10.528  0.2174 -0.1306  0.1244
  117loPI   GL1 1861   8.927   2.492  10.237  0.1806  0.0389 -0.1389
  117loPI   GL2 1862   8.612   2.764  10.245 -0.0160 -0.0944 -0.0858
  117loPI   C1A 1863   8.873   2.492   9.795  0.3744 -0.0890  0.3786
  117loPI   C2A 1864   8.787   2.449   9.388  0.2869 -0.1631  0.4091
  117loPI   C3A 1865   8.587   2.502   8.951  0.1283  0.0507 -0.2898
  117loPI   C4A 1866   8.593   2.520   8.473  0.2559  0.1778 -0.1339
  117loPI   C5A 1867   8.886   2.411   8.119 -0.0754  0.0272 -0.2271
  117loPI   C6A 1868   8.897   2.634   7.713  0.0207  0.3172 -0.0487
  117loPI   C1B 1869   8.471   2.803   9.762  0.1045  0.0060  0.0723
  117loPI   C2B 1870   8.206   2.868   9.389 -0.2828 -0.2102 -0.0694
  117loPI   C3B 1871   8.121   2.906   8.875 -0.2171  0.2145  0.2869
  117loPI   C4B 1872   8.282   2.904   8.495 -0.1226 -0.2457  0.1513
  118loPI    C1 1873  11.813  15.634  11.008 -0.1171 -0.1039 -0.3805
  118loPI    C2 1874  11.428  15.729  10.959 -0.1681 -0.0977  0.0009
  118loPI    C3 1875  11.551  15.567  11.303  0.2496  0.3268  0.0621
  118loPI   PO4 1876  11.856  15.570  10.765 -0.2066  0.1688  0.1619
  118loPI   GL1 1877  11.787  15.537  10.476 -0.0127  0.2082  0.4399
  118loPI   GL2 1878  11.589  15.346  10.372  0.1050 -0.0309 -0.0882
  118loPI   C1A 1879  11.962  15.526   9.988 -0.3885 -0.0445  0.4091
  118loPI   C2A 1880  11.954  15.618   9.486 -0.0203 -0.1445  0.1070
  118loPI   C3A 1881  12.268  15.690   9.130 -0.2587  0.0629 -0.3033
  118loPI   C4A 1882  12.341  15.429   8.883  0.1162  0.0408  0.3448
  118loPI   C5A 1883  12.479  15.220   8.499 -0.4591  0.1864  0.0873
  118loPI   C6A 1884  12.456  15.286   8.128 -0.1805  0.1018 -0.3662
  118loPI   C1B 1885  11.333  15.539  10.093 -0.1778  0.1339  0.1935
  118loPI   C2B 1886  11.435  15.759   9.726 -0.3075 -0.0220  0.0974
  118loPI   C3B 1887  11.488  16.016   9.336  0.0508 -0.0335 -0.2976
  118loPI   C4B 1888  11.870  16.075   9.061  0.2970 -0.2203  0.2081
  119loPI    C1 1889   4.305   0.396  10.618 -0.1441 -0.0245 -0.0120
  119loPI    C2 1890   4.428   0.103  10.861 -0.1562 -0.0798 -0.0726
  119loPI    C3 1891   4.253   0.428  11.014 -0.0154 -0.0403  0.0068
  119loPI   PO4 1892   4.142   0.318  10.400 -0.2466  0.3207 -0.3122
  119loPI   GL1 1893   4.128   0.285   9.967  0.2734  0.1594 -0.2224
  119loPI   GL2 1894   4.098   0.605   9.866  0.2758 -0.3866  0.1759
  119loPI   C1A 1895   3.700   0.305   9.740  0.0292 -0.1440 -0.2921
  119loPI   C2A 1896   3.510  -0.008   9.575  0.3161  0.1041  0.2569
  119loPI   C3A 1897   3.604  -0.177   9.210  0.3419 -0.0071  0.2391
  119loPI   C4A 1898   3.851  -0.097   8.887  0.0961  0.1030  0.1517
  119loPI   C5A 1899   3.946   0.008   8.474 -0.1180 -0.0532  0.4379
  119loPI   C6A 1900   3.673  -0.178   8.090 -0.0198  0.1357  0.2217
  119loPI   C1B 1901   4.322   0.921   9.650  0.3651 -0.1838  0.0495
  119loPI   C2B 1902   4.500   0.933   9.277  0.2216  0.0374  0.1407
  119loPI   C3B 1903   4.638   0.882   8.851 -0.2450  0.2449  0.1397
  119loPI   C4B 1904   4.512   0.813   8.440 -0.2569  0.0385 -0.1034
  120loPI    C1 1905  16.282   2.888  10.821 -0.0468  0.0411 -0.1033
  120loPI    C2 1906  16.027   3.175  10.708 -0.0049  0.1160 -0.0091
  120loPI    C3 1907  16.419   3.218  10.640  0.0084  0.1103  0.0629
  120loPI   PO4 1908  16.204   2.698  10.684  0.1239 -0.0440 -0.0866
  120loPI   GL1 1909  16.291   2.481  10.233  0.1364 -0.1189 -0.0016
  120loPI   GL2 1910  16.276   2.767   9.856  0.2559 -0.0717  0.1823
  120loPI   C1A 1911  15.913   2.343   9.959  0.2053 -0.3896  0.2216
  120loPI   C2A 1912  15.879   2.216   9.554  0.1473 -0.0090  0.0780
  120loPI   C3A 1913  15.901   2.242   9.146 -0.0859  0.1707 -0.0438
  120loPI   C4A 1914  15.784   2.113   8.689  0.2870 -0.0608 -0.1730
  120loPI   C5A 1915  15.679   2.012   8.257 -0.3100  0.0853 -0.2419
  120loPI   C6A 1916  15.561   1.784   7.854  0.2965  0.0713 -0.2724
  120loPI   C1B 1917  16.153   2.748   9.491  0.0180  0.0957 -0.1054
  120loPI   C2B 1918  16.061   2.696   9.024 -0.4160  0.1263  0.2215
  120loPI   C3B 1919  15.945   2.541   8.664 -0.1220 -0.1056  0.1907
  120loPI   C4B 1920  16.086   2.310   8.283 -0.3093 -0.1295 -0.1704
  121loPI    C1 1921  13.866   3.125  10.559 -0.0244  0.1538  0.1370
  121loPI    C2 1922  14.096   2.916  10.307  0.0125  0.0432  0.2605
  121loPI    C3 1923  14.258   3.202  10.535 -0.0078  0.0944  0.2109
  121loPI   PO4 1924  13.674   3.258  10.382  0.0835 -0.4746 -0.1699
  121loPI   GL1 1925  13.438   3.131  10.028 -0.0891  0.0900  0.3879
  121loPI   GL2 1926  13.848   3.066   9.889  0.1045  0.2198 -0.3053
  121loPI   C1A 1927  13.380   3.449   9.746 -0.0061  0.3720 -0.1734
  121loPI   C2A 1928  13.465   3.621   9.248 -0.0287  0.0758  0.1694
  121loPI   C3A 1929  13.494   3.455   8.783  0.0571  0.0600 -0.2907
  121loPI   C4A 1930  13.368   3.245   8.388 -0.2423 -0.3113  0.1011
  121loPI   C5A 1931  13.474   3.494   8.001  0.0158 -0.0683 -0.3030
  121loPI   C6A 1932  13.526   3.965   7.969  0.3229 -0.0641 -0.0723
  121loPI   C1B 1933  13.740   3.183   9.558  0.1280  0.1932  0.2505
  121loPI   C2B 1934  13.652   3.161   9.193 -0.0074 -0.0307  0.0496
  121loPI   C3B 1935  13.815   3.077   8.698  0.0103  0.1242  0.3604
  121loPI   C4B 1936  13.835   3.153   8.275 -0.0028  0.1218 -0.1467
  122loPI    C1 1937  12.418   6.084   9.822  0.1883 -0.0793 -0.0056
  122loPI    C2 1938  12.304   5.755  10.018  0.0919  0.0215  0.1092
  122loPI    C3 1939  12.505   6.042  10.210 -0.0300  0.1349  0.0689
  122loPI   PO4 1940  12.158   6.146   9.727  0.0569  0.0953  0.1924
  122loPI   GL1 1941  11.822   5.947   9.507  0.1705 -0.1410  0.0777
  122loPI   GL2 1942  11.650   6.200   9.668  0.2265 -0.1157  0.0519
  122loPI   C1A 1943  11.940   5.862   9.164  0.0411 -0.1112  0.2581
  122loPI   C2A 1944  11.790   5.839   8.691 -0.0827  0.2045 -0.0592
  122loPI   C3A 1945  11.687   5.945   8.263 -0.2114 -0.4941 -0.2235
  122loPI   C4A 1946  11.837   6.163   7.890  0.1770 -0.0455  0.4309
  122loPI   C5A 1947  11.932   6.077   7.495  0.2173 -0.0638 -0.4729
  122loPI   C6A 1948  11.815   5.986   7.145  0.2267  0.0229  0.1924
  122loPI   C1B 1949  11.562   6.203   9.194 -0.1721  0.0734 -0.1703
  122loPI   C2B 1950  11.351   5.835   9.085  0.2563 -0.0333 -0.0298
  122loPI   C3B 1951  11.263   5.702   8.638  0.0334  0.1390 -0.1992
  122loPI   C4B 1952  11.272   5.623   8.175  0.0013  0.0378 -0.0600
  123loPI    C1 1953  16.954   0.074  10.845  0.0626 -0.0309 -0.0335
  123loPI    C2 1954  16.700   0.059  11.153  0.1170 -0.0663  0.0095
  123loPI    C3 1955  16.974   0.349  11.134  0.3422 -0.2643  0.1746
  123loPI   PO4 1956  16.810  -0.030  10.683 -0.1385  0.3343 -0.1636
  123loPI   GL1 1957  16.906   0.104  10.304  0.1962  0.0031  0.0504
  123loPI   GL2 1958  16.627   0.089  10.260  0.1356  0.4322 -0.1361
  123loPI   C1A 1959  16.981   0.110   9.906 -0.1036  0.1059  0.2541
  123loPI   C2A 1960  16.901   0.507   9.689 -0.4119  0.1062 -0.1898
  123loPI   C3A 1961  16.893   0.915   9.604 -0.1224 -0.1346 -0.1953
  123loPI   C4A 1962  16.787   1.217   9.312  0.1238 -0.2861  0.1817
  123loPI   C5A 1963  16.623   1.479   9.009  0.0740  0.1223  0.0389
  123loPI   C6A 1964  16.571   1.570   8.579  0.0539  0.0745 -0.0387
  123loPI   C1B 1965  16.467   0.296   9.847 -0.1523  0.0127 -0.0191
  123loPI   C2B 1966  16.393   0.416   9.465 -0.1502  0.0181 -0.0840
  123loPI   C3B 1967  16.304   0.302   9.069  0.1483  0.0687  0.1082
  123loPI   C4B 1968  16.249   0.015   8.686 -0.0016  0.1336 -0.0862
  124loPI    C1 1969  14.225  17.667  10.783  0.1272 -0.2177 -0.0591
  124loPI    C2 1970  13.896  17.622  11.007 -0.0372 -0.0925 -0.2713
  124loPI    C3 1971  14.253  17.512  11.151 -0.1009  0.2389  0.1597
  124loPI   PO4 1972  14.093  17.594  10.560 -0.0466  0.1467 -0.1263
  124loPI   GL1 1973  14.006  17.438  10.131 -0.0368 -0.1564  0.0627
  124loPI   GL2 1974  14.077  17.171  10.341 -0.2571 -0.1015  0.4696
  124loPI   C1A 1975  14.017  17.344   9.766 -0.2328 -0.0947 -0.0366
  124loPI   C2A 1976  14.265  17.182   9.483 -0.2843  0.5551  0.2762
  124loPI   C3A 1977  14.504  17.031   9.152  0.0362 -0.0183  0.1783
  124loPI   C4A 1978  14.445  16.996   8.730 -0.2291 -0.0470 -0.0133
  124loPI   C5A 1979  14.681  16.827   8.447  0.0552  0.2693 -0.0598
  124loPI   C6A 1980  14.648  16.665   7.950 -0.1084 -0.1384 -0.1082
  124loPI   C1B 1981  14.222  16.810  10.171  0.0246 -0.0124 -0.1014
  124loPI   C2B 1982  14.488  16.608   9.843 -0.0141 -0.2562 -0.1603
  124loPI   C3B 1983  14.449  16.343   9.462 -0.2405 -0.1657  0.0490
  124loPI   C4B 1984  14.363  16.537   8.925 -0.0412  0.0735 -0.3724
  125loPI    C1 1985  15.480   1.959  10.511  0.0466 -0.2057  0.0554
  125loPI    C2 1986  15.780   1.928  10.249 -0.0388 -0.0363 -0.0645
  125loPI    C3 1987  15.441   1.723  10.190 -0.0099 -0.0981 -0.0173
  125loPI   PO4 1988  15.417   2.259  10.479  0.4730 -0.2444 -0.0321
  125loPI   GL1 1989  15.473   2.424  10.176 -0.3234  0.1910  0.2645
  125loPI   GL2 1990  15.366   2.787  10.126  0.2832  0.1170 -0.1486
  125loPI   C1A 1991  15.407   2.413   9.766 -0.0326  0.1362 -0.1867
  125loPI   C2A 1992  15.458   2.474   9.389 -0.1672 -0.0451  0.0556
  125loPI   C3A 1993  15.475   2.462   8.896  0.0753 -0.0294  0.1253
  125loPI   C4A 1994  15.521   2.432   8.472 -0.0923 -0.2237 -0.0414
  125loPI   C5A 1995  15.655   2.514   8.070  0.3161 -0.2048 -0.1237
  125loPI   C6A 1996  15.816   2.679   7.746 -0.0134  0.1171  0.0326
  125loPI   C1B 1997  14.924   2.690   9.916 -0.1316 -0.0284  0.0313
  125loPI   C2B 1998  14.746   2.696   9.524  0.1696  0.1935 -0.1519
  125loPI   C3B 1999  14.509   2.749   9.193 -0.5006 -0.1374 -0.0486
  125loPI   C4B 2000  14.630   2.643   8.810  0.1460  0.0518  0.0479
  126loPI    C1 2001   8.591   3.602  10.640 -0.1679 -0.1313 -0.0784
  126loPI    C2 2002   8.746   3.777  10.965 -0.1331 -0.0215 -0.1536
  126loPI    C3 2003   8.513   3.454  11.004 -0.2115  0.0510 -0.0125
  126loPI   PO4 2004   8.778   3.663  10.455 -0.1055  0.0863  0.2733
  126loPI   GL1 2005   8.884   3.852  10.098 -0.0928  0.1144  0.4844
  126loPI   GL2 2006   8.961   4.102  10.132 -0.2772 -0.1166 -0.0202
  126loPI   C1A 2007   8.849   3.650   9.684 -0.2102 -0.2725 -0.0014
  126loPI   C2A 2008   8.875   3.478   9.276 -0.0538  0.2068  0.0473
  126loPI   C3A 2009   8.749   3.595   8.958  0.1712 -0.1583  0.2382
  126loPI   C4A 2010   8.619   3.629   8.511  0.1790  0.1572 -0.0664
  126loPI   C5A 2011   8.740   3.601   8.079 -0.0753  0.3947  0.0287
  126loPI   C6A 2012   9.115   3.823   7.931 -0.0156 -0.2156 -0.1647
  126loPI   C1B 2013   8.972   4.137   9.665 -0.0929  0.2836  0.0269
  126loPI   C2B 2014   8.884   4.091   9.237  0.0468  0.0157  0.3015
  126loPI   C3B 2015   8.944   4.112   8.765  0.1114 -0.1354 -0.2643
  126loPI   C4B 2016   9.129   3.867   8.400  0.1721 -0.1276 -0.1351
  127loPI    C1 2017   2.616  14.715  10.516 -0.2812 -0.1111 -0.1516
  127loPI    C2 2018   2.535  15.091  10.628  0.0465 -0.0765 -0.0202
  127loPI    C3 2019   2.648  14.820  10.901  0.2681 -0.1474 -0.1791
  127loPI   PO4 2020   2.658  14.815  10.240  0.2274 -0.1456 -0.3203
  127loPI   GL1 2021   2.774  14.676   9.854  0.0406 -0.0349  0.0106
  127loPI   GL2 2022   2.670  14.978   9.750 -0.0707  0.1466 -0.0740
  127loPI   C1A 2023   2.784  14.469   9.559  0.1781 -0.0056  0.1212
  127loPI   C2A 2024   2.952  14.490   9.188 -0.0382  0.2352  0.0539
  127loPI   C3A 2025   3.251  14.694   8.830  0.0602 -0.4127  0.1566
  127loPI   C4A 2026   3.398  14.751   8.476 -0.3796 -0.0963 -0.0850
  127loPI   C5A 2027   3.166  14.582   8.077  0.1799  0.4255 -0.0496
  127loPI   C6A 2028   3.098  14.491   7.671 -0.0968 -0.0849 -0.0521
  127loPI   C1B 2029   2.527  14.807   9.329 -0.0290  0.0484 -0.0912
  127loPI   C2B 2030   2.446  14.622   8.919 -0.4298 -0.0575  0.0213
  127loPI   C3B 2031   2.358  14.599   8.398 -0.1289 -0.2768  0.0496
  127loPI   C4B 2032   2.662  14.453   8.031 -0.0683 -0.0812 -0.2631
  128loPI    C1 2033   6.384   4.951  10.572  0.0615  0.2108 -0.1057
  128loPI    C2 2034   6.208   4.622  10.717 -0.1088  0.2640 -0.1894
  128loPI    C3 2035   6.507   4.794  10.919 -0.0858  0.1153 -0.0955
  128loPI   PO4 2036   6.490   4.827  10.292  0.1497  0.0358  0.1788
  128loPI   GL1 2037   6.708   4.880   9.750  0.0064 -0.3932  0.1853
  128loPI   GL2 2038   7.122   4.966   9.709 -0.0192 -0.0763 -0.0052
  128loPI   C1A 2039   6.583   4.856   9.233  0.0091 -0.1515  0.0302
  128loPI   C2A 2040   6.670   4.834   8.756 -0.1128  0.0958  0.3679
  128loPI   C3A 2041   6.608   4.858   8.282  0.0299 -0.2976  0.1907
  128loPI   C4A 2042   6.685   4.854   7.887  0.3482 -0.1101  0.0827
  128loPI   C5A 2043   6.678   5.214   7.534  0.1231  0.1037 -0.2306
  128loPI   C6A 2044   7.100   5.285   7.346  0.3044 -0.0210 -0.0413
  128loPI   C1B 2045   7.027   4.954   9.330 -0.0881  0.3653  0.3241
  128loPI   C2B 2046   7.092   5.014   8.963  0.0504 -0.0800  0.2839
  128loPI   C3B 2047   7.045   5.088   8.504 -0.0806  0.0007  0.1362
  128loPI   C4B 2048   7.153   5.163   8.009 -0.0660 -0.2351 -0.0936
  129loPI    C1 2049  15.489  13.108  10.259  0.0581  0.1277 -0.2440
  129loPI    C2 2050  15.862  13.074  10.120  0.1280  0.0661 -0.0452
  129loPI    C3 2051  15.799  13.137  10.510 -0.0586  0.4480 -0.1320
  129loPI   PO4 2052  15.401  13.001   9.964 -0.0586  0.0012 -0.0061
  129loPI   GL1 2053  15.345  13.208   9.719 -0.0415  0.1694  0.1544
  129loPI   GL2 2054  15.706  13.326   9.648  0.0489  0.1473 -0.0587
  129loPI   C1A 2055  15.321  13.468   9.395  0.2057  0.2451 -0.2695
  129loPI   C2A 2056  15.336  13.741   8.944 -0.0994  0.2218 -0.1306
  129loPI   C3A 2057  15.478  13.938   8.528  0.0396  0.2784  0.0429
  129loPI   C4A 2058  15.528  14.138   8.197 -0.2642 -0.1290 -0.1545
  129loPI   C5A 2059  15.377  14.167   7.683 -0.0196 -0.0704  0.0002
  129loPI   C6A 2060  15.292  14.419   7.471 -0.2652 -0.2993  0.1501
  129loPI   C1B 2061  15.658  13.125   9.283  0.2520 -0.2247  0.0772
  129loPI   C2B 2062  15.658  13.116   8.801 -0.0439 -0.0426 -0.1025
  129loPI   C3B 2063  15.589  13.363   8.364 -0.0357  0.0905 -0.1132
  129loPI   C4B 2064  15.637  13.208   8.049  0.0791 -0.2439 -0.0922
  130loPI    C1 2065   2.222  11.177  10.221 -0.1270  0.0601  0.0572
  130loPI    C2 2066   2.380  11.158  10.587 -0.1810 -0.6096  0.0575
  130loPI    C3 2067   1.997  11.263  10.540 -0.0255  0.0350  0.1358
  130loPI   PO4 2068   2.378  11.343  10.095  0.2156 -0.1099 -0.1923
  130loPI   GL1 2069   2.373  11.223   9.640 -0.3120 -0.4504  0.2210
  130loPI   GL2 2070   2.183  11.466   9.567  0.2688 -0.1143 -0.1407
  130loPI   C1A 2071   2.431  11.353   9.179 -0.1922  0.2478 -0.1502
  130loPI   C2A 2072   2.398  11.586   8.804  0.0045 -0.1500 -0.1508
  130loPI   C3A 2073   2.649  11.615   8.451  0.1232  0.0835  0.0891
  130loPI   C4A 2074   3.041  11.730   8.272 -0.2224  0.1038  0.0198
  130loPI   C5A 2075   3.485  11.730   8.278 -0.4054 -0.1871 -0.1228
  130loPI   C6A 2076   3.879  11.688   8.142  0.1274  0.0210 -0.2755
  130loPI   C1B 2077   2.113  11.820   9.371 -0.1677 -0.2063 -0.0819
  130loPI   C2B 2078   1.732  12.020   9.205  0.1582 -0.2216  0.1118
  130loPI   C3B 2079   1.553  12.232   8.952 -0.2423  0.0132 -0.2321
  130loPI   C4B 2080   1.301  12.167   8.651 -0.3551  0.0848  0.1576
  131loPI    C1 2081   3.657   4.345  10.271  0.1621  0.2600 -0.0031
  131loPI    C2 2082   3.460   4.668  10.400 -0.2057  0.0766 -0.0923
  131loPI    C3 2083   3.554   4.375  10.656 -0.1207  0.1268 -0.0658
  131loPI   PO4 2084   3.625   4.275  10.071 -0.0296  0.2610  0.0007
  131loPI   GL1 2085   3.722   4.327   9.724 -0.2292 -0.1372 -0.0437
  131loPI   GL2 2086   4.058   4.270   9.698 -0.0215  0.0223 -0.0384
  131loPI   C1A 2087   3.657   4.193   9.304  0.1854 -0.0219 -0.1451
  131loPI   C2A 2088   3.669   4.220   8.798 -0.1898  0.3002 -0.0581
  131loPI   C3A 2089   3.628   4.186   8.379  0.0664  0.2366  0.0295
  131loPI   C4A 2090   3.399   4.013   7.905  0.1503  0.0704  0.2755
  131loPI   C5A 2091   3.224   4.114   7.518  0.1439  0.0159  0.1094
  131loPI   C6A 2092   3.127   4.012   7.140  0.1527 -0.1120  0.1098
  131loPI   C1B 2093   4.044   4.488   9.322 -0.0459 -0.0455  0.1506
  131loPI   C2B 2094   4.000   4.580   8.868 -0.0207 -0.0724  0.0494
  131loPI   C3B 2095   4.117   4.540   8.431  0.2240  0.2068  0.0691
  131loPI   C4B 2096   4.301   4.482   8.073 -0.0627 -0.0239  0.3003
  132loPI    C1 2097  12.341   8.625  10.650 -0.1444  0.2120 -0.1020
  132loPI    C2 2098  12.518   8.777  10.976 -0.2180 -0.1224  0.0987
  132loPI    C3 2099  12.122   8.809  10.930 -0.1969  0.0014 -0.0027
  132loPI   PO4 2100  12.403   8.728  10.315  0.1369 -0.2570 -0.0506
  132loPI   GL1 2101  12.539   8.733   9.876 -0.0034  0.0049 -0.1628
  132loPI   GL2 2102  12.700   9.062   9.694 -0.2114  0.0652 -0.1456
  132loPI   C1A 2103  12.295   8.708   9.549 -0.1225 -0.0419 -0.0806
  132loPI   C2A 2104  12.297   8.723   9.117  0.0713  0.0421 -0.0261
  132loPI   C3A 2105  12.316   8.767   8.707  0.0925 -0.0414 -0.1367
  132loPI   C4A 2106  12.162   8.691   8.357 -0.1078  0.3220 -0.1749
  132loPI   C5A 2107  12.402   8.494   8.031  0.1076 -0.1041  0.1478
  132loPI   C6A 2108  12.724   8.232   7.813  0.0017  0.1802 -0.1991
  132loPI   C1B 2109  12.489   9.127   9.260 -0.0461 -0.2124 -0.0200
  132loPI   C2B 2110  12.522   9.230   8.798  0.0035  0.1648  0.0949
  132loPI   C3B 2111  12.446   9.272   8.399  0.0167  0.1053  0.3891
  132loPI   C4B 2112  12.068   9.149   8.062 -0.4362  0.1130 -0.2691
  133loPI    C1 2113   8.562   1.094  10.364 -0.0604 -0.0350 -0.0526
  133loPI    C2 2114   8.648   1.114  10.754 -0.0499  0.0616 -0.0596
  133loPI    C3 2115   8.918   0.968  10.496 -0.0935 -0.0932 -0.0186
  133loPI   PO4 2116   8.272   1.164  10.289 -0.0866 -0.0742 -0.1655
  133loPI   GL1 2117   8.185   0.949   9.905  0.1351  0.0812 -0.1010
  133loPI   GL2 2118   8.541   1.043   9.875  0.2732 -0.1192  0.1849
  133loPI   C1A 2119   8.078   0.942   9.450  0.0205 -0.0081 -0.0271
  133loPI   C2A 2120   7.868   0.638   9.303 -0.6698  0.0009 -0.2909
  133loPI   C3A 2121   8.042   0.433   9.027  0.0620 -0.1948 -0.0507
  133loPI   C4A 2122   8.062   0.383   8.532  0.1633 -0.1217  0.2176
  133loPI   C5A 2123   8.167   0.345   8.176  0.3144  0.0789 -0.2645
  133loPI   C6A 2124   8.407   0.321   7.766  0.3797  0.1854  0.2407
  133loPI   C1B 2125   8.388   1.356   9.520  0.0460 -0.0010  0.1651
  133loPI   C2B 2126   8.329   1.200   9.130 -0.0608 -0.2925  0.1416
  133loPI   C3B 2127   8.342   1.210   8.711  0.2039 -0.2547 -0.2098
  133loPI   C4B 2128   8.080   1.408   8.429 -0.3067 -0.0293 -0.0427
  134loPI    C1 2129  15.493  11.634   9.940  0.2351  0.3110 -0.0147
  134loPI    C2 2130  15.384  11.728  10.313  0.1556 -0.0025  0.0440
  134loPI    C3 2131  15.240  11.398  10.140  0.0860  0.2106 -0.3152
  134loPI   PO4 2132  15.841  11.684   9.982 -0.3608 -0.2271 -0.0851
  134loPI   GL1 2133  16.041  11.730   9.653 -0.2844 -0.1611 -0.1248
  134loPI   GL2 2134  15.889  11.521   9.490  0.1581 -0.1421  0.1381
  134loPI   C1A 2135  15.999  12.007   9.290  0.1242  0.1212 -0.1506
  134loPI   C2A 2136  15.852  12.222   8.956  0.1032  0.2127 -0.0192
  134loPI   C3A 2137  15.854  12.143   8.552 -0.0920  0.5497 -0.0464
  134loPI   C4A 2138  15.965  12.164   8.129 -0.0146 -0.1072  0.1640
  134loPI   C5A 2139  15.842  12.536   7.974  0.0765  0.0791  0.0587
  134loPI   C6A 2140  15.830  12.871   7.777  0.0056  0.1596 -0.2937
  134loPI   C1B 2141  16.190  11.548   9.073  0.0870 -0.0334 -0.2032
  134loPI   C2B 2142  16.234  11.865   8.689  0.0811 -0.0758  0.1547
  134loPI   C3B 2143  16.356  11.841   8.252 -0.0325 -0.0388 -0.4455
  134loPI   C4B 2144  16.249  11.730   7.893  0.1091 -0.2971  0.1409
  135loPI    C1 2145   4.942  13.345  10.399  0.0030 -0.1016 -0.0576
  135loPI    C2 2146   5.019  13.611  10.688 -0.0064 -0.1874  0.0244
  135loPI    C3 2147   5.020  13.220  10.771  0.0474 -0.2150 -0.1048
  135loPI   PO4 2148   4.747  13.422  10.294 -0.0166  0.0119  0.2938
  135loPI   GL1 2149   4.850  13.449   9.824 -0.0940 -0.0655  0.0930
  135loPI   GL2 2150   5.067  13.780   9.682 -0.4035  0.3606 -0.1165
  135loPI   C1A 2151   4.919  13.180   9.490 -0.0409 -0.2164 -0.0590
  135loPI   C2A 2152   4.806  13.233   8.993 -0.1178  0.1067 -0.0830
  135loPI   C3A 2153   4.562  13.493   8.688 -0.0166 -0.1842  0.0725
  135loPI   C4A 2154   4.585  13.911   8.509  0.1837  0.4204  0.1557
  135loPI   C5A 2155   4.454  14.308   8.303 -0.3568 -0.0536 -0.1811
  135loPI   C6A 2156   4.144  14.399   7.989 -0.2650  0.3010 -0.0142
  135loPI   C1B 2157   5.065  13.642   9.233 -0.2285 -0.2050  0.3136
  135loPI   C2B 2158   5.085  13.650   8.725  0.3266  0.0880 -0.1465
  135loPI   C3B 2159   4.879  13.571   8.312  0.0103  0.0734  0.0301
  135loPI   C4B 2160   4.671  13.584   7.946 -0.0124  0.0405  0.0699
  136loPI    C1 2161  12.056  14.761  10.865  0.1128 -0.1216  0.0833
  136loPI    C2 2162  11.974  15.085  10.646  0.5200  0.0030  0.1070
  136loPI    C3 2163  11.866  15.071  11.031  0.0920 -0.0836 -0.0110
  136loPI   PO4 2164  11.948  14.554  10.649 -0.2874  0.0353 -0.2344
  136loPI   GL1 2165  11.758  14.452  10.349 -0.3168 -0.0248  0.0118
  136loPI   GL2 2166  11.761  14.817  10.281  0.3415 -0.2537 -0.0193
  136loPI   C1A 2167  11.784  14.337   9.945 -0.0295 -0.1961  0.0646
  136loPI   C2A 2168  11.686  14.243   9.501 -0.0462  0.1716 -0.2459
  136loPI   C3A 2169  11.740  14.197   9.148 -0.0379  0.3474  0.0103
  136loPI   C4A 2170  11.671  14.424   8.806 -0.0841  0.2407 -0.1272
  136loPI   C5A 2171  11.935  14.590   8.406 -0.0326  0.2700 -0.0480
  136loPI   C6A 2172  12.040  14.747   8.010  0.2231 -0.1293  0.0194
  136loPI   C1B 2173  11.625  15.100   9.984  0.0766  0.0448 -0.0671
  136loPI   C2B 2174  11.716  15.197   9.692  0.0935 -0.2834 -0.0561
  136loPI   C3B 2175  12.248  15.226   9.682 -0.3292  0.1496  0.4851
  136loPI   C4B 2176  12.608  15.145   9.934 -0.2508 -0.1691  0.1833
  137loPI    C1 2177  17.112  14.558  10.770 -0.1061  0.1591  0.1616
  137loPI    C2 2178  17.319  14.900  10.749 -0.0567  0.1239  0.0679
  137loPI    C3 2179  17.224  14.745  11.105 -0.0861  0.2389  0.1108
  137loPI   PO4 2180  17.025  14.580  10.493  0.1330 -0.3798 -0.0048
  137loPI   GL1 2181  17.136  14.751  10.127  0.0393 -0.1750  0.2072
  137loPI   GL2 2182  17.401  14.822  10.243  0.1981 -0.2175  0.0443
  137loPI   C1A 2183  17.020  14.696   9.853  0.2311 -0.1759  0.3065
  137loPI   C2A 2184  17.070  14.786   9.495 -0.3852  0.0603  0.3348
  137loPI   C3A 2185  17.391  14.922   9.244 -0.0254 -0.2318  0.3863
  137loPI   C4A 2186  17.696  15.153   8.971  0.0020 -0.1150 -0.0870
  137loPI   C5A 2187  17.928  14.912   8.616  0.0387 -0.2112  0.0344
  137loPI   C6A 2188  18.190  14.711   8.265 -0.2370 -0.0233 -0.0589
  137loPI   C1B 2189  17.614  14.917   9.819  0.0235 -0.1418 -0.1774
  137loPI   C2B 2190  17.830  14.925   9.391  0.3992  0.1575 -0.0154
  137loPI   C3B 2191  18.044  14.783   9.024 -0.1577 -0.1023 -0.2859
  137loPI   C4B 2192  18.392  14.860   8.759 -0.0762  0.0372 -0.1988
  138loPI    C1 2193   9.678   1.082  10.661 -0.0005 -0.0474 -0.0989
  138loPI    C2 2194  10.059   1.076  10.781 -0.0087  0.0883 -0.0652
  138loPI    C3 2195   9.767   0.992  11.040 -0.0069  0.0711 -0.0689
  138loPI   PO4 2196   9.735   1.032  10.412 -0.0677  0.1465  0.0880
  138loPI   GL1 2197   9.480   1.083  10.070 -0.1316 -0.1808 -0.0284
  138loPI   GL2 2198   9.250   1.138  10.182 -0.1335 -0.0329 -0.3496
  138loPI   C1A 2199   9.385   0.865   9.713  0.0044  0.2172  0.0557
  138loPI   C2A 2200   9.376   0.854   9.243  0.2377 -0.2248  0.1011
  138loPI   C3A 2201   9.404   0.877   8.778 -0.0005 -0.2194 -0.0327
  138loPI   C4A 2202   9.500   1.196   8.487  0.1544  0.0555 -0.0308
  138loPI   C5A 2203   9.492   1.325   8.051  0.2841 -0.0937  0.2428
  138loPI   C6A 2204   9.118   1.341   7.779  0.0202  0.0074  0.1415
  138loPI   C1B 2205   8.908   1.318  10.022 -0.2974 -0.0033 -0.2331
  138loPI   C2B 2206   8.828   1.624   9.670  0.0326 -0.1807  0.2913
  138loPI   C3B 2207   8.981   1.862   9.365 -0.2011  0.0448 -0.3380
  138loPI   C4B 2208   8.953   2.113   9.039  0.0524 -0.1503  0.0069
  139loPI    C1 2209  13.282  10.758  10.370 -0.2893 -0.0417  0.2601
  139loPI    C2 2210  13.633  10.934  10.448 -0.1409 -0.0911 -0.2574
  139loPI    C3 2211  13.297  11.075  10.613  0.0817  0.1441  0.0049
  139loPI   PO4 2212  13.273  10.797  10.158  0.2886  0.0403 -0.0234
  139loPI   GL1 2213  13.299  10.765   9.759 -0.1125  0.1571  0.0508
  139loPI   GL2 2214  13.460  10.813   9.485 -0.0198 -0.1073 -0.1992
  139loPI   C1A 2215  12.893  10.871   9.533  0.0193  0.1361  0.2066
  139loPI   C2A 2216  12.818  10.832   9.036 -0.0670  0.3499 -0.3510
  139loPI   C3A 2217  12.566  10.732   8.680 -0.0826  0.1715  0.3256
  139loPI   C4A 2218  12.460  10.532   8.293 -0.0953 -0.2054  0.0032
  139loPI   C5A 2219  12.250  10.189   7.998  0.0453 -0.2446 -0.2738
  139loPI   C6A 2220  11.907  10.105   7.787 -0.3389  0.1361  0.2838
  139loPI   C1B 2221  13.750  10.978   9.202 -0.1183 -0.0954  0.3448
  139loPI   C2B 2222  13.831  11.322   8.829 -0.0663  0.0386  0.0281
  139loPI   C3B 2223  13.914  11.175   8.423 -0.1431 -0.0459  0.0165
  139loPI   C4B 2224  13.811  10.993   8.031  0.1271 -0.1645  0.0115
  140loPI    C1 2225  15.118   9.969  10.107 -0.0627 -0.0968 -0.0176
  140loPI    C2 2226  15.013   9.789  10.449 -0.1713  0.1916  0.1046
  140loPI    C3 2227  15.349  10.005  10.431 -0.0918  0.0609 -0.0138
  140loPI   PO4 2228  14.973   9.851   9.926  0.1197 -0.1137  0.2457
  140loPI   GL1 2229  15.068   9.542   9.679 -0.0444  0.0401 -0.0890
  140loPI   GL2 2230  14.846   9.393   9.588 -0.2962  0.1513 -0.2442
  140loPI   C1A 2231  15.234   9.606   9.299  0.0527  0.0571  0.2543
  140loPI   C2A 2232  15.235   9.610   8.817 -0.0389  0.0181  0.1701
  140loPI   C3A 2233  15.220   9.857   8.362  0.1353 -0.2765  0.0626
  140loPI   C4A 2234  15.181   9.865   7.883  0.3063  0.2538  0.1065
  140loPI   C5A 2235  15.037   9.957   7.526 -0.1781  0.0819  0.0853
  140loPI   C6A 2236  14.771   9.823   7.177  0.1423 -0.0343 -0.2514
  140loPI   C1B 2237  14.790   9.526   9.089  0.1053 -0.0875 -0.3760
  140loPI   C2B 2238  14.748   9.564   8.607 -0.1097 -0.0441  0.1059
  140loPI   C3B 2239  14.631   9.528   8.235  0.0139 -0.1011  0.2926
  140loPI   C4B 2240  14.853   9.483   7.717 -0.1110 -0.4283 -0.0766
  141loPI    C1 2241   4.602   1.239  10.520 -0.0976  0.0679  0.0962
  141loPI    C2 2242   4.575   1.315  10.912 -0.0588  0.2263  0.0686
  141loPI    C3 2243   4.873   1.473  10.697 -0.0260  0.0637 -0.0073
  141loPI   PO4 2244   4.372   1.276  10.412 -0.0400 -0.2829  0.0358
  141loPI   GL1 2245   4.241   1.341   9.991 -0.1134 -0.1099 -0.0773
  141loPI   GL2 2246   4.365   1.656  10.104 -0.0701 -0.0386  0.0895
  141loPI   C1A 2247   4.461   1.423   9.500  0.2468 -0.3512 -0.2178
  141loPI   C2A 2248   4.712   1.339   9.164  0.2145  0.1323 -0.0034
  141loPI   C3A 2249   4.736   1.329   8.671 -0.1841  0.1925 -0.0202
  141loPI   C4A 2250   4.666   1.515   8.134 -0.1099  0.0677 -0.4165
  141loPI   C5A 2251   4.762   1.409   7.720  0.0429  0.0813  0.3977
  141loPI   C6A 2252   5.043   1.574   7.347 -0.0539 -0.0480  0.0343
  141loPI   C1B 2253   4.715   1.756   9.751  0.1956  0.2916  0.2934
  141loPI   C2B 2254   4.771   1.801   9.351 -0.1882 -0.0536 -0.1456
  141loPI   C3B 2255   4.753   1.789   8.904  0.2077 -0.1463 -0.0211
  141loPI   C4B 2256   4.894   1.792   8.444 -0.4682  0.0294 -0.0861
  142loPI    C1 2257   2.171  14.713  10.722 -0.2233  0.0745 -0.1311
  142loPI    C2 2258   1.850  14.855  10.913 -0.0306  0.0784  0.1964
  142loPI    C3 2259   2.138  14.668  11.118  0.2163  0.1474 -0.0812
  142loPI   PO4 2260   2.084  14.844  10.501  0.4385 -0.1223 -0.2095
  142loPI   GL1 2261   2.171  15.099  10.261  0.0327 -0.2486 -0.1511
  142loPI   GL2 2262   2.379  15.297  10.140  0.2519 -0.0310  0.1971
  142loPI   C1A 2263   1.903  15.137   9.881  0.2748  0.0187  0.1051
  142loPI   C2A 2264   1.580  15.278   9.588  0.0278 -0.0818  0.1783
  142loPI   C3A 2265   1.609  15.175   9.070 -0.3250 -0.0265  0.1905
  142loPI   C4A 2266   1.738  15.172   8.597  0.1265 -0.0392 -0.0393
  142loPI   C5A 2267   1.897  15.537   8.391  0.0227  0.2813  0.1233
  142loPI   C6A 2268   1.899  15.774   7.999 -0.0803  0.1085 -0.1881
  142loPI   C1B 2269   2.310  15.270   9.702  0.1944 -0.0297  0.0553
  142loPI   C2B 2270   2.014  14.927   9.400  0.1385  0.0394 -0.2645
  142loPI   C3B 2271   1.734  14.586   9.157  0.0493 -0.0773 -0.4467
  142loPI   C4B 2272   1.431  14.496   8.940 -0.1414  0.0213  0.2217
  143loPI    C1 2273  17.331  13.330  10.246  0.0561  0.0536  0.1362
  143loPI    C2 2274  17.341  13.728  10.286 -0.1703  0.0503  0.2426
  143loPI    C3 2275  17.181  13.502  10.574  0.0943 -0.1307  0.2517
  143loPI   PO4 2276  17.222  13.280  10.099 -0.1977 -0.1057 -0.2676
  143loPI   GL1 2277  16.979  13.236   9.782 -0.1402  0.2110 -0.0907
  143loPI   GL2 2278  17.031  13.029   9.559  0.0049  0.1229 -0.3420
  143loPI   C1A 2279  16.789  13.579   9.478 -0.0241  0.0509 -0.1167
  143loPI   C2A 2280  17.050  13.819   9.207  0.1531  0.3408  0.3025
  143loPI   C3A 2281  17.091  13.821   8.769 -0.1689  0.0158 -0.0745
  143loPI   C4A 2282  16.977  13.617   8.448 -0.1934 -0.0738  0.2271
  143loPI   C5A 2283  17.102  13.591   8.022  0.0186  0.2380  0.1328
  143loPI   C6A 2284  17.329  13.771   7.692  0.1372  0.2654  0.3412
  143loPI   C1B 2285  17.103  13.244   9.266  0.1476  0.4483  0.0158
  143loPI   C2B 2286  16.826  13.362   8.917  0.4091  0.2039 -0.3681
  143loPI   C3B 2287  16.471  13.624   8.775  0.2541 -0.4208 -0.1605
  143loPI   C4B 2288  16.453  13.901   8.322 -0.0176 -0.2058  0.2080
  144loPI    C1 2289  13.741   0.096  10.810 -0.1614 -0.0158 -0.0736
  144loPI    C2 2290  13.558   0.362  10.574  0.0742  0.0654 -0.1683
  144loPI    C3 2291  13.557   0.413  10.970 -0.2605 -0.0327 -0.1530
  144loPI   PO4 2292  14.054   0.027  10.581  0.2097 -0.2162 -0.4125
  144loPI   GL1 2293  14.173  -0.015  10.213  0.1295  0.1888  0.0348
  144loPI   GL2 2294  14.347  -0.282  10.356  0.0526  0.1969 -0.0895
  144loPI   C1A 2295  14.087  -0.099   9.798  0.2097  0.3782  0.2494
  144loPI   C2A 2296  14.041  -0.141   9.357 -0.1459 -0.1629 -0.0260
  144loPI   C3A 2297  14.080  -0.173   8.970  0.0532 -0.1728 -0.1282
  144loPI   C4A 2298  14.024  -0.108   8.532 -0.4169  0.3586  0.1494
  144loPI   C5A 2299  14.007   0.219   8.147 -0.1011 -0.1662  0.0971
  144loPI   C6A 2300  14.071   0.444   7.790 -0.0514  0.0879  0.1028
  144loPI   C1B 2301  14.554  -0.232   9.896  0.0539  0.1295  0.2795
  144loPI   C2B 2302  14.526  -0.365   9.543 -0.3733 -0.1969  0.1525
  144loPI   C3B 2303  14.454  -0.430   9.063  0.0154 -0.0609  0.1291
  144loPI   C4B 2304  14.306  -0.552   8.631 -0.0170 -0.1355  0.0478
  145loPI    C1 2305   5.533   4.716  10.011  0.0197 -0.1449 -0.0290
  145loPI    C2 2306   5.497   4.934  10.344 -0.0962 -0.0526 -0.1013
  145loPI    C3 2307   5.173   4.769  10.177 -0.0267 -0.1704 -0.1206
  145loPI   PO4 2308   5.731   4.911   9.884  0.2734  0.2862 -0.1057
  145loPI   GL1 2309   5.822   5.118   9.650  0.2542  0.1004  0.1057
  145loPI   GL2 2310   6.119   4.962   9.382 -0.0834 -0.2806 -0.2617
  145loPI   C1A 2311   5.743   5.214   9.158  0.4978  0.3869  0.0159
  145loPI   C2A 2312   5.702   5.362   8.670  0.0451  0.1195 -0.2116
  145loPI   C3A 2313   5.792   5.385   8.256  0.0718  0.0654  0.0180
  145loPI   C4A 2314   5.546   5.369   7.809  0.0332  0.0019  0.0983
  145loPI   C5A 2315   5.731   5.593   7.421  0.1279 -0.0525 -0.2056
  145loPI   C6A 2316   5.632   5.907   7.143 -0.1993  0.2600  0.2074
  145loPI   C1B 2317   6.215   4.918   8.946  0.1697 -0.1095  0.0277
  145loPI   C2B 2318   6.214   5.094   8.565  0.0068 -0.0814  0.2336
  145loPI   C3B 2319   6.049   4.987   8.243  0.3800  0.0463  0.3430
  145loPI   C4B 2320   6.083   5.261   7.815 -0.1051  0.3847  0.0567
  146loPI    C1 2321   9.891  10.600  10.426  0.0497  0.1515  0.1989
  146loPI    C2 2322  10.232  10.803  10.476  0.1661 -0.0049  0.0493
  146loPI    C3 2323  10.235  10.403  10.479 -0.0733 -0.0085  0.4169
  146loPI   PO4 2324   9.866  10.684  10.137  0.5442 -0.3373 -0.3280
  146loPI   GL1 2325   9.786  11.047   9.818  0.0115  0.2169  0.1262
  146loPI   GL2 2326   9.670  10.751   9.587  0.0703 -0.0557  0.2696
  146loPI   C1A 2327   9.855  11.274   9.503  0.1798  0.1218 -0.1341
  146loPI   C2A 2328  10.078  11.579   9.242  0.1925 -0.0971  0.3215
  146loPI   C3A 2329  10.027  11.767   8.946 -0.0034 -0.0252  0.0471
  146loPI   C4A 2330  10.074  11.964   8.490  0.1618 -0.0862  0.0362
  146loPI   C5A 2331   9.958  12.341   8.283 -0.0101 -0.1516 -0.1197
  146loPI   C6A 2332  10.069  12.725   8.466 -0.0242  0.2614  0.1717
  146loPI   C1B 2333   9.629  10.715   9.156 -0.0217 -0.1509 -0.0492
  146loPI   C2B 2334   9.983  10.675   8.971 -0.3769 -0.0421  0.0851
  146loPI   C3B 2335  10.187  10.244   8.812  0.0631  0.0570 -0.1466
  146loPI   C4B 2336  10.317  10.069   8.496 -0.2682  0.1399  0.1856
  147loPI    C1 2337   5.429  10.232  10.428 -0.0270 -0.0648 -0.0224
  147loPI    C2 2338   5.066  10.332  10.563  0.0376 -0.0019  0.1059
  147loPI    C3 2339   5.388  10.535  10.685  0.1173 -0.0628 -0.0012
  147loPI   PO4 2340   5.436  10.278  10.202 -0.0271 -0.1188 -0.0113
  147loPI   GL1 2341   5.456  10.301   9.723 -0.1051  0.2151 -0.0612
  147loPI   GL2 2342   5.622  10.064   9.633 -0.0262  0.2298 -0.0823
  147loPI   C1A 2343   5.268  10.554   9.328 -0.2938 -0.0253 -0.2284
  147loPI   C2A 2344   5.133  10.762   8.834 -0.1676 -0.1040 -0.2578
  147loPI   C3A 2345   5.012  10.838   8.471 -0.1248 -0.0700 -0.3474
  147loPI   C4A 2346   4.779  11.054   8.170  0.0837  0.1142  0.2495
  147loPI   C5A 2347   4.632  11.274   7.762  0.1357 -0.3317 -0.2398
  147loPI   C6A 2348   4.837  11.473   7.338  0.0470 -0.1049  0.1514
  147loPI   C1B 2349   5.819  10.317   9.353  0.2793 -0.1378 -0.2771
  147loPI   C2B 2350   5.941  10.563   8.999  0.0199  0.1175  0.1322
  147loPI   C3B 2351   6.252  10.741   8.706 -0.1939  0.1663  0.2769
  147loPI   C4B 2352   6.326  10.913   8.403 -0.2496 -0.0542 -0.3302
  148loPI    C1 2353  16.289  14.242  10.647 -0.0873 -0.0730  0.1730
  148loPI    C2 2354  16.601  14.466  10.758 -0.1201  0.0510  0.0188
  148loPI    C3 2355  16.640  14.069  10.731  0.0570  0.0754 -0.1072
  148loPI   PO4 2356  16.307  14.309  10.291 -0.0600 -0.0748 -0.0726
  148loPI   GL1 2357  16.429  14.403   9.917  0.2707 -0.1881 -0.0596
  148loPI   GL2 2358  16.509  14.667   9.844 -0.0712 -0.1999  0.1985
  148loPI   C1A 2359  16.672  14.288   9.535 -0.3700 -0.3780 -0.0946
  148loPI   C2A 2360  16.872  14.309   9.212  0.1378 -0.3788  0.0710
  148loPI   C3A 2361  17.086  14.298   8.914 -0.1309 -0.0940 -0.0332
  148loPI   C4A 2362  17.430  14.256   8.554 -0.0917  0.3951 -0.0599
  148loPI   C5A 2363  17.686  14.228   8.312 -0.2025 -0.2425 -0.0001
  148loPI   C6A 2364  18.074  13.951   8.022 -0.3203 -0.0574 -0.1295
  148loPI   C1B 2365  16.233  14.805   9.541  0.3757 -0.0931  0.1729
  148loPI   C2B 2366  16.233  14.930   9.140 -0.0017  0.2147 -0.0037
  148loPI   C3B 2367  16.358  15.093   8.731 -0.0870 -0.0209 -0.0358
  148loPI   C4B 2368  16.525  15.401   8.461 -0.0647 -0.0940  0.0060
  149loPI    C1 2369   3.955  15.345  10.413  0.1392 -0.0154 -0.0639
  149loPI    C2 2370   4.197  15.042  10.513  0.0622 -0.0660 -0.0296
  149loPI    C3 2371   3.807  14.975  10.452 -0.0004  0.0662  0.2099
  149loPI   PO4 2372   4.185  15.497  10.214  0.1014 -0.1219 -0.3655
  149loPI   GL1 2373   4.134  15.735   9.843 -0.4048 -0.1217 -0.1451
  149loPI   GL2 2374   4.447  15.615   9.821 -0.1327  0.0386 -0.2143
  149loPI   C1A 2375   4.008  15.591   9.476  0.1213  0.1784  0.1512
  149loPI   C2A 2376   4.063  15.644   9.024 -0.0941  0.2692  0.2321
  149loPI   C3A 2377   4.044  15.742   8.654  0.0013 -0.0750  0.2247
  149loPI   C4A 2378   3.824  15.777   8.281 -0.2657  0.3282 -0.0938
  149loPI   C5A 2379   3.857  15.949   7.989  0.0956 -0.1365  0.0051
  149loPI   C6A 2380   3.679  15.813   7.583 -0.0330  0.0313  0.2511
  149loPI   C1B 2381   4.512  15.608   9.332  0.2299 -0.1426  0.1230
  149loPI   C2B 2382   4.585  15.613   8.873  0.0060 -0.1001  0.2495
  149loPI   C3B 2383   4.523  15.676   8.562  0.2386  0.0335  0.0758
  149loPI   C4B 2384   4.329  15.742   8.215 -0.1042  0.4184 -0.1945
  150loPI    C1 2385  13.562  13.863  10.633  0.0491  0.1158  0.0588
  150loPI    C2 2386  13.375  13.728  10.960  0.2305 -0.1462  0.0576
  150loPI    C3 2387  13.695  13.965  10.997  0.0677  0.0759  0.0633
  150loPI   PO4 2388  13.320  13.958  10.488 -0.1602 -0.1490  0.0018
  150loPI   GL1 2389  12.968  14.109  10.286  0.2598 -0.2598 -0.0937
  150loPI   GL2 2390  13.222  14.178  10.085 -0.0166  0.1512  0.3116
  150loPI   C1A 2391  12.901  13.853   9.898 -0.0871 -0.1369  0.0602
  150loPI   C2A 2392  12.967  13.920   9.491  0.1220 -0.1324 -0.1757
  150loPI   C3A 2393  12.900  13.905   9.118 -0.1602  0.0690  0.0288
  150loPI   C4A 2394  12.967  13.848   8.697 -0.2419  0.0565  0.1401
  150loPI   C5A 2395  13.105  13.855   8.337  0.3074 -0.3654 -0.1999
  150loPI   C6A 2396  13.359  13.622   8.063  0.3492 -0.2377 -0.0612
  150loPI   C1B 2397  13.042  14.448   9.763  0.1551 -0.2707 -0.1429
  150loPI   C2B 2398  13.308  14.444   9.350  0.3467  0.1399 -0.0563
  150loPI   C3B 2399  13.355  14.192   8.917  0.3158 -0.0093  0.2570
  150loPI   C4B 2400  13.358  14.248   8.512  0.1588 -0.1248  0.1945
  151loPI    C1 2401   9.506   0.112  10.334 -0.0204  0.0774 -0.0353
  151loPI    C2 2402   9.449   0.186  10.722  0.0718  0.0644 -0.0191
  151loPI    C3 2403   9.731  -0.073  10.608 -0.0388 -0.0259 -0.0896
  151loPI   PO4 2404   9.243   0.142  10.242  0.3576 -0.0832 -0.1446
  151loPI   GL1 2405   9.020   0.092   9.850 -0.0392  0.0871  0.1443
  151loPI   GL2 2406   8.957  -0.221   9.923  0.3290 -0.2534 -0.1058
  151loPI   C1A 2407   8.945  -0.117   9.464  0.0925  0.0715  0.2976
  151loPI   C2A 2408   9.010   0.149   9.128  0.1760  0.1145  0.1666
  151loPI   C3A 2409   9.031   0.507   8.908 -0.4021 -0.0282  0.0910
  151loPI   C4A 2410   8.987   0.588   8.466 -0.1828  0.0215 -0.5388
  151loPI   C5A 2411   9.218   0.842   8.179  0.1805  0.1514  0.1522
  151loPI   C6A 2412   9.251   0.836   7.718  0.0940 -0.2414 -0.3923
  151loPI   C1B 2413   9.138  -0.601   9.692  0.0659  0.1544 -0.3000
  151loPI   C2B 2414   9.201  -0.629   9.268 -0.0447  0.3816 -0.1274
  151loPI   C3B 2415   9.366  -0.739   8.856 -0.1752  0.0957  0.0310
  151loPI   C4B 2416   9.269  -0.613   8.418 -0.0468  0.1440  0.1449
  152loPI    C1 2417  16.167   4.903  10.371  0.1081 -0.0435  0.0690
  152loPI    C2 2418  16.073   4.930  10.759  0.0166 -0.1962  0.0585
  152loPI    C3 2419  16.220   5.248  10.566  0.0283 -0.1091  0.2090
  152loPI   PO4 2420  16.249   4.745  10.217  0.1740 -0.1110 -0.2678
  152loPI   GL1 2421  16.043   4.687   9.832 -0.0259 -0.1573  0.2930
  152loPI   GL2 2422  16.184   4.380   9.723  0.1246  0.0760 -0.1022
  152loPI   C1A 2423  16.226   4.849   9.425 -0.2370  0.3469  0.0131
  152loPI   C2A 2424  16.243   4.738   8.956 -0.0258  0.0524  0.4743
  152loPI   C3A 2425  16.418   4.664   8.535  0.0500  0.0648  0.2861
  152loPI   C4A 2426  16.236   4.346   8.315  0.0937 -0.0834 -0.1738
  152loPI   C5A 2427  15.775   4.336   8.107  0.2701 -0.3387 -0.0303
  152loPI   C6A 2428  15.750   4.092   7.715  0.4472 -0.0992  0.1701
  152loPI   C1B 2429  16.261   4.330   9.348 -0.2264 -0.1515  0.0860
  152loPI   C2B 2430  16.167   4.192   8.856  0.2716  0.0457  0.1196
  152loPI   C3B 2431  15.907   3.985   8.566  0.4449 -0.0102 -0.1264
  152loPI   C4B 2432  16.011   3.914   8.218 -0.1335 -0.0608  0.2486
  153loPI    C1 2433  17.856   9.938  10.204  0.1811  0.0709  0.4046
  153loPI    C2 2434  17.795  10.212  10.489 -0.1035  0.0047  0.4104
  153loPI    C3 2435  17.569  10.213  10.160 -0.0388 -0.1621  0.3644
  153loPI   PO4 2436  18.125  10.005  10.099 -0.2119 -0.2989 -0.0917
  153loPI   GL1 2437  18.275   9.620   9.811  0.0916 -0.0947  0.1181
  153loPI   GL2 2438  18.529   9.765   9.774  0.0144  0.1576  0.3777
  153loPI   C1A 2439  18.047   9.462   9.460 -0.0818 -0.0026 -0.1624
  153loPI   C2A 2440  18.013   9.442   9.015 -0.2126  0.0505  0.0755
  153loPI   C3A 2441  17.925   9.472   8.592 -0.0100 -0.0845  0.0257
  153loPI   C4A 2442  17.671   9.519   8.225 -0.3932 -0.0080 -0.2999
  153loPI   C5A 2443  17.635   9.194   7.905  0.0056  0.1372 -0.1289
  153loPI   C6A 2444  17.547   8.923   7.526  0.1911  0.0983 -0.2611
  153loPI   C1B 2445  18.304   9.863   9.322 -0.2381  0.3232  0.3185
  153loPI   C2B 2446  18.417   9.650   8.888 -0.0948 -0.0471 -0.2729
  153loPI   C3B 2447  18.362   9.697   8.415 -0.3755 -0.1174 -0.0124
  153loPI   C4B 2448  18.152   9.462   8.105  0.2521 -0.0884 -0.3483
  154loPI    C1 2449  10.566  16.353  11.096 -0.1406 -0.1164 -0.0049
  154loPI    C2 2450  10.636  16.077  11.376 -0.1048 -0.2078 -0.1031
  154loPI    C3 2451  10.359  16.360  11.438 -0.0709 -0.2051  0.0391
  154loPI   PO4 2452  10.601  16.190  10.823  0.5293 -0.0661  0.2162
  154loPI   GL1 2453  10.261  16.362  10.471 -0.1936 -0.0949  0.1852
  154loPI   GL2 2454  10.521  16.656  10.388  0.1070  0.3516 -0.2839
  154loPI   C1A 2455  10.163  16.241  10.125  0.1071  0.0632  0.1544
  154loPI   C2A 2456  10.192  16.263   9.703 -0.1059  0.0555  0.0348
  154loPI   C3A 2457  10.366  16.492   9.312  0.0196  0.0043  0.2490
  154loPI   C4A 2458  10.388  16.533   8.929  0.2732 -0.1532  0.0637
  154loPI   C5A 2459  10.241  16.690   8.623  0.0989  0.1904  0.1611
  154loPI   C6A 2460  10.180  16.819   8.152  0.5036  0.1773 -0.1452
  154loPI   C1B 2461  10.418  16.729  10.013  0.0392  0.1885  0.4107
  154loPI   C2B 2462  10.309  16.885   9.656 -0.0100  0.5564  0.0486
  154loPI   C3B 2463  10.328  16.994   9.214  0.0034  0.1332  0.0660
  154loPI   C4B 2464  10.333  17.216   8.773  0.3504  0.1439  0.2692
  155loPI    C1 2465   2.809   0.153  10.461  0.3163 -0.2762 -0.0985
  155loPI    C2 2466   3.068   0.363  10.682 -0.0632  0.0024  0.0950
  155loPI    C3 2467   2.959   0.496  10.320 -0.2325  0.0933  0.1785
  155loPI   PO4 2468   2.933  -0.122  10.420 -0.3611  0.0567  0.3017
  155loPI   GL1 2469   2.634  -0.354  10.111 -0.2028  0.1545 -0.2405
  155loPI   GL2 2470   2.434  -0.056  10.200 -0.1476  0.0062  0.1594
  155loPI   C1A 2471   2.616  -0.287   9.602 -0.0117 -0.0928 -0.0238
  155loPI   C2A 2472   2.684  -0.383   9.091 -0.1772  0.2460 -0.1395
  155loPI   C3A 2473   2.667  -0.359   8.625  0.0384  0.0692 -0.0730
  155loPI   C4A 2474   2.605   0.007   8.503 -0.2642  0.0640 -0.0348
  155loPI   C5A 2475   2.878   0.387   8.356  0.0256  0.1996  0.0423
  155loPI   C6A 2476   2.844   0.734   8.109  0.3599  0.4034  0.1576
  155loPI   C1B 2477   2.227  -0.030   9.800  0.1271  0.1393 -0.3110
  155loPI   C2B 2478   2.222   0.001   9.396 -0.0267 -0.1109 -0.1205
  155loPI   C3B 2479   2.373  -0.065   8.961  0.0381  0.2459 -0.0409
  155loPI   C4B 2480   2.301   0.348   8.689 -0.1844  0.0894 -0.2990
  156loPI    C1 2481   7.950   8.051  10.503 -0.2278 -0.0333  0.1077
  156loPI    C2 2482   8.148   8.234  10.799 -0.0279 -0.0765  0.0024
  156loPI    C3 2483   7.981   7.876  10.862 -0.0756 -0.0387  0.0926
  156loPI   PO4 2484   8.091   8.119  10.287 -0.1358 -0.2111 -0.0844
  156loPI   GL1 2485   8.105   8.132   9.799 -0.0080 -0.0634  0.2768
  156loPI   GL2 2486   7.747   8.147   9.647 -0.1817 -0.0197 -0.1623
  156loPI   C1A 2487   8.308   8.196   9.363  0.1628  0.0052 -0.2748
  156loPI   C2A 2488   8.506   7.901   9.017  0.2342 -0.1640  0.0021
  156loPI   C3A 2489   8.679   7.971   8.564  0.2325  0.4554 -0.0422
  156loPI   C4A 2490   8.732   8.334   8.228  0.1893 -0.0195  0.0272
  156loPI   C5A 2491   8.917   8.580   7.949  0.2218 -0.0074  0.1654
  156loPI   C6A 2492   8.768   8.865   7.623 -0.0997  0.5185 -0.2592
  156loPI   C1B 2493   7.523   8.184   9.345 -0.1614 -0.1437  0.0147
  156loPI   C2B 2494   7.496   8.226   9.007 -0.1951  0.0510 -0.1830
  156loPI   C3B 2495   7.284   8.376   8.643  0.0127 -0.1798 -0.2182
  156loPI   C4B 2496   7.284   8.018   8.369 -0.1718 -0.2020  0.1622
  157loPI    C1 2497   5.508   1.146  10.395  0.1332  0.1774  0.0030
  157loPI    C2 2498   5.111   1.192  10.373  0.1109 -0.0586 -0.1258
  157loPI    C3 2499   5.281   1.084  10.719  0.0495 -0.0782 -0.1015
  157loPI   PO4 2500   5.588   0.966  10.264  0.1648  0.0131  0.0589
  157loPI   GL1 2501   5.578   1.097   9.855 -0.0490  0.0707  0.0636
  157loPI   GL2 2502   5.745   1.106   9.537 -0.2380  0.0450  0.1376
  157loPI   C1A 2503   5.358   0.901   9.510  0.0539 -0.1220 -0.2517
  157loPI   C2A 2504   5.264   0.497   9.253 -0.3048  0.1747  0.1373
  157loPI   C3A 2505   5.154   0.373   8.837  0.2315 -0.2777  0.0391
  157loPI   C4A 2506   5.203   0.251   8.323  0.0783 -0.3113  0.0134
  157loPI   C5A 2507   5.110  -0.032   8.017  0.0152 -0.0068  0.0431
  157loPI   C6A 2508   4.813  -0.273   7.815 -0.1529  0.0395  0.1690
  157loPI   C1B 2509   5.534   1.154   9.124  0.1440  0.1285 -0.2498
  157loPI   C2B 2510   5.620   1.252   8.659  0.1066  0.1733 -0.1416
  157loPI   C3B 2511   5.675   1.152   8.204  0.0166 -0.0348  0.0122
  157loPI   C4B 2512   5.875   0.664   8.024  0.2770  0.1895  0.0299
  158loPI    C1 2513  11.012   1.433  10.757 -0.2304  0.0218 -0.1779
  158loPI    C2 2514  11.377   1.272  10.786 -0.0836  0.3200 -0.3296
  158loPI    C3 2515  11.055   1.055  10.880  0.1588  0.2098  0.2969
  158loPI   PO4 2516  11.042   1.521  10.490  0.0131 -0.2612  0.3084
  158loPI   GL1 2517  10.971   1.435  10.106  0.0357  0.0761  0.0291
  158loPI   GL2 2518  10.715   1.328   9.838 -0.0084 -0.0973  0.3768
  158loPI   C1A 2519  11.042   1.612   9.657 -0.0408  0.1818 -0.2154
  158loPI   C2A 2520  11.151   1.365   9.262  0.2634  0.0589  0.2104
  158loPI   C3A 2521  11.039   1.230   8.823 -0.3108  0.1879  0.3027
  158loPI   C4A 2522  11.168   1.096   8.446  0.1002 -0.4044  0.3406
  158loPI   C5A 2523  11.168   1.226   7.964  0.0871 -0.1031 -0.2106
  158loPI   C6A 2524  11.305   1.379   7.553  0.3078 -0.2110 -0.1141
  158loPI   C1B 2525  10.591   1.376   9.399  0.3724 -0.1874  0.0313
  158loPI   C2B 2526  10.651   1.478   8.928  0.1395  0.0901 -0.0906
  158loPI   C3B 2527  10.808   1.613   8.564  0.0843 -0.0785 -0.0548
  158loPI   C4B 2528  10.872   1.886   8.172 -0.0052 -0.0839 -0.0177
  159loPI    C1 2529  15.489  14.430  10.225  0.2250 -0.2204  0.1267
  159loPI    C2 2530  15.510  14.039  10.143  0.1052 -0.2066  0.0260
  159loPI    C3 2531  15.221  14.178  10.382  0.0301 -0.1548 -0.0942
  159loPI   PO4 2532  15.812  14.472  10.233  0.0315  0.1732 -0.0194
  159loPI   GL1 2533  15.890  14.639   9.885 -0.1648  0.2297 -0.2257
  159loPI   GL2 2534  15.727  14.379   9.723 -0.0406  0.1664  0.3353
  159loPI   C1A 2535  15.902  15.065   9.820  0.2959 -0.0791  0.1364
  159loPI   C2A 2536  15.863  15.278   9.358  0.0142 -0.1645  0.2806
  159loPI   C3A 2537  15.902  15.214   8.883  0.2354 -0.1788 -0.0085
  159loPI   C4A 2538  15.993  15.434   8.515 -0.0008  0.3367  0.3119
  159loPI   C5A 2539  16.114  15.353   8.144  0.0922 -0.1425  0.2810
  159loPI   C6A 2540  16.450  15.362   7.905 -0.2095  0.0739 -0.0352
  159loPI   C1B 2541  16.122  14.289   9.522 -0.0510  0.0865 -0.2529
  159loPI   C2B 2542  16.265  14.373   9.112  0.1379 -0.0278 -0.0626
  159loPI   C3B 2543  16.460  14.484   8.705  0.1254  0.6523  0.0249
  159loPI   C4B 2544  16.817  14.723   8.494  0.1830 -0.0031  0.0600
  160loPI    C1 2545  18.095   9.174  10.346 -0.1083  0.1864  0.1890
  160loPI    C2 2546  17.943   9.314  10.689 -0.1914  0.0075  0.2266
  160loPI    C3 2547  18.150   8.972  10.687 -0.0717  0.0798  0.1204
  160loPI   PO4 2548  18.063   9.434  10.206 -0.1417  0.0441  0.0255
  160loPI   GL1 2549  17.758   9.538   9.831 -0.0407 -0.1873  0.0007
  160loPI   GL2 2550  17.501   9.359   9.755  0.2031  0.1676  0.1175
  160loPI   C1A 2551  17.832   9.904   9.522  0.2509 -0.3554 -0.0498
  160loPI   C2A 2552  17.870   9.976   9.047  0.1941 -0.0476  0.2713
  160loPI   C3A 2553  17.995  10.003   8.633  0.4655 -0.0475 -0.2386
  160loPI   C4A 2554  17.981   9.923   8.185 -0.0221 -0.1135  0.1733
  160loPI   C5A 2555  17.823   9.689   7.800  0.2006  0.0474 -0.2985
  160loPI   C6A 2556  17.362   9.626   7.742  0.2944 -0.0546  0.0328
  160loPI   C1B 2557  17.677   9.103   9.463 -0.3575 -0.1317  0.2411
  160loPI   C2B 2558  17.756   8.997   9.073 -0.0783 -0.0824 -0.0860
  160loPI   C3B 2559  17.843   9.009   8.699 -0.0893  0.2959  0.0372
  160loPI   C4B 2560  17.748   8.997   8.359 -0.0507 -0.4611 -0.4803
  161loPI    C1 2561   6.927  17.184  10.414  0.0281  0.3034  0.0383
  161loPI    C2 2562   6.918  17.021  10.779 -0.2559 -0.0837 -0.1340
  161loPI    C3 2563   7.183  17.309  10.695 -0.2147  0.0401  0.3851
  161loPI   PO4 2564   6.714  17.074  10.223 -0.2179  0.0993  0.2210
  161loPI   GL1 2565   6.837  16.847   9.832 -0.1180  0.1109  0.3875
  161loPI   GL2 2566   6.723  16.767   9.571  0.0631  0.0830  0.1718
  161loPI   C1A 2567   7.212  16.692   9.601  0.1437  0.0251 -0.0807
  161loPI   C2A 2568   7.393  16.576   9.164 -0.1887 -0.0927  0.2522
  161loPI   C3A 2569   7.363  16.583   8.747 -0.0918  0.1125  0.3215
  161loPI   C4A 2570   7.289  16.502   8.325 -0.0015  0.1517  0.0210
  161loPI   C5A 2571   7.196  16.676   8.006 -0.1521  0.1643  0.0641
  161loPI   C6A 2572   6.953  16.994   7.849 -0.1258  0.2709  0.3395
  161loPI   C1B 2573   6.927  16.759   9.147  0.0993  0.0510 -0.2288
  161loPI   C2B 2574   6.866  16.690   8.686  0.2318 -0.0557 -0.3249
  161loPI   C3B 2575   6.794  16.676   8.353 -0.1597 -0.1823  0.1536
  161loPI   C4B 2576   6.688  16.616   7.918 -0.0579 -0.1703  0.2568
  162loPI    C1 2577   5.034   0.228  10.227 -0.2021 -0.1514  0.0195
  162loPI    C2 2578   4.713   0.157  10.455 -0.2273  0.0955  0.0629
  162loPI    C3 2579   5.021   0.368  10.601 -0.1853  0.1387 -0.0859
  162loPI   PO4 2580   4.974  -0.026  10.046  0.0732  0.1963 -0.3428
  162loPI   GL1 2581   4.941  -0.005   9.632 -0.0310  0.0742  0.3653
  162loPI   GL2 2582   4.892   0.186   9.425  0.0873 -0.1321 -0.2042
  162loPI   C1A 2583   4.598  -0.180   9.355 -0.0523 -0.1659 -0.0348
  162loPI   C2A 2584   4.280  -0.262   8.965 -0.1655 -0.0077 -0.0840
  162loPI   C3A 2585   4.102  -0.459   8.588 -0.0197 -0.1980  0.2012
  162loPI   C4A 2586   4.236  -0.759   8.282 -0.0228 -0.0399 -0.2722
  162loPI   C5A 2587   4.449  -0.717   7.949 -0.1021  0.4071 -0.0977
  162loPI   C6A 2588   4.877  -0.844   7.773 -0.2683  0.0049 -0.4042
  162loPI   C1B 2589   4.694   0.381   9.070 -0.1416  0.0205 -0.4421
  162loPI   C2B 2590   4.685   0.352   8.627 -0.1625 -0.1568 -0.0663
  162loPI   C3B 2591   4.483  -0.071   8.454  0.3076  0.0969  0.0742
  162loPI   C4B 2592   4.342  -0.221   8.155 -0.2344 -0.0309  0.0966
  163loPI    C1 2593   7.263   7.163  10.330 -0.0846 -0.1538 -0.0121
  163loPI    C2 2594   7.043   7.063  10.648 -0.1571 -0.3226 -0.1137
  163loPI    C3 2595   7.437   6.994  10.648 -0.0583  0.1899  0.1605
  163loPI   PO4 2596   7.202   6.989  10.075 -0.0178 -0.2154  0.1741
  163loPI   GL1 2597   7.317   7.101   9.638  0.3073  0.0545  0.3614
  163loPI   GL2 2598   7.572   7.070   9.690  0.0899  0.1163  0.0488
  163loPI   C1A 2599   7.176   7.169   9.163 -0.4937  0.2334 -0.1193
  163loPI   C2A 2600   7.016   7.504   8.813 -0.2051 -0.0473 -0.0828
  163loPI   C3A 2601   7.240   7.519   8.373 -0.0702 -0.1169  0.0254
  163loPI   C4A 2602   7.422   7.213   8.039 -0.1441  0.0375  0.2044
  163loPI   C5A 2603   7.145   6.914   7.758 -0.0880  0.3027 -0.2192
  163loPI   C6A 2604   6.947   6.625   7.829  0.0810  0.0554  0.0179
  163loPI   C1B 2605   7.648   7.295   9.297 -0.0059  0.1008 -0.2823
  163loPI   C2B 2606   7.684   7.288   8.893  0.1444  0.1362 -0.0194
  163loPI   C3B 2607   7.893   7.343   8.447 -0.4874 -0.0049  0.0153
  163loPI   C4B 2608   8.037   7.190   8.045  0.1303  0.1095 -0.0770
  164loPI    C1 2609   8.427  14.858  10.709  0.0037 -0.0265 -0.0050
  164loPI    C2 2610   8.126  14.672  10.897  0.1096 -0.1966 -0.0013
  164loPI    C3 2611   8.423  14.835  11.109  0.0516 -0.0822 -0.0075
  164loPI   PO4 2612   8.516  14.672  10.503 -0.0963  0.0877  0.3711
  164loPI   GL1 2613   8.748  14.657  10.128  0.2317 -0.0007  0.1839
  164loPI   GL2 2614   8.511  14.645   9.976  0.2063  0.1082  0.3363
  164loPI   C1A 2615   9.042  14.624   9.768  0.0377 -0.2189 -0.0236
  164loPI   C2A 2616   9.149  14.664   9.361  0.0203  0.0657  0.1707
  164loPI   C3A 2617   9.020  14.482   8.957  0.2542  0.0637  0.2136
  164loPI   C4A 2618   9.001  14.336   8.549 -0.2417  0.1570 -0.1086
  164loPI   C5A 2619   9.286  14.015   8.286  0.0678 -0.3355 -0.0143
  164loPI   C6A 2620   9.265  13.750   8.019 -0.0908 -0.0063  0.0764
  164loPI   C1B 2621   8.446  14.614   9.555 -0.2619 -0.1299  0.1535
  164loPI   C2B 2622   8.505  14.552   9.137  0.4120 -0.0137  0.1487
  164loPI   C3B 2623   8.544  14.378   8.677  0.3009  0.1648  0.1239
  164loPI   C4B 2624   8.569  14.051   8.355 -0.1524  0.0709  0.1200
  165loPI    C1 2625  13.271   0.729  10.379 -0.1827 -0.0169  0.1589
  165loPI    C2 2626  13.108   0.373  10.295 -0.3577  0.0561  0.1852
  165loPI    C3 2627  13.088   0.520  10.666 -0.3147  0.1087  0.1669
  165loPI   PO4 2628  13.525   0.726  10.209 -0.2294 -0.0811 -0.0244
  165loPI   GL1 2629  13.576   0.682   9.787 -0.1204 -0.2912 -0.2995
  165loPI   GL2 2630  13.975   0.836   9.769  0.3753 -0.1229  0.1808
  165loPI   C1A 2631  13.844   0.335   9.599 -0.2692  0.2887  0.3323
  165loPI   C2A 2632  13.880   0.304   9.105  0.0669  0.0028 -0.0407
  165loPI   C3A 2633  13.830   0.392   8.655  0.0934  0.1971 -0.0024
  165loPI   C4A 2634  13.835   0.668   8.383 -0.2042 -0.0893 -0.2978
  165loPI   C5A 2635  14.110   0.733   8.176  0.1396  0.0443  0.2857
  165loPI   C6A 2636  14.256   0.880   7.839  0.1677  0.2568  0.1434
  165loPI   C1B 2637  14.082   0.766   9.370  0.1604  0.1988  0.0377
  165loPI   C2B 2638  14.256   0.767   9.031  0.3167 -0.3387 -0.2596
  165loPI   C3B 2639  14.484   0.720   8.666 -0.2858 -0.0256 -0.2339
  165loPI   C4B 2640  14.627   1.055   8.535 -0.2119 -0.1384 -0.0817
  166loPI    C1 2641   3.214   3.993  10.491 -0.0850 -0.0154 -0.0985
  166loPI    C2 2642   2.846   4.076  10.357 -0.0964  0.1581  0.0352
  166loPI    C3 2643   2.894   3.882  10.703 -0.0628 -0.0012 -0.0574
  166loPI   PO4 2644   3.293   3.940  10.193 -0.0532 -0.0598  0.4714
  166loPI   GL1 2645   3.302   4.076   9.730  0.3301 -0.0796  0.1113
  166loPI   GL2 2646   3.203   4.315   9.551 -0.0763 -0.0137  0.3050
  166loPI   C1A 2647   3.339   3.801   9.490 -0.0124  0.0967  0.0210
  166loPI   C2A 2648   3.348   3.844   9.071 -0.0064  0.3556  0.0419
  166loPI   C3A 2649   3.470   3.811   8.662  0.2779  0.0859 -0.0145
  166loPI   C4A 2650   3.712   3.702   8.289  0.1188 -0.5019  0.0814
  166loPI   C5A 2651   3.948   3.771   7.916  0.0241  0.0145  0.3165
  166loPI   C6A 2652   4.205   3.989   7.778  0.0816  0.1924 -0.1751
  166loPI   C1B 2653   3.208   4.307   9.086  0.0966  0.2412 -0.3005
  166loPI   C2B 2654   3.171   4.303   8.708  0.0445 -0.4233  0.0982
  166loPI   C3B 2655   3.149   4.076   8.345  0.2174  0.2907  0.1773
  166loPI   C4B 2656   3.205   3.611   8.215  0.1559  0.0857 -0.0586
  167loPI    C1 2657   0.946   4.421  10.399 -0.0608 -0.1104 -0.0336
  167loPI    C2 2658   1.088   4.053  10.464  0.0930 -0.0270  0.1113
  167loPI    C3 2659   0.812   4.207  10.709  0.1086 -0.0042  0.1146
  167loPI   PO4 2660   1.130   4.547  10.288  0.1368 -0.2032 -0.1915
  167loPI   GL1 2661   1.176   4.595   9.857  0.0126 -0.2077  0.0149
  167loPI   GL2 2662   0.918   4.757   9.803  0.1085 -0.0495 -0.0402
  167loPI   C1A 2663   1.168   4.579   9.366 -0.1292  0.1906  0.4873
  167loPI   C2A 2664   1.122   4.566   8.869 -0.0299 -0.2498 -0.0292
  167loPI   C3A 2665   1.186   4.436   8.431 -0.2184  0.3171  0.2479
  167loPI   C4A 2666   1.341   4.039   8.248  0.3727 -0.2280  0.2219
  167loPI   C5A 2667   1.710   4.229   7.948  0.2119 -0.1107  0.1580
  167loPI   C6A 2668   1.984   4.536   7.753  0.2637  0.1655  0.1288
  167loPI   C1B 2669   0.775   4.874   9.374  0.1492  0.0992  0.0336
  167loPI   C2B 2670   0.784   4.936   8.914 -0.3173 -0.0030  0.0317
  167loPI   C3B 2671   0.736   5.109   8.510 -0.2635 -0.0761  0.2483
  167loPI   C4B 2672   0.982   4.932   8.108 -0.1681  0.0784  0.0737
  168loPI    C1 2673   5.024  16.274  10.666  0.0461  0.1776 -0.0895
  168loPI    C2 2674   4.912  15.963  10.890  0.1371 -0.0734 -0.3853
  168loPI    C3 2675   4.728  16.316  10.932  0.0740 -0.1471 -0.0038
  168loPI   PO4 2676   5.021  16.070  10.385 -0.2649 -0.1927  0.1584
  168loPI   GL1 2677   4.935  15.879   9.918  0.0745 -0.3136  0.0845
  168loPI   GL2 2678   5.275  15.882   9.998  0.0961  0.0592 -0.1669
  168loPI   C1A 2679   4.870  15.936   9.463  0.0246 -0.1665 -0.2539
  168loPI   C2A 2680   4.904  15.932   9.050 -0.0977  0.2506 -0.0077
  168loPI   C3A 2681   4.910  15.949   8.624 -0.0932 -0.2378  0.3754
  168loPI   C4A 2682   5.039  15.969   8.264 -0.0502 -0.3736 -0.1311
  168loPI   C5A 2683   5.117  15.730   7.874  0.0452 -0.0844  0.1318
  168loPI   C6A 2684   5.511  15.616   7.822  0.1503  0.0064  0.2133
  168loPI   C1B 2685   5.468  15.798   9.588  0.1842 -0.1337  0.1390
  168loPI   C2B 2686   5.569  15.792   9.159  0.0782  0.1944 -0.1655
  168loPI   C3B 2687   5.542  15.755   8.803 -0.0913  0.0243 -0.0691
  168loPI   C4B 2688   5.438  15.648   8.381 -0.2913 -0.1217  0.0516
  169loPI    C1 2689  17.082   8.456  10.329  0.0641  0.1060  0.0649
  169loPI    C2 2690  17.250   8.807  10.418 -0.0852  0.1408  0.2144
  169loPI    C3 2691  16.950   8.667  10.641  0.0005 -0.1017  0.1802
  169loPI   PO4 2692  17.015   8.473  10.058 -0.2405  0.1386 -0.0767
  169loPI   GL1 2693  17.053   8.355   9.726 -0.0442 -0.1403  0.0766
  169loPI   GL2 2694  16.753   8.320   9.652  0.1294  0.2333  0.1652
  169loPI   C1A 2695  17.105   8.294   9.286 -0.3503 -0.1949  0.0541
  169loPI   C2A 2696  16.842   8.404   9.029 -0.0906 -0.0789 -0.1626
  169loPI   C3A 2697  16.889   8.181   8.649  0.2073  0.0274  0.2643
  169loPI   C4A 2698  17.104   8.177   8.281 -0.2006  0.0194  0.0728
  169loPI   C5A 2699  17.003   7.872   7.978 -0.0979  0.1678  0.1209
  169loPI   C6A 2700  17.126   7.544   7.752 -0.1113 -0.0359  0.1965
  169loPI   C1B 2701  16.837   8.697   9.422 -0.2377  0.1074  0.0702
  169loPI   C2B 2702  16.656   8.855   9.032 -0.0945 -0.1278 -0.1150
  169loPI   C3B 2703  16.583   8.796   8.675 -0.2542  0.0631 -0.3264
  169loPI   C4B 2704  16.120   8.617   8.518 -0.1157 -0.4066  0.0541
  170loPI    C1 2705  14.207   7.901  10.216 -0.0718  0.0191 -0.0423
  170loPI    C2 2706  14.499   8.121  10.053 -0.2079  0.1020 -0.1776
  170loPI    C3 2707  14.339   8.229  10.403  0.0560 -0.0524 -0.0066
  170loPI   PO4 2708  14.304   7.688  10.178  0.2314  0.1076 -0.5190
  170loPI   GL1 2709  14.180   7.394   9.910 -0.1062  0.1369  0.0472
  170loPI   GL2 2710  13.907   7.244   9.863  0.0045 -0.1306 -0.0175
  170loPI   C1A 2711  14.382   7.320   9.560  0.0595  0.0280 -0.0933
  170loPI   C2A 2712  14.381   7.143   9.155 -0.2514  0.1275 -0.5198
  170loPI   C3A 2713  14.409   6.903   8.913  0.0324  0.1516 -0.0645
  170loPI   C4A 2714  14.403   6.826   8.490 -0.0878 -0.0902 -0.1877
  170loPI   C5A 2715  14.086   6.812   8.101  0.1103 -0.2630 -0.4080
  170loPI   C6A 2716  13.836   7.102   7.746  0.0122 -0.1782 -0.0711
  170loPI   C1B 2717  13.886   7.361   9.413 -0.1468  0.0392  0.3953
  170loPI   C2B 2718  13.829   7.552   9.063  0.2911  0.1536  0.0701
  170loPI   C3B 2719  13.795   7.552   8.537 -0.0516  0.2749 -0.0776
  170loPI   C4B 2720  13.696   7.170   8.231 -0.1146  0.1328  0.0521
  171loPI    C1 2721  14.923  17.792  11.059 -0.2002  0.0494  0.2688
  171loPI    C2 2722  14.757  17.556  10.782  0.1670  0.0589  0.0348
  171loPI    C3 2723  14.725  17.462  11.170 -0.1157 -0.1025 -0.0248
  171loPI   PO4 2724  15.155  17.828  10.865 -0.0162 -0.0581  0.1153
  171loPI   GL1 2725  15.288  17.753  10.378  0.0264  0.1180  0.1307
  171loPI   GL2 2726  15.496  17.468  10.346 -0.0724  0.1348 -0.1785
  171loPI   C1A 2727  15.272  17.899   9.986 -0.0372  0.1280  0.1124
  171loPI   C2A 2728  15.034  18.120   9.743  0.1323  0.0053  0.1238
  171loPI   C3A 2729  14.856  18.361   9.311  0.0499  0.0471 -0.2444
  171loPI   C4A 2730  14.744  18.425   8.878 -0.0670 -0.2473  0.0474
  171loPI   C5A 2731  14.842  18.450   8.445 -0.1075 -0.1298 -0.0442
  171loPI   C6A 2732  15.181  18.298   8.090  0.0163  0.1476  0.2948
  171loPI   C1B 2733  15.754  17.646   9.975  0.0714 -0.3010 -0.1079
  171loPI   C2B 2734  15.580  17.723   9.608 -0.0981  0.2006 -0.1638
  171loPI   C3B 2735  15.679  17.885   9.043  0.1459 -0.2019 -0.0072
  171loPI   C4B 2736  15.598  17.560   8.683  0.3617 -0.2137 -0.1430
  172loPI    C1 2737   5.583  14.609  10.198  0.0066 -0.0697  0.0422
  172loPI    C2 2738   5.592  14.411  10.546  0.0539 -0.0634  0.0447
  172loPI    C3 2739   5.253  14.584  10.422  0.1019  0.1553  0.2121
  172loPI   PO4 2740   5.798  14.686  10.159 -0.0952 -0.0154  0.2859
  172loPI   GL1 2741   6.044  14.557   9.753  0.3888 -0.0033  0.3336
  172loPI   GL2 2742   5.721  14.752   9.647  0.0634  0.1089 -0.0712
  172loPI   C1A 2743   5.964  14.239   9.362 -0.1933 -0.2033  0.2339
  172loPI   C2A 2744   6.006  14.290   8.891 -0.2736 -0.2904 -0.1266
  172loPI   C3A 2745   6.225  14.597   8.754  0.0996  0.1415  0.3461
  172loPI   C4A 2746   6.160  15.089   8.717 -0.1476  0.2862 -0.0842
  172loPI   C5A 2747   6.314  15.392   8.399 -0.1490 -0.0280 -0.0227
  172loPI   C6A 2748   6.510  15.344   7.977 -0.2453  0.0315 -0.0094
  172loPI   C1B 2749   5.597  14.610   9.269 -0.4027 -0.1114  0.1385
  172loPI   C2B 2750   5.686  14.704   8.861 -0.1565  0.0150 -0.2445
  172loPI   C3B 2751   5.802  14.833   8.439  0.0422 -0.2596 -0.2079
  172loPI   C4B 2752   6.011  15.086   8.201 -0.1103  0.0667  0.0744
  173loPI    C1 2753  14.772   8.772  10.547  0.0930 -0.1499  0.0114
  173loPI    C2 2754  15.066   8.797  10.817 -0.1356 -0.3513  0.2852
  173loPI    C3 2755  14.706   8.951  10.899 -0.1193 -0.1342 -0.0352
  173loPI   PO4 2756  14.953   8.862  10.272  0.1706  0.3097  0.0509
  173loPI   GL1 2757  14.780   8.921   9.876 -0.0980 -0.0317 -0.0698
  173loPI   GL2 2758  14.536   9.068   9.784 -0.1038  0.1373  0.0750
  173loPI   C1A 2759  14.753   8.682   9.515 -0.1757 -0.0182  0.2243
  173loPI   C2A 2760  14.659   8.628   9.100 -0.2258  0.1198  0.1900
  173loPI   C3A 2761  14.626   8.503   8.675 -0.0676  0.1722  0.2369
  173loPI   C4A 2762  14.514   8.195   8.316 -0.3004  0.2328  0.1229
  173loPI   C5A 2763  14.493   7.943   7.944  0.0822  0.1364  0.1866
  173loPI   C6A 2764  14.366   8.015   7.529  0.0108 -0.2741 -0.0527
  173loPI   C1B 2765  14.534   9.067   9.365  0.3939  0.1979 -0.0301
  173loPI   C2B 2766  14.438   9.033   9.074  0.0422  0.1448 -0.0971
  173loPI   C3B 2767  14.317   9.370   8.892  0.0630  0.2474  0.0559
  173loPI   C4B 2768  14.188   9.463   8.516 -0.0173  0.3521  0.0916
  174loPI    C1 2769   9.074   5.276  10.511  0.1035  0.1227 -0.1168
  174loPI    C2 2770   9.357   5.451  10.734  0.2209 -0.1331 -0.0604
  174loPI    C3 2771   9.047   5.270  10.910 -0.0360  0.2342 -0.1242
  174loPI   PO4 2772   9.145   5.032  10.360  0.0906 -0.0870  0.0437
  174loPI   GL1 2773   9.001   4.769   9.980 -0.3801 -0.0810  0.0037
  174loPI   GL2 2774   9.209   4.541   9.900  0.2189  0.1252 -0.2097
  174loPI   C1A 2775   9.164   4.951   9.626  0.0588 -0.1268  0.1373
  174loPI   C2A 2776   9.224   5.044   9.186  0.0247 -0.2305  0.2701
  174loPI   C3A 2777   9.152   5.032   8.736  0.0994 -0.1960 -0.3026
  174loPI   C4A 2778   9.151   4.874   8.239 -0.0909 -0.2525 -0.0908
  174loPI   C5A 2779   9.097   4.742   7.845  0.1522  0.2338  0.2367
  174loPI   C6A 2780   8.830   5.006   7.610  0.0580 -0.3019 -0.1070
  174loPI   C1B 2781   9.078   4.540   9.410 -0.1899  0.1372 -0.0254
  174loPI   C2B 2782   9.080   4.540   9.060 -0.1104  0.2171  0.0731
  174loPI   C3B 2783   8.988   4.552   8.621  0.1859 -0.2430 -0.1105
  174loPI   C4B 2784   9.014   4.381   8.156  0.3459 -0.0592 -0.2935
  175loPI    C1 2785   2.980   7.000  10.103 -0.0948  0.1870 -0.0340
  175loPI    C2 2786   2.807   6.826  10.419 -0.1520  0.1314 -0.0956
  175loPI    C3 2787   2.870   6.616  10.085 -0.2030  0.2233 -0.1634
  175loPI   PO4 2788   3.186   7.076  10.204  0.2115 -0.2394 -0.2081
  175loPI   GL1 2789   3.623   7.111   9.883  0.1493 -0.4343  0.1598
  175loPI   GL2 2790   3.501   6.914   9.637  0.1652 -0.0530  0.1401
  175loPI   C1A 2791   3.751   7.418   9.562  0.0681  0.0258  0.1748
  175loPI   C2A 2792   4.084   7.406   9.186  0.0741 -0.1040 -0.0947
  175loPI   C3A 2793   4.132   7.424   8.582 -0.1161  0.1482  0.1110
  175loPI   C4A 2794   3.981   7.573   8.147  0.1603 -0.1115 -0.1157
  175loPI   C5A 2795   3.760   7.434   7.729  0.2009  0.1649  0.1493
  175loPI   C6A 2796   3.582   6.988   7.834 -0.2782  0.1772 -0.1022
  175loPI   C1B 2797   3.277   6.885   9.281 -0.2719 -0.3615  0.1194
  175loPI   C2B 2798   3.077   6.927   8.867 -0.0385  0.2865 -0.4383
  175loPI   C3B 2799   2.875   6.981   8.482  0.0770  0.1493  0.3193
  175loPI   C4B 2800   2.683   6.768   8.137  0.0988  0.1253  0.1437
  176loPI    C1 2801   4.164  11.073  10.340 -0.0394 -0.0113 -0.0230
  176loPI    C2 2802   4.316  11.356  10.579  0.1169 -0.1387  0.0305
  176loPI    C3 2803   4.000  11.142  10.698 -0.0056  0.0159 -0.0127
  176loPI   PO4 2804   4.347  11.242  10.020  0.0526 -0.0628  0.3967
  176loPI   GL1 2805   4.500  11.149   9.636 -0.5246 -0.0158 -0.0162
  176loPI   GL2 2806   4.344  10.843   9.598  0.0915  0.1170 -0.3790
  176loPI   C1A 2807   4.520  11.182   9.185 -0.0931 -0.0310  0.3789
  176loPI   C2A 2808   4.558  11.426   8.808 -0.0633 -0.2620 -0.2308
  176loPI   C3A 2809   4.786  11.430   8.509  0.2881 -0.2016  0.4207
  176loPI   C4A 2810   5.147  11.487   8.192  0.0920  0.1373 -0.2812
  176loPI   C5A 2811   5.050  11.609   7.792 -0.1505 -0.0813  0.0145
  176loPI   C6A 2812   4.913  12.009   7.704  0.1294 -0.2694 -0.0257
  176loPI   C1B 2813   4.081  10.900   9.367  0.1696  0.0950 -0.0435
  176loPI   C2B 2814   3.662  10.917   9.295 -0.0131 -0.0863  0.1060
  176loPI   C3B 2815   3.272  10.891   9.182  0.0892  0.0455 -0.2997
  176loPI   C4B 2816   3.023  10.895   8.820 -0.0002  0.1689  0.3008
  177loPI    C1 2817  15.479   0.687  10.836 -0.0206 -0.2877 -0.1557
  177loPI    C2 2818  15.098   0.679  10.714 -0.0189  0.0147 -0.1881
  177loPI    C3 2819  15.188   0.802  11.084  0.0518 -0.0030 -0.1992
  177loPI   PO4 2820  15.565   0.598  10.649  0.1145 -0.0259  0.2180
  177loPI   GL1 2821  15.804   0.623  10.236  0.3759  0.2741  0.0835
  177loPI   GL2 2822  15.638   0.461  10.118 -0.2618 -0.0024 -0.0369
  177loPI   C1A 2823  16.005   0.708   9.825  0.1813 -0.0245  0.0458
  177loPI   C2A 2824  15.907   0.831   9.414 -0.1812 -0.5139  0.0355
  177loPI   C3A 2825  15.823   0.981   9.035  0.2305  0.2438 -0.0074
  177loPI   C4A 2826  15.664   0.855   8.735  0.2231  0.2711  0.2046
  177loPI   C5A 2827  15.607   0.511   8.424  0.1489  0.0433 -0.0195
  177loPI   C6A 2828  15.546   0.211   8.037  0.1196  0.0843  0.0336
  177loPI   C1B 2829  15.529   0.544   9.670 -0.0792  0.0673 -0.0721
  177loPI   C2B 2830  15.533   0.585   9.241 -0.2076 -0.1806  0.0092
  177loPI   C3B 2831  15.325   0.457   8.828 -0.1107  0.1533  0.2214
  177loPI   C4B 2832  15.284   0.166   8.454  0.1889  0.0552  0.0033
  178loPI    C1 2833  12.859   6.624  10.425  0.0078 -0.3381 -0.0101
  178loPI    C2 2834  12.631   6.490  10.725  0.0633  0.0075  0.1918
  178loPI    C3 2835  13.021   6.557  10.784  0.1109 -0.0852 -0.0074
  178loPI   PO4 2836  12.795   6.501  10.143 -0.0691  0.0065 -0.0538
  178loPI   GL1 2837  12.693   6.572   9.692  0.0641 -0.1411 -0.1753
  178loPI   GL2 2838  12.867   6.338   9.594 -0.2563 -0.1070 -0.1808
  178loPI   C1A 2839  12.524   6.718   9.365  0.0367  0.0904 -0.0898
  178loPI   C2A 2840  12.604   6.602   8.969  0.1581  0.2625  0.0269
  178loPI   C3A 2841  12.565   6.613   8.587  0.1886 -0.0656  0.0549
  178loPI   C4A 2842  12.804   6.528   8.321  0.0148  0.3781 -0.0064
  178loPI   C5A 2843  13.192   6.393   8.053 -0.1431 -0.2542  0.1697
  178loPI   C6A 2844  13.568   6.104   7.776  0.0391  0.1876 -0.0081
  178loPI   C1B 2845  12.904   6.254   9.223  0.0899 -0.0240  0.0160
  178loPI   C2B 2846  12.898   6.228   8.773 -0.0933  0.0996  0.0472
  178loPI   C3B 2847  12.931   6.060   8.319  0.1768 -0.0762 -0.0636
  178loPI   C4B 2848  12.823   5.959   7.868  0.0756  0.1679  0.1232
  179loPI    C1 2849   4.644  14.325  10.556  0.0311  0.0073  0.0158
  179loPI    C2 2850   4.879  14.108  10.796 -0.1541 -0.2124  0.0019
  179loPI    C3 2851   4.514  14.217  10.919 -0.0629  0.0941  0.0085
  179loPI   PO4 2852   4.769  14.325  10.347 -0.1506 -0.1245 -0.1627
  179loPI   GL1 2853   4.947  14.470   9.987  0.1104 -0.1665  0.2226
  179loPI   GL2 2854   5.256  14.426   9.867 -0.2225 -0.2696 -0.4657
  179loPI   C1A 2855   4.774  14.215   9.666  0.3268 -0.1677  0.0829
  179loPI   C2A 2856   4.885  14.135   9.296  0.2413  0.0695 -0.1733
  179loPI   C3A 2857   4.910  14.099   8.822  0.0707  0.0416 -0.1709
  179loPI   C4A 2858   5.077  14.056   8.409 -0.2727  0.0155 -0.2347
  179loPI   C5A 2859   4.883  14.180   8.048 -0.0397 -0.2024 -0.1688
  179loPI   C6A 2860   4.581  14.482   7.728 -0.2178  0.2731 -0.1223
  179loPI   C1B 2861   5.424  14.144   9.569 -0.0040 -0.0071  0.0592
  179loPI   C2B 2862   5.491  14.088   9.103 -0.0978 -0.0434 -0.2580
  179loPI   C3B 2863   5.524  14.231   8.714 -0.2503 -0.1083 -0.1947
  179loPI   C4B 2864   5.681  14.282   8.417  0.0977 -0.0557  0.1287
  180loPI    C1 2865   0.540   2.200  10.768 -0.0442  0.1707 -0.2197
  180loPI    C2 2866   0.458   1.966  11.082  0.2241 -0.1405 -0.3751
  180loPI    C3 2867   0.553   2.350  11.138 -0.2075 -0.0655 -0.1157
  180loPI   PO4 2868   0.607   2.043  10.602 -0.3754  0.1833 -0.0471
  180loPI   GL1 2869   0.659   2.049  10.229 -0.0376 -0.0381  0.0404
  180loPI   GL2 2870   0.789   2.375  10.132  0.0185 -0.4009  0.2196
  180loPI   C1A 2871   0.852   2.009   9.806 -0.1919 -0.1902  0.0500
  180loPI   C2A 2872   1.040   2.064   9.423 -0.0448 -0.0124  0.1701
  180loPI   C3A 2873   0.984   2.191   8.936 -0.0475  0.2222  0.0230
  180loPI   C4A 2874   0.770   2.105   8.624  0.0088  0.1514  0.2780
  180loPI   C5A 2875   0.609   2.251   8.271  0.0535  0.2350 -0.3106
  180loPI   C6A 2876   0.489   2.156   7.873 -0.0247 -0.1579  0.0922
  180loPI   C1B 2877   0.931   2.524   9.677 -0.2259  0.4676  0.0782
  180loPI   C2B 2878   0.943   2.577   9.243 -0.1052  0.1326 -0.0262
  180loPI   C3B 2879   1.012   2.632   8.735  0.0016  0.2944  0.3588
  180loPI   C4B 2880   0.715   2.677   8.451  0.1047 -0.3574  0.1281
  181loPI    C1 2881  14.431  16.717  10.955  0.1549  0.2486 -0.1217
  181loPI    C2 2882  14.467  17.030  11.201 -0.0134  0.0926  0.1059
  181loPI    C3 2883  14.106  16.921  11.068  0.0981  0.3296 -0.4204
  181loPI   PO4 2884  14.609  16.768  10.716 -0.0284  0.2249 -0.0254
  181loPI   GL1 2885  14.685  16.662  10.334  0.1790 -0.0106  0.4379
  181loPI   GL2 2886  14.608  16.357  10.305  0.2354 -0.1159 -0.2626
  181loPI   C1A 2887  15.014  16.891  10.024  0.4232  0.2303 -0.1906
  181loPI   C2A 2888  15.309  16.838   9.632  0.1948  0.1104 -0.0346
  181loPI   C3A 2889  15.281  16.991   9.286  0.1864  0.0727  0.3040
  181loPI   C4A 2890  15.400  17.038   8.815 -0.2023 -0.0239 -0.2658
  181loPI   C5A 2891  15.315  16.746   8.541 -0.0588  0.1346  0.2164
  181loPI   C6A 2892  15.090  16.812   8.093 -0.1639  0.2577  0.1865
  181loPI   C1B 2893  14.593  16.104   9.954  0.2999 -0.1968  0.0512
  181loPI   C2B 2894  14.843  15.953   9.685 -0.0278  0.2944  0.2497
  181loPI   C3B 2895  14.840  15.987   9.184 -0.0357 -0.2049  0.0834
  181loPI   C4B 2896  14.917  16.335   8.904  0.0061 -0.0019 -0.0591
  182loPI    C1 2897   0.969  11.680  10.540  0.0400 -0.2535  0.0721
  182loPI    C2 2898   0.778  11.866  10.838 -0.2320 -0.0156 -0.2436
  182loPI    C3 2899   0.625  11.532  10.681 -0.0200 -0.2152 -0.0330
  182loPI   PO4 2900   0.981  11.713  10.301  0.2677 -0.1270 -0.1481
  182loPI   GL1 2901   0.943  11.997   9.963 -0.0011 -0.1610  0.2105
  182loPI   GL2 2902   0.965  12.238  10.058  0.0096  0.0303  0.1514
  182loPI   C1A 2903   0.979  11.917   9.518  0.0206  0.1043  0.0896
  182loPI   C2A 2904   0.910  11.871   9.061 -0.0203 -0.3066 -0.0541
  182loPI   C3A 2905   0.855  11.954   8.594 -0.3462  0.4877  0.3760
  182loPI   C4A 2906   1.016  12.086   8.241 -0.1375  0.2296 -0.1969
  182loPI   C5A 2907   1.062  11.786   7.882 -0.1860 -0.0552  0.0988
  182loPI   C6A 2908   1.419  11.820   7.521  0.2942  0.3720 -0.0328
  182loPI   C1B 2909   0.744  12.351   9.623 -0.3998  0.3612 -0.0230
  182loPI   C2B 2910   0.525  12.184   9.188 -0.2851 -0.2667  0.1286
  182loPI   C3B 2911   0.305  12.062   8.653 -0.2589 -0.2464  0.2858
  182loPI   C4B 2912   0.455  12.048   8.167 -0.3379 -0.2020  0.1136
  183loPI    C1 2913  13.689   8.538  10.509 -0.0554 -0.1985 -0.0355
  183loPI    C2 2914  13.804   8.635  10.880  0.1327 -0.2478 -0.0799
  183loPI    C3 2915  13.695   8.259  10.796 -0.0262 -0.2097 -0.0471
  183loPI   PO4 2916  13.923   8.558  10.293  0.1750 -0.2469 -0.2140
  183loPI   GL1 2917  14.068   8.384  10.028 -0.0303  0.0470  0.0475
  183loPI   GL2 2918  14.081   8.692   9.843 -0.4511  0.0672  0.0930
  183loPI   C1A 2919  14.351   8.273   9.657 -0.1952  0.0127  0.0014
  183loPI   C2A 2920  14.366   8.266   9.251  0.1412 -0.1655  0.2513
  183loPI   C3A 2921  14.279   8.195   8.864 -0.4044 -0.1752 -0.1381
  183loPI   C4A 2922  14.132   7.887   8.591 -0.4395  0.1384 -0.3780
  183loPI   C5A 2923  14.185   7.624   8.219  0.1155  0.1674  0.2753
  183loPI   C6A 2924  14.172   7.538   7.744 -0.3185 -0.1039  0.1726
  183loPI   C1B 2925  14.182   8.733   9.393  0.2479  0.1051  0.0986
  183loPI   C2B 2926  14.082   8.684   8.926 -0.2312 -0.1570 -0.1710
  183loPI   C3B 2927  14.302   8.962   8.541 -0.0546  0.0631 -0.0245
  183loPI   C4B 2928  14.273   9.153   8.152 -0.0172  0.0198  0.3725
  184loPI    C1 2929   5.468  15.112  10.202 -0.3441 -0.1346  0.1003
  184loPI    C2 2930   5.225  15.081  10.518 -0.0995 -0.0341  0.3020
  184loPI    C3 2931   5.601  14.948  10.541 -0.0671  0.0105  0.0649
  184loPI   PO4 2932   5.247  14.930  10.018 -0.0429 -0.0978 -0.0278
  184loPI   GL1 2933   5.209  14.960   9.642 -0.0032  0.0247 -0.0109
  184loPI   GL2 2934   5.179  15.400   9.811  0.0531 -0.2130 -0.0016
  184loPI   C1A 2935   5.114  14.631   9.432  0.1370  0.4583 -0.0640
  184loPI   C2A 2936   5.146  14.545   8.899 -0.3478 -0.0864 -0.0062
  184loPI   C3A 2937   5.322  14.645   8.449  0.2445 -0.1026  0.1559
  184loPI   C4A 2938   5.249  14.507   8.016 -0.1782 -0.0518 -0.3353
  184loPI   C5A 2939   5.068  14.431   7.638  0.0560 -0.0894  0.0246
  184loPI   C6A 2940   4.806  13.963   7.619  0.0441  0.2589 -0.0253
  184loPI   C1B 2941   5.089  15.528   9.418 -0.0595  0.0118  0.0393
  184loPI   C2B 2942   5.154  15.518   8.928  0.1462 -0.0524  0.2138
  184loPI   C3B 2943   5.047  15.464   8.564  0.0933 -0.0803 -0.0269
  184loPI   C4B 2944   4.771  15.555   8.166 -0.3613  0.1970  0.1302
  185loPI    C1 2945   5.396   3.344  10.697  0.3250  0.2242 -0.2095
  185loPI    C2 2946   5.596   3.539  10.983  0.2479 -0.0415  0.0298
  185loPI    C3 2947   5.512   3.150  11.027 -0.0463 -0.0087 -0.2104
  185loPI   PO4 2948   5.528   3.351  10.510 -0.1482  0.1384  0.0250
  185loPI   GL1 2949   5.413   3.444  10.099 -0.0723 -0.0149  0.1354
  185loPI   GL2 2950   5.468   3.728   9.848  0.1764 -0.1460 -0.2296
  185loPI   C1A 2951   5.587   3.324   9.707 -0.1489  0.1776  0.0382
  185loPI   C2A 2952   5.669   3.326   9.256  0.0730  0.0743 -0.1535
  185loPI   C3A 2953   5.671   3.616   8.952  0.2487 -0.0222  0.1397
  185loPI   C4A 2954   5.798   3.725   8.500 -0.2393 -0.1928 -0.3916
  185loPI   C5A 2955   5.745   3.763   8.078 -0.2351 -0.1979 -0.0614
  185loPI   C6A 2956   5.704   4.041   7.806 -0.0417  0.1476 -0.0449
  185loPI   C1B 2957   5.589   3.859   9.439  0.0921 -0.0050  0.0256
  185loPI   C2B 2958   5.670   4.122   9.031  0.2733  0.1670  0.1362
  185loPI   C3B 2959   5.690   4.189   8.696 -0.1777 -0.0762 -0.0548
  185loPI   C4B 2960   5.977   4.250   8.297 -0.0272  0.2769  0.0964
  186loPI    C1 2961   1.271   3.632   9.971  0.0704 -0.0504  0.0133
  186loPI    C2 2962   1.493   3.744  10.284  0.0116 -0.0010  0.0377
  186loPI    C3 2963   1.471   3.358  10.182 -0.0045 -0.0226  0.1214
  186loPI   PO4 2964   1.016   3.748   9.943 -0.2461 -0.3932 -0.1948
  186loPI   GL1 2965   0.959   4.009   9.595  0.2236  0.2031  0.0626
  186loPI   GL2 2966   1.187   4.030   9.598  0.0152 -0.2345  0.0994
  186loPI   C1A 2967   0.991   4.151   9.146  0.1144 -0.0367 -0.0372
  186loPI   C2A 2968   0.986   3.960   8.835  0.1762  0.1486 -0.1408
  186loPI   C3A 2969   0.907   3.957   8.420 -0.1248  0.2670  0.2004
  186loPI   C4A 2970   0.895   3.817   8.088 -0.2666  0.0927  0.0950
  186loPI   C5A 2971   0.730   3.606   7.916  0.0020 -0.1637 -0.2634
  186loPI   C6A 2972   0.907   3.229   7.949 -0.1653 -0.1463 -0.3244
  186loPI   C1B 2973   1.435   4.110   9.226 -0.3111 -0.1301 -0.0071
  186loPI   C2B 2974   1.410   4.153   8.780  0.0690  0.2043  0.1901
  186loPI   C3B 2975   1.744   4.237   8.433 -0.1211  0.3414 -0.0146
  186loPI   C4B 2976   2.158   4.225   8.172  0.0022  0.2086  0.1015
  187loPI    C1 2977   6.465   4.281  10.229  0.0904 -0.2225 -0.0723
  187loPI    C2 2978   6.268   3.938  10.168 -0.0545 -0.1349 -0.1024
  187loPI    C3 2979   6.191   4.158  10.493  0.1100 -0.1798 -0.0320
  187loPI   PO4 2980   6.508   4.433   9.980 -0.0050  0.3673 -0.1492
  187loPI   GL1 2981   6.877   4.392   9.654 -0.2841  0.1838 -0.0008
  187loPI   GL2 2982   7.131   4.426   9.594  0.0059 -0.2051  0.1536
  187loPI   C1A 2983   6.788   4.266   9.202  0.2004  0.0406 -0.4741
  187loPI   C2A 2984   6.883   4.199   8.801  0.0083 -0.2781  0.3374
  187loPI   C3A 2985   6.966   4.161   8.376  0.0786  0.0770  0.0748
  187loPI   C4A 2986   7.116   4.042   7.980  0.1276 -0.1076  0.0172
  187loPI   C5A 2987   7.011   3.681   7.718  0.2093  0.0168  0.2785
  187loPI   C6A 2988   6.648   3.450   7.446  0.1590 -0.1744  0.0943
  187loPI   C1B 2989   7.252   4.562   9.098 -0.2259  0.0707  0.0494
  187loPI   C2B 2990   7.127   4.653   8.635 -0.1418  0.2821 -0.2060
  187loPI   C3B 2991   7.114   4.676   8.163 -0.2670  0.0486 -0.2500
  187loPI   C4B 2992   7.139   4.690   7.759 -0.3935  0.1060 -0.0567
  188loPI    C1 2993  14.543   4.254  10.131 -0.1069  0.1659 -0.2606
  188loPI    C2 2994  14.216   4.484  10.116 -0.3347 -0.1446 -0.1576
  188loPI    C3 2995  14.373   4.382  10.470 -0.0956  0.0426 -0.2076
  188loPI   PO4 2996  14.756   4.296  10.038  0.0044 -0.4260  0.2594
  188loPI   GL1 2997  15.049   4.181   9.746 -0.1377 -0.1631  0.0820
  188loPI   GL2 2998  14.722   4.161   9.547 -0.0201  0.2228  0.2889
  188loPI   C1A 2999  15.137   4.400   9.356  0.1531 -0.3325 -0.4915
  188loPI   C2A 3000  15.135   4.397   8.886 -0.2639 -0.2706  0.1482
  188loPI   C3A 3001  15.228   4.613   8.522 -0.1311 -0.0508  0.0247
  188loPI   C4A 3002  15.404   4.668   8.183  0.1378 -0.0732  0.2769
  188loPI   C5A 3003  15.445   4.526   7.721 -0.0896  0.1902  0.2307
  188loPI   C6A 3004  15.275   4.163   7.558  0.1521 -0.1275  0.1456
  188loPI   C1B 3005  14.643   4.105   9.076 -0.0988 -0.0388  0.1807
  188loPI   C2B 3006  14.663   4.076   8.635  0.1009  0.1024  0.1057
  188loPI   C3B 3007  14.578   4.052   8.213 -0.2886  0.0948  0.1639
  188loPI   C4B 3008  14.188   4.052   8.019 -0.3704  0.0510 -0.0983
  189loPI    C1 3009  16.556   8.428  10.355  0.1873 -0.1475 -0.0186
  189loPI    C2 3010  16.202   8.399  10.539  0.0147  0.0825 -0.3057
  189loPI    C3 3011  16.433   8.720  10.599  0.1431 -0.0326 -0.1768
  189loPI   PO4 3012  16.525   8.404  10.161 -0.3826 -0.1481  0.3226
  189loPI   GL1 3013  16.279   8.430   9.869 -0.2416 -0.0823 -0.0006
  189loPI   GL2 3014  16.449   8.681   9.714 -0.1695  0.1068 -0.4682
  189loPI   C1A 3015  15.948   8.399   9.582  0.1459  0.0620  0.0061
  189loPI   C2A 3016  15.764   8.459   9.212  0.6523 -0.1053  0.0605
  189loPI   C3A 3017  15.738   8.641   8.875  0.1387 -0.0039 -0.1417
  189loPI   C4A 3018  15.625   8.434   8.427  0.0918 -0.2056  0.0582
  189loPI   C5A 3019  15.762   8.460   8.011 -0.2719 -0.1953 -0.2953
  189loPI   C6A 3020  15.585   8.514   7.597  0.2829 -0.1085  0.0407
  189loPI   C1B 3021  16.369   8.499   9.376  0.1397 -0.0378 -0.0521
  189loPI   C2B 3022  16.326   8.479   9.025  0.1062  0.1398  0.1083
  189loPI   C3B 3023  16.415   8.285   8.682 -0.1543  0.2987  0.0105
  189loPI   C4B 3024  16.619   8.416   8.324 -0.2019 -0.3487  0.3400
  190loPI    C1 3025  17.767   0.766  11.081 -0.1173  0.1160  0.2459
  190loPI    C2 3026  18.030   0.468  11.034  0.0834  0.3078  0.1333
  190loPI    C3 3027  17.799   0.481  11.360 -0.2221 -0.1946 -0.0513
  190loPI   PO4 3028  17.688   0.751  10.763  0.4162  0.3667  0.0602
  190loPI   GL1 3029  17.863   0.769  10.374 -0.1863  0.1673  0.3812
  190loPI   GL2 3030  17.640   0.505  10.328  0.0768 -0.2205 -0.1461
  190loPI   C1A 3031  17.471   0.960  10.150  0.3305  0.2305  0.4495
  190loPI   C2A 3032  17.348   0.870   9.750  0.0099 -0.0721  0.2338
  190loPI   C3A 3033  17.200   0.758   9.268 -0.0990  0.0573 -0.0768
  190loPI   C4A 3034  16.918   0.880   8.959  0.0834  0.0532  0.0869
  190loPI   C5A 3035  16.895   1.081   8.634  0.0478 -0.0614 -0.2067
  190loPI   C6A 3036  16.895   1.308   8.196  0.0850 -0.0047 -0.1584
  190loPI   C1B 3037  17.396   0.376  10.007 -0.1491 -0.0733 -0.1843
  190loPI   C2B 3038  17.350   0.346   9.574  0.0664 -0.0446  0.1879
  190loPI   C3B 3039  17.124   0.276   9.258  0.0543 -0.1530  0.0485
  190loPI   C4B 3040  16.813   0.482   9.200 -0.2096 -0.2337  0.1380
  191loPI    C1 3041   3.673   9.325  10.101  0.1420  0.1189 -0.1614
  191loPI    C2 3042   3.445   9.647  10.031 -0.0416  0.0009 -0.1158
  191loPI    C3 3043   3.427   9.462  10.385  0.1707  0.0251 -0.0908
  191loPI   PO4 3044   3.625   9.175   9.932 -0.2006  0.0999 -0.0920
  191loPI   GL1 3045   3.654   9.194   9.514 -0.3614 -0.0477 -0.1356
  191loPI   GL2 3046   3.358   9.414   9.589 -0.1448 -0.0432  0.1409
  191loPI   C1A 3047   3.605   9.330   9.135  0.0920  0.1130  0.0155
  191loPI   C2A 3048   3.574   9.494   8.695 -0.1259  0.0185 -0.2548
  191loPI   C3A 3049   3.245   9.559   8.435 -0.2261 -0.0632  0.3243
  191loPI   C4A 3050   3.103   9.396   8.033  0.1351 -0.1423 -0.3405
  191loPI   C5A 3051   2.804   9.636   7.741 -0.0152 -0.0488  0.3344
  191loPI   C6A 3052   2.439   9.829   7.879  0.1636  0.1755 -0.0402
  191loPI   C1B 3053   3.264   9.693   9.275 -0.1391 -0.1775 -0.1626
  191loPI   C2B 3054   3.107   9.785   8.863 -0.2366  0.1142  0.1904
  191loPI   C3B 3055   2.937  10.035   8.505  0.0079 -0.1384 -0.0248
  191loPI   C4B 3056   2.859  10.095   8.008  0.0730 -0.5554  0.1440
  192loPI    C1 3057  10.791  18.195  10.427  0.3201 -0.0264 -0.0419
  192loPI    C2 3058  10.926  17.818  10.421 -0.0500 -0.1605 -0.2295
  192loPI    C3 3059  10.884  18.011  10.769  0.2465 -0.2516 -0.1411
  192loPI   PO4 3060  10.867  18.304  10.213 -0.0326  0.1638  0.1240
  192loPI   GL1 3061  11.033  18.327   9.776 -0.2254  0.4859 -0.1213
  192loPI   GL2 3062  11.159  18.566   9.726 -0.1716 -0.2862 -0.1321
  192loPI   C1A 3063  10.893  18.048   9.509 -0.2839  0.1366 -0.3812
  192loPI   C2A 3064  10.961  17.902   9.144  0.0079 -0.0715  0.1154
  192loPI   C3A 3065  10.911  17.648   8.742  0.0249 -0.1262 -0.1403
  192loPI   C4A 3066  10.730  17.392   8.464 -0.1741 -0.0392 -0.0144
  192loPI   C5A 3067  10.641  16.956   8.296  0.4155  0.0700  0.0960
  192loPI   C6A 3068  10.586  16.588   8.297  0.1708 -0.0965 -0.0395
  192loPI   C1B 3069  11.175  18.328   9.274  0.1232 -0.1484 -0.0217
  192loPI   C2B 3070  11.130  18.271   8.810 -0.0473  0.3361 -0.4053
  192loPI   C3B 3071  11.063  18.466   8.400 -0.2794  0.1926 -0.1618
  192loPI   C4B 3072  11.219  18.683   8.041 -0.1514 -0.1201 -0.3201
  193loPI    C1 3073  17.831  16.863  10.907  0.1787 -0.1354 -0.1031
  193loPI    C2 3074  17.723  16.619  11.205  0.3029 -0.2295 -0.1339
  193loPI    C3 3075  18.107  16.646  11.099  0.3525  0.2966  0.1479
  193loPI   PO4 3076  17.576  16.761  10.712  0.0892  0.0077 -0.1945
  193loPI   GL1 3077  17.525  16.546  10.435 -0.0344 -0.0709 -0.1998
  193loPI   GL2 3078  17.675  16.356  10.146 -0.1037  0.2607  0.1343
  193loPI   C1A 3079  17.370  16.732  10.025 -0.2377 -0.1894 -0.2786
  193loPI   C2A 3080  17.286  16.490   9.631 -0.3410  0.1104  0.1171
  193loPI   C3A 3081  17.224  16.274   9.256 -0.2182 -0.1098  0.0364
  193loPI   C4A 3082  17.076  16.376   8.850 -0.1048 -0.3247 -0.4508
  193loPI   C5A 3083  17.079  16.652   8.538 -0.0534  0.0569 -0.1728
  193loPI   C6A 3084  17.106  16.904   8.152  0.3130  0.3455 -0.2477
  193loPI   C1B 3085  17.672  16.198   9.675 -0.3059  0.0124  0.1748
  193loPI   C2B 3086  17.679  16.136   9.191  0.0082  0.0272  0.1272
  193loPI   C3B 3087  17.491  16.097   8.753 -0.0842  0.0500 -0.4385
  193loPI   C4B 3088  17.207  16.180   8.421 -0.0956  0.1694  0.1887
  194loPI    C1 3089  13.714  15.660  11.011 -0.1821  0.0477 -0.2266
  194loPI    C2 3090  13.468  15.873  11.243 -0.1019 -0.1575  0.0517
  194loPI    C3 3091  13.483  15.475  11.280  0.2731 -0.1478  0.0404
  194loPI   PO4 3092  13.638  15.788  10.720  0.3336  0.0459 -0.0597
  194loPI   GL1 3093  13.616  15.741  10.239 -0.1577  0.0348 -0.3907
  194loPI   GL2 3094  13.939  15.770   9.965  0.0007  0.2612  0.0222
  194loPI   C1A 3095  13.453  15.517   9.936 -0.1365  0.0597  0.0416
  194loPI   C2A 3096  13.391  15.280   9.544 -0.0677 -0.2753  0.2730
  194loPI   C3A 3097  13.402  15.458   9.079  0.0383  0.1188 -0.0608
  194loPI   C4A 3098  13.482  15.486   8.621 -0.0448  0.0876 -0.2535
  194loPI   C5A 3099  13.929  15.728   8.493 -0.2050 -0.1398 -0.3616
  194loPI   C6A 3100  14.354  15.691   8.334  0.0031 -0.1141 -0.0250
  194loPI   C1B 3101  13.958  16.001   9.530 -0.1237 -0.2891 -0.2760
  194loPI   C2B 3102  14.103  16.094   9.231  0.0113 -0.0480  0.2297
  194loPI   C3B 3103  14.231  15.959   8.769  0.0255  0.0017 -0.0049
  194loPI   C4B 3104  14.483  16.130   8.509  0.1172 -0.2216  0.1899
  195loPI    C1 3105  17.277   3.312  10.187 -0.1819 -0.0890  0.1962
  195loPI    C2 3106  17.060   3.059  10.409  0.1144 -0.2104  0.3530
  195loPI    C3 3107  17.366   3.257  10.573  0.1101 -0.0229  0.1400
  195loPI   PO4 3108  17.106   3.472  10.023  0.0524  0.3311 -0.0848
  195loPI   GL1 3109  17.022   3.536   9.658 -0.0968 -0.0840 -0.1551
  195loPI   GL2 3110  16.727   3.366   9.679  0.0926  0.0030 -0.0323
  195loPI   C1A 3111  17.221   3.422   9.231  0.1491 -0.5061 -0.4066
  195loPI   C2A 3112  17.226   3.420   8.824 -0.0278 -0.3619  0.0281
  195loPI   C3A 3113  17.467   3.559   8.410  0.1166  0.2231  0.2531
  195loPI   C4A 3114  17.458   3.713   7.973  0.1196  0.0676  0.2131
  195loPI   C5A 3115  17.313   3.965   7.658 -0.1404 -0.2663  0.1003
  195loPI   C6A 3116  17.489   4.341   7.412 -0.0923 -0.2114 -0.1550
  195loPI   C1B 3117  16.769   3.262   9.206 -0.0416 -0.0476  0.0318
  195loPI   C2B 3118  16.737   3.311   8.712 -0.1035  0.0014 -0.1413
  195loPI   C3B 3119  16.608   3.424   8.204 -0.2088  0.0924 -0.0794
  195loPI   C4B 3120  16.400   3.659   7.772  0.1148  0.1864 -0.0482
  196loPI    C1 3121   4.783   6.602  10.098 -0.1018  0.1376  0.1363
  196loPI    C2 3122   4.487   6.381  10.253  0.0093  0.0018  0.1571
  196loPI    C3 3123   4.646   6.681  10.466  0.1953 -0.2156  0.3298
  196loPI   PO4 3124   4.763   6.487   9.782 -0.1832  0.2290  0.0746
  196loPI   GL1 3125   4.965   6.441   9.358  0.0273  0.1689 -0.3682
  196loPI   GL2 3126   4.811   6.719   9.382 -0.0081 -0.0732  0.0494
  196loPI   C1A 3127   5.093   6.277   9.000 -0.1291 -0.2329  0.1127
  196loPI   C2A 3128   5.107   6.076   8.618  0.1026  0.1587 -0.2132
  196loPI   C3A 3129   4.998   6.158   8.180  0.1350  0.0106  0.1693
  196loPI   C4A 3130   4.875   6.141   7.816  0.0035 -0.0885 -0.3761
  196loPI   C5A 3131   4.924   5.832   7.495 -0.0201 -0.0960 -0.0266
  196loPI   C6A 3132   5.158   5.470   7.477 -0.0020 -0.0879  0.2078
  196loPI   C1B 3133   4.955   6.733   8.991 -0.2296 -0.1644 -0.2842
  196loPI   C2B 3134   4.880   6.980   8.637 -0.2046  0.0734  0.1891
  196loPI   C3B 3135   4.994   6.999   8.206 -0.2279 -0.3335  0.0417
  196loPI   C4B 3136   5.001   7.092   7.808  0.0673  0.3172 -0.0448
  197loPI    C1 3137   8.398  11.880  10.063 -0.0482  0.0682 -0.0025
  197loPI    C2 3138   8.351  11.958  10.452 -0.0320 -0.0910  0.0321
  197loPI    C3 3139   8.718  11.946  10.293 -0.0316 -0.1374  0.0359
  197loPI   PO4 3140   8.160  11.771   9.985  0.0993  0.1807 -0.2506
  197loPI   GL1 3141   7.865  11.595   9.548  0.0913 -0.0660 -0.3039
  197loPI   GL2 3142   8.010  11.890   9.534  0.3574  0.0911 -0.2441
  197loPI   C1A 3143   7.881  11.244   9.231 -0.1170  0.1302  0.3765
  197loPI   C2A 3144   7.860  11.234   8.821 -0.2311  0.1454 -0.0329
  197loPI   C3A 3145   7.904  11.214   8.415 -0.0481 -0.2655  0.0284
  197loPI   C4A 3146   7.919  11.073   8.053 -0.1296  0.2234  0.4573
  197loPI   C5A 3147   7.948  10.844   7.741 -0.3059 -0.1024  0.3346
  197loPI   C6A 3148   8.004  10.555   7.341 -0.2696 -0.0248  0.1273
  197loPI   C1B 3149   7.935  11.720   9.073  0.0089  0.2317 -0.0539
  197loPI   C2B 3150   7.852  11.792   8.699 -0.0628  0.1655  0.0001
  197loPI   C3B 3151   7.743  11.998   8.289  0.1520  0.0294  0.0234
  197loPI   C4B 3152   7.937  12.172   7.970  0.4640  0.1927  0.2122
  198loPI    C1 3153  15.408  11.040  10.450 -0.1187 -0.0099 -0.1259
  198loPI    C2 3154  15.695  11.317  10.417  0.0570 -0.1726  0.0089
  198loPI    C3 3155  15.767  10.978  10.615 -0.3337 -0.0754  0.3312
  198loPI   PO4 3156  15.304  10.913  10.259 -0.0187 -0.0640  0.6073
  198loPI   GL1 3157  15.337  10.996   9.854 -0.1299 -0.1254  0.0840
  198loPI   GL2 3158  15.275  10.673   9.638  0.0156  0.0981 -0.0016
  198loPI   C1A 3159  15.364  11.370   9.594 -0.2257 -0.2838  0.0098
  198loPI   C2A 3160  15.499  11.530   9.164  0.0329 -0.1515  0.3653
  198loPI   C3A 3161  15.757  11.583   8.836  0.2268 -0.3015 -0.2347
  198loPI   C4A 3162  15.845  11.706   8.315 -0.1306 -0.1309 -0.0243
  198loPI   C5A 3163  15.764  11.749   7.982 -0.0183  0.1834 -0.0775
  198loPI   C6A 3164  15.599  12.148   7.750  0.1845 -0.1831  0.3101
  198loPI   C1B 3165  15.127  10.997   9.270  0.0444 -0.0743  0.1396
  198loPI   C2B 3166  15.113  11.284   8.945 -0.1604  0.0599 -0.2130
  198loPI   C3B 3167  15.136  11.291   8.521 -0.0059 -0.5534  0.0803
  198loPI   C4B 3168  15.064  11.621   8.245  0.1786 -0.3659  0.1027
  199loPI    C1 3169  13.142   7.078  10.515  0.1841  0.4132 -0.1534
  199loPI    C2 3170  12.836   7.024  10.767  0.2446 -0.2445 -0.2027
  199loPI    C3 3171  13.209   7.046  10.908  0.2213  0.0833 -0.1839
  199loPI   PO4 3172  13.043   7.131  10.297  0.2847  0.1064  0.0755
  199loPI   GL1 3173  13.030   6.997   9.962 -0.0558  0.1484 -0.0320
  199loPI   GL2 3174  13.278   7.374   9.853  0.1015  0.0115 -0.0013
  199loPI   C1A 3175  12.759   7.090   9.616  0.0717  0.0889  0.0197
  199loPI   C2A 3176  12.709   7.273   9.227  0.1288 -0.0442 -0.1879
  199loPI   C3A 3177  12.940   7.379   8.952 -0.1891  0.0079 -0.0408
  199loPI   C4A 3178  12.963   7.437   8.550  0.0770 -0.1782 -0.0797
  199loPI   C5A 3179  12.918   7.490   8.115  0.0168 -0.3976 -0.0432
  199loPI   C6A 3180  13.224   7.551   7.820 -0.1662  0.5479  0.0310
  199loPI   C1B 3181  13.503   7.066   9.653  0.0714 -0.2388 -0.0985
  199loPI   C2B 3182  13.657   6.670   9.423 -0.0613 -0.0956  0.2454
  199loPI   C3B 3183  13.815   6.370   9.225  0.1533 -0.1156 -0.2864
  199loPI   C4B 3184  13.737   6.110   8.850 -0.1630 -0.2511  0.2809
  200loPI    C1 3185   4.177   2.891  10.574  0.1901  0.1403 -0.0314
  200loPI    C2 3186   4.064   2.805  10.948  0.1950  0.1663 -0.0240
  200loPI    C3 3187   3.890   3.107  10.750  0.1583  0.1217 -0.0601
  200loPI   PO4 3188   4.204   2.698  10.425  0.0015  0.0848 -0.0009
  200loPI   GL1 3189   4.242   2.690  10.000  0.3036 -0.1290  0.0004
  200loPI   GL2 3190   4.415   2.466   9.825 -0.1144  0.5721  0.2083
  200loPI   C1A 3191   3.986   2.606   9.500 -0.0753  0.1574 -0.2785
  200loPI   C2A 3192   3.819   2.567   9.017 -0.1895 -0.1136  0.1097
  200loPI   C3A 3193   3.497   2.346   8.685  0.0519 -0.1765 -0.0066
  200loPI   C4A 3194   3.313   1.969   8.583  0.0574  0.1500  0.0531
  200loPI   C5A 3195   3.531   1.693   8.291  0.2865 -0.1499 -0.0439
  200loPI   C6A 3196   3.371   1.418   8.106 -0.0641 -0.0321 -0.0994
  200loPI   C1B 3197   4.320   2.122   9.539 -0.5347  0.1326 -0.0136
  200loPI   C2B 3198   4.429   2.127   9.126  0.0255 -0.4677 -0.0820
  200loPI   C3B 3199   4.460   2.130   8.657 -0.3304  0.1004  0.0522
  200loPI   C4B 3200   4.666   2.209   8.257  0.1268 -0.2931 -0.1230
  201loPI    C1 3201  10.483   5.862  10.320 -0.0034  0.1366  0.1396
  201loPI    C2 3202  10.325   5.692   9.994  0.1331  0.0963  0.0935
  201loPI    C3 3203  10.114   5.708  10.334 -0.0161  0.1524 -0.0003
  201loPI   PO4 3204  10.685   5.986  10.205 -0.1353 -0.0611  0.0144
  201loPI   GL1 3205  10.831   5.724   9.810 -0.2014 -0.1571 -0.0059
  201loPI   GL2 3206  10.722   5.434   9.775 -0.0792  0.0993 -0.0108
  201loPI   C1A 3207  10.960   5.776   9.419 -0.1572 -0.2645 -0.1436
  201loPI   C2A 3208  10.879   5.679   9.084  0.1858 -0.0813 -0.2208
  201loPI   C3A 3209  10.787   5.896   8.682  0.1965  0.0364  0.1353
  201loPI   C4A 3210  10.687   6.057   8.309  0.0512  0.0319  0.0695
  201loPI   C5A 3211  10.869   5.974   7.963  0.2356  0.1825 -0.3270
  201loPI   C6A 3212  11.345   5.897   7.690  0.0641  0.0012  0.3370
  201loPI   C1B 3213  10.477   5.658   9.442 -0.1420 -0.1566  0.0932
  201loPI   C2B 3214  10.304   5.718   9.092 -0.1272  0.2170  0.1864
  201loPI   C3B 3215  10.260   5.715   8.658 -0.0191  0.1620  0.0737
  201loPI   C4B 3216  10.308   5.702   8.181  0.1984 -0.0109  0.0400
  202loPI    C1 3217  14.705  11.253  10.273 -0.0867  0.3478  0.0894
  202loPI    C2 3218  14.505  11.119  10.592 -0.0292  0.0968  0.0223
  202loPI    C3 3219  14.874  10.983  10.515 -0.1196  0.0035 -0.2603
  202loPI   PO4 3220  14.542  11.192  10.117 -0.1715  0.1384  0.2001
  202loPI   GL1 3221  14.539  11.165   9.674  0.0358 -0.0217 -0.0336
  202loPI   GL2 3222  14.434  11.458   9.636  0.0801  0.2593  0.0876
  202loPI   C1A 3223  14.672  11.132   9.313 -0.2625 -0.3284 -0.0186
  202loPI   C2A 3224  14.720  11.038   8.817  0.2562 -0.1127 -0.1354
  202loPI   C3A 3225  14.787  10.896   8.425  0.0224 -0.1647 -0.1027
  202loPI   C4A 3226  14.858  11.039   8.069  0.4528 -0.0460 -0.0576
  202loPI   C5A 3227  15.027  11.364   7.727 -0.0543  0.1707 -0.0226
  202loPI   C6A 3228  14.957  11.623   7.318 -0.2506 -0.1996  0.0071
  202loPI   C1B 3229  14.223  11.333   9.217 -0.0920  0.1669  0.0958
  202loPI   C2B 3230  14.409  11.428   8.850  0.0413 -0.0318  0.0570
  202loPI   C3B 3231  14.411  11.319   8.399  0.0885 -0.0070 -0.1083
  202loPI   C4B 3232  14.575  11.466   8.018 -0.0889  0.2156 -0.1374
  203loPI    C1 3233   8.314   4.950  10.519 -0.2266  0.2921 -0.2988
  203loPI    C2 3234   8.541   5.245  10.667  0.1184 -0.0743 -0.0764
  203loPI    C3 3235   8.330   5.011  10.914  0.0288 -0.1599 -0.2326
  203loPI   PO4 3236   8.123   5.051  10.407 -0.1084  0.1785 -0.0113
  203loPI   GL1 3237   8.037   5.004   9.955  0.2333 -0.0545  0.3078
  203loPI   GL2 3238   8.014   5.406  10.078 -0.0905  0.0295 -0.0350
  203loPI   C1A 3239   8.104   4.888   9.481  0.0254  0.4534 -0.2274
  203loPI   C2A 3240   8.234   4.890   9.059  0.0326  0.0908 -0.0500
  203loPI   C3A 3241   8.188   4.943   8.619  0.1001  0.3156 -0.1867
  203loPI   C4A 3242   8.351   4.946   8.123 -0.1664 -0.3269 -0.0065
  203loPI   C5A 3243   8.483   5.280   7.916 -0.1847 -0.0669 -0.2167
  203loPI   C6A 3244   8.766   5.643   7.877 -0.3012  0.1774 -0.0630
  203loPI   C1B 3245   8.224   5.338   9.671  0.1619  0.1115 -0.1125
  203loPI   C2B 3246   8.379   5.411   9.298 -0.1357 -0.1344 -0.4551
  203loPI   C3B 3247   8.383   5.356   8.942  0.3821 -0.1373 -0.2230
  203loPI   C4B 3248   8.409   5.403   8.451  0.2206  0.1846  0.0730
  204loPI    C1 3249   2.902   8.854  10.386  0.1679 -0.0151  0.2670
  204loPI    C2 3250   2.866   9.183  10.610 -0.0294  0.1493  0.0003
  204loPI    C3 3251   2.708   8.838  10.735 -0.3783  0.3019 -0.0086
  204loPI   PO4 3252   2.820   8.842  10.191 -0.1622  0.0326  0.1199
  204loPI   GL1 3253   2.798   8.748   9.757  0.1677  0.1699 -0.2382
  204loPI   GL2 3254   2.697   8.526   9.482  0.3076 -0.1948  0.0003
  204loPI   C1A 3255   3.101   8.955   9.610  0.2013  0.2277  0.1271
  204loPI   C2A 3256   3.069   9.144   9.213  0.1207  0.1117  0.1733
  204loPI   C3A 3257   3.170   9.259   8.841 -0.0853  0.0574  0.2565
  204loPI   C4A 3258   3.134   9.066   8.374  0.2022 -0.4442 -0.0100
  204loPI   C5A 3259   2.968   8.927   7.952 -0.1184 -0.2222 -0.2283
  204loPI   C6A 3260   2.765   9.140   7.635 -0.0669 -0.0423  0.0781
  204loPI   C1B 3261   2.949   8.686   9.145 -0.0014 -0.0289  0.1622
  204loPI   C2B 3262   2.944   8.743   8.716 -0.0686 -0.1656  0.1567
  204loPI   C3B 3263   2.735   8.822   8.460 -0.0962  0.0910 -0.0264
  204loPI   C4B 3264   2.657   8.591   8.151 -0.0542  0.1730  0.1248
  205loPI    C1 3265   6.708   8.681  10.383 -0.1094  0.1318 -0.0896
  205loPI    C2 3266   6.556   9.011  10.551  0.0354  0.0720  0.1639
  205loPI    C3 3267   6.639   8.691  10.777  0.0986 -0.0617 -0.0460
  205loPI   PO4 3268   6.946   8.745  10.210 -0.0366 -0.0290 -0.1858
  205loPI   GL1 3269   7.212   8.582   9.914 -0.0548  0.0947  0.0432
  205loPI   GL2 3270   7.583   8.832   9.972  0.0723  0.0116 -0.0157
  205loPI   C1A 3271   7.039   8.493   9.554 -0.0522  0.0387 -0.2173
  205loPI   C2A 3272   7.134   8.512   9.224 -0.1391  0.0806 -0.0551
  205loPI   C3A 3273   6.938   8.682   8.797  0.2544 -0.1066  0.0586
  205loPI   C4A 3274   6.793   8.362   8.465  0.2222 -0.0093  0.1661
  205loPI   C5A 3275   6.670   8.521   8.064 -0.0298  0.0455 -0.0796
  205loPI   C6A 3276   6.526   8.664   7.744  0.2786 -0.0918  0.2116
  205loPI   C1B 3277   7.562   8.790   9.458 -0.0906 -0.0916 -0.1418
  205loPI   C2B 3278   7.539   8.728   8.977 -0.0683 -0.0278  0.3799
  205loPI   C3B 3279   7.501   8.836   8.492  0.2120  0.3378 -0.0595
  205loPI   C4B 3280   7.370   9.018   8.143  0.1505  0.3388  0.0268
  206loPI    C1 3281   2.489   2.812  10.592 -0.2123 -0.2548 -0.2669
  206loPI    C2 3282   2.496   2.418  10.658 -0.1818 -0.2210 -0.0607
  206loPI    C3 3283   2.354   2.665  10.939 -0.0351 -0.0704 -0.1175
  206loPI   PO4 3284   2.406   2.882  10.407  0.2659  0.1434 -0.0703
  206loPI   GL1 3285   2.311   2.660   9.999  0.2518 -0.0623 -0.1168
  206loPI   GL2 3286   2.618   2.779   9.851  0.2382 -0.2516  0.1059
  206loPI   C1A 3287   2.483   2.350   9.621  0.1407 -0.2353 -0.3188
  206loPI   C2A 3288   2.699   2.450   9.264 -0.0384  0.2474  0.0057
  206loPI   C3A 3289   2.847   2.222   8.869 -0.0904 -0.2248  0.0932
  206loPI   C4A 3290   2.829   1.791   8.748  0.1182 -0.1480  0.2080
  206loPI   C5A 3291   3.013   1.637   8.322  0.2078 -0.0185  0.0369
  206loPI   C6A 3292   2.925   1.681   7.936 -0.0331 -0.2092 -0.0267
  206loPI   C1B 3293   2.372   2.858   9.439  0.3288 -0.2525  0.1144
  206loPI   C2B 3294   2.373   2.767   9.014  0.1405  0.2769 -0.1059
  206loPI   C3B 3295   2.304   2.790   8.636  0.1995  0.0199  0.2200
  206loPI   C4B 3296   2.564   2.972   8.333  0.7241 -0.0478  0.0262
  207loPI    C1 3297   0.065   0.367  10.916  0.0530 -0.0830  0.0139
  207loPI    C2 3298   0.353   0.636  10.986  0.0364 -0.1148  0.2095
  207loPI    C3 3299  -0.031   0.746  11.000  0.0372 -0.0733 -0.0474
  207loPI   PO4 3300   0.188   0.292  10.682 -0.1868 -0.2586 -0.1620
  207loPI   GL1 3301   0.021   0.233  10.232 -0.1501 -0.2636 -0.0599
  207loPI   GL2 3302   0.211   0.426  10.154 -0.0436 -0.0150 -0.2001
  207loPI   C1A 3303  -0.016   0.208   9.799 -0.1622  0.1306 -0.3723
  207loPI   C2A 3304  -0.209   0.313   9.500  0.1026 -0.0992  0.1549
  207loPI   C3A 3305  -0.564   0.236   9.192  0.1136  0.0108  0.1983
  207loPI   C4A 3306  -0.881   0.097   8.929  0.0311 -0.2527  0.0293
  207loPI   C5A 3307  -1.152  -0.087   8.581  0.1803 -0.1801 -0.2284
  207loPI   C6A 3308  -1.577  -0.070   8.386 -0.2866 -0.0009  0.2898
  207loPI   C1B 3309   0.464   0.241   9.818 -0.1338 -0.3025  0.1247
  207loPI   C2B 3310   0.292   0.032   9.447 -0.0043  0.5499  0.0112
  207loPI   C3B 3311  -0.106   0.032   9.124  0.2783  0.2964  0.1247
  207loPI   C4B 3312  -0.491  -0.280   9.148  0.1361 -0.2428  0.1019
  208loPI    C1 3313   9.474   9.060  10.301  0.1174  0.0911 -0.1614
  208loPI    C2 3314   9.101   9.089  10.442  0.2232  0.1116  0.1207
  208loPI    C3 3315   9.252   8.730  10.349  0.0984  0.1132 -0.0966
  208loPI   PO4 3316   9.594   9.194  10.198 -0.1147  0.1024  0.0044
  208loPI   GL1 3317   9.640   9.258   9.806 -0.1413  0.0342 -0.2298
  208loPI   GL2 3318   9.777   9.003   9.684  0.2176 -0.2036 -0.2048
  208loPI   C1A 3319   9.390   9.355   9.491 -0.2571 -0.0124 -0.0540
  208loPI   C2A 3320   9.462   9.235   9.110 -0.1304 -0.1418 -0.3918
  208loPI   C3A 3321   9.483   9.347   8.649 -0.1657  0.0922  0.1810
  208loPI   C4A 3322   9.573   9.712   8.372  0.0642 -0.0836 -0.2090
  208loPI   C5A 3323   9.905  10.018   8.245 -0.1407  0.0985 -0.0192
  208loPI   C6A 3324  10.095  10.419   8.105 -0.3896  0.0330 -0.0316
  208loPI   C1B 3325   9.602   8.779   9.388 -0.1416 -0.1407 -0.3558
  208loPI   C2B 3326   9.593   8.623   9.021 -0.0265 -0.2599 -0.1162
  208loPI   C3B 3327   9.519   8.883   8.640 -0.2754 -0.1940 -0.3134
  208loPI   C4B 3328   9.398   9.123   8.190  0.0750  0.0375  0.0582
  209loPI    C1 3329  18.294  18.412  10.653 -0.4025 -0.2076  0.0989
  209loPI    C2 3330  18.218  18.456  11.043  0.0198  0.0060  0.1623
  209loPI    C3 3331  18.551  18.268  10.924 -0.0603  0.0243 -0.0952
  209loPI   PO4 3332  18.125  18.485  10.534  0.1774  0.3008 -0.0259
  209loPI   GL1 3333  17.984  18.521  10.172  0.0432 -0.1626 -0.2995
  209loPI   GL2 3334  17.707  18.489  10.300 -0.0172 -0.1772  0.1247
  209loPI   C1A 3335  17.783  18.610   9.705 -0.0318  0.0933 -0.2640
  209loPI   C2A 3336  17.588  18.426   9.411 -0.1850  0.3028 -0.1816
  209loPI   C3A 3337  17.268  18.317   9.188 -0.2335  0.0376 -0.0745
  209loPI   C4A 3338  17.157  18.057   8.902 -0.3649  0.3511 -0.1683
  209loPI   C5A 3339  16.866  17.886   8.622  0.0130 -0.2387  0.3499
  209loPI   C6A 3340  16.700  17.583   8.404  0.1411 -0.2613 -0.0575
  209loPI   C1B 3341  17.459  18.310   9.922  0.1353 -0.2366 -0.2881
  209loPI   C2B 3342  17.229  18.218   9.646 -0.0393 -0.3964 -0.3016
  209loPI   C3B 3343  17.055  17.911   9.441  0.1783  0.1435 -0.0315
  209loPI   C4B 3344  16.711  17.841   9.173  0.1305 -0.1398  0.3362
  210loPI    C1 3345  15.944  16.038  11.132 -0.1415 -0.2521 -0.2135
  210loPI    C2 3346  16.274  15.813  11.116  0.0295 -0.0039 -0.2334
  210loPI    C3 3347  15.986  15.727  11.380  0.1865 -0.1202 -0.0976
  210loPI   PO4 3348  15.869  16.065  10.840  0.1627  0.0945 -0.0802
  210loPI   GL1 3349  15.960  16.101  10.284  0.1329  0.0159 -0.1867
  210loPI   GL2 3350  16.044  15.873  10.120 -0.0678  0.2711  0.2769
  210loPI   C1A 3351  15.884  16.507  10.070  0.0605  0.1134 -0.1858
  210loPI   C2A 3352  15.807  16.823   9.791  0.2032 -0.0226  0.0790
  210loPI   C3A 3353  15.691  17.177   9.477  0.1485  0.0741 -0.0646
  210loPI   C4A 3354  15.445  17.464   9.169 -0.1006  0.0908  0.1157
  210loPI   C5A 3355  15.096  17.572   8.959 -0.0184 -0.0235  0.1897
  210loPI   C6A 3356  14.912  17.930   8.971 -0.1331 -0.0365 -0.1186
  210loPI   C1B 3357  15.984  16.107   9.795 -0.0346 -0.0868  0.1196
  210loPI   C2B 3358  15.888  16.347   9.495 -0.2647  0.2183  0.2300
  210loPI   C3B 3359  15.709  16.711   9.299 -0.1162 -0.0431  0.1244
  210loPI   C4B 3360  15.352  16.563   9.045  0.0862  0.1675  0.0104
  211loPI    C1 3361  13.768   2.270  10.884  0.3196 -0.2711 -0.0955
  211loPI    C2 3362  13.754   1.871  10.864 -0.2153 -0.2674  0.0598
  211loPI    C3 3363  13.522   2.066  11.125  0.2443  0.1347  0.1813
  211loPI   PO4 3364  13.795   2.293  10.581  0.0837  0.1193  0.1285
  211loPI   GL1 3365  14.074   2.354  10.267 -0.0845  0.0786 -0.1265
  211loPI   GL2 3366  14.408   2.468  10.336  0.0281 -0.1551  0.3366
  211loPI   C1A 3367  13.933   2.534   9.757 -0.0966  0.2498  0.1891
  211loPI   C2A 3368  13.803   2.285   9.354 -0.1001  0.3036  0.1370
  211loPI   C3A 3369  13.909   2.269   8.959  0.1723  0.0921  0.4098
  211loPI   C4A 3370  14.116   2.096   8.643 -0.2331 -0.3361  0.0648
  211loPI   C5A 3371  14.241   1.921   8.234 -0.2461 -0.1665 -0.3674
  211loPI   C6A 3372  14.616   1.862   8.069  0.1185 -0.1933  0.1698
  211loPI   C1B 3373  14.454   2.292   9.861 -0.0824 -0.3062  0.0276
  211loPI   C2B 3374  14.312   2.387   9.439  0.0781  0.4796 -0.0449
  211loPI   C3B 3375  14.424   2.205   9.034  0.4941  0.2294  0.1214
  211loPI   C4B 3376  14.576   2.179   8.550  0.1634 -0.0479 -0.1077
  212loPI    C1 3377  13.745  12.359  10.634  0.0205  0.0112  0.1116
  212loPI    C2 3378  14.067  12.405  10.868  0.0737  0.1621  0.0106
  212loPI    C3 3379  13.718  12.569  10.974  0.0212 -0.0255  0.1345
  212loPI   PO4 3380  13.794  12.405  10.418  0.1076 -0.0128  0.0572
  212loPI   GL1 3381  13.720  12.375  10.012  0.0167 -0.1789  0.0057
  212loPI   GL2 3382  13.540  12.239   9.912  0.0531  0.3981 -0.1545
  212loPI   C1A 3383  13.856  12.313   9.553  0.0639  0.1653 -0.4229
  212loPI   C2A 3384  13.920  12.207   9.061  0.1030  0.0033 -0.0598
  212loPI   C3A 3385  14.014  12.314   8.601 -0.2167 -0.0536 -0.0015
  212loPI   C4A 3386  13.870  12.392   8.176 -0.0884  0.0993 -0.2238
  212loPI   C5A 3387  14.019  12.278   7.717  0.1289  0.4035  0.2239
  212loPI   C6A 3388  14.036  12.136   7.314 -0.1450  0.0669  0.0693
  212loPI   C1B 3389  13.349  12.334   9.584  0.1019 -0.3917 -0.1095
  212loPI   C2B 3390  13.338  12.180   9.177  0.1924 -0.1541  0.1457
  212loPI   C3B 3391  13.223  12.173   8.833  0.0926 -0.1077 -0.0860
  212loPI   C4B 3392  13.502  12.166   8.503  0.1502  0.1285 -0.0837
  213loPI    C1 3393  16.228   7.829  10.122 -0.1511 -0.0843 -0.0390
  213loPI    C2 3394  16.425   7.914  10.460 -0.0989 -0.3349 -0.0043
  213loPI    C3 3395  16.025   7.915  10.455 -0.1006  0.0228 -0.0356
  213loPI   PO4 3396  16.365   7.937   9.927  0.2049 -0.2310 -0.1392
  213loPI   GL1 3397  16.291   8.016   9.516 -0.0485  0.1388 -0.0407
  213loPI   GL2 3398  16.075   7.924   9.363  0.0048  0.0704 -0.0295
  213loPI   C1A 3399  16.532   8.034   9.220 -0.0051 -0.1360  0.2376
  213loPI   C2A 3400  16.897   7.920   9.047 -0.1186  0.1136 -0.0449
  213loPI   C3A 3401  17.227   7.736   8.653  0.0504 -0.2499  0.3647
  213loPI   C4A 3402  17.025   7.533   8.331 -0.0783  0.1685  0.2330
  213loPI   C5A 3403  17.000   7.115   8.131  0.0573 -0.1074 -0.0788
  213loPI   C6A 3404  16.543   6.870   7.926 -0.0080 -0.0168 -0.0590
  213loPI   C1B 3405  16.108   8.032   8.981 -0.0900 -0.1610 -0.1045
  213loPI   C2B 3406  16.097   7.974   8.539 -0.2236 -0.3740  0.0465
  213loPI   C3B 3407  16.172   8.229   8.206 -0.2785 -0.3769  0.2075
  213loPI   C4B 3408  16.310   8.430   7.984  0.1866 -0.3035 -0.2684
  214loPI    C1 3409   1.288  13.755  10.392 -0.2274 -0.4034 -0.0457
  214loPI    C2 3410   1.014  13.887  10.132  0.0644  0.1159 -0.1029
  214loPI    C3 3411   0.982  13.978  10.520 -0.1616 -0.3336 -0.0094
  214loPI   PO4 3412   1.468  13.788  10.301 -0.2732  0.0094  0.2574
  214loPI   GL1 3413   1.562  13.753   9.810  0.0226 -0.2627 -0.1809
  214loPI   GL2 3414   1.262  13.858   9.667 -0.2346 -0.0958  0.1627
  214loPI   C1A 3415   1.568  13.715   9.299 -0.1031 -0.2092  0.0905
  214loPI   C2A 3416   1.671  13.364   9.073  0.0588 -0.0349  0.0108
  214loPI   C3A 3417   1.802  13.388   8.696  0.1301  0.0145  0.2912
  214loPI   C4A 3418   2.180  13.289   8.355  0.1503  0.0567  0.0514
  214loPI   C5A 3419   2.258  12.968   7.983 -0.3199  0.2203 -0.0469
  214loPI   C6A 3420   2.531  12.755   7.765  0.2443  0.0048  0.0533
  214loPI   C1B 3421   0.993  13.884   9.460 -0.0039  0.0760 -0.0151
  214loPI   C2B 3422   0.851  13.878   8.994  0.1812 -0.3111 -0.1675
  214loPI   C3B 3423   0.677  13.823   8.586 -0.2000 -0.1157  0.0495
  214loPI   C4B 3424   0.598  13.844   8.188  0.0580 -0.0240  0.2901
  215loPI    C1 3425   9.364  15.049  10.917  0.0168  0.1348  0.0550
  215loPI    C2 3426   9.385  15.256  11.259  0.1230 -0.0480  0.1608
  215loPI    C3 3427   9.163  14.924  11.239 -0.1280  0.1274 -0.0374
  215loPI   PO4 3428   9.320  15.273  10.635  0.1352  0.1440 -0.2374
  215loPI   GL1 3429   8.950  15.311  10.459 -0.0039  0.0072  0.1787
  215loPI   GL2 3430   8.669  15.142  10.379  0.1019  0.0799  0.1433
  215loPI   C1A 3431   9.056  15.538   9.988 -0.0843 -0.1401 -0.1519
  215loPI   C2A 3432   8.952  15.490   9.591  0.0135 -0.0182  0.3723
  215loPI   C3A 3433   8.821  15.451   9.243 -0.0899  0.0455  0.2709
  215loPI   C4A 3434   8.893  15.382   8.812 -0.0610 -0.0150  0.1888
  215loPI   C5A 3435   8.895  15.289   8.477 -0.2025 -0.2600  0.0997
  215loPI   C6A 3436   8.729  15.500   8.115  0.1325 -0.2905 -0.1154
  215loPI   C1B 3437   8.844  15.062   9.913 -0.0648  0.2914  0.0333
  215loPI   C2B 3438   8.804  14.999   9.552 -0.0498 -0.1245  0.2262
  215loPI   C3B 3439   8.833  14.978   9.086  0.3719  0.0868 -0.1099
  215loPI   C4B 3440   8.779  14.815   8.671 -0.2764 -0.1128  0.0964
  216loPI    C1 3441  10.139   0.671  10.454  0.1068 -0.0238 -0.0804
  216loPI    C2 3442   9.919   0.337  10.433 -0.0728  0.0800  0.1177
  216loPI    C3 3443   9.834   0.616  10.706  0.0055  0.3402 -0.1192
  216loPI   PO4 3444  10.362   0.596  10.333 -0.0458  0.1641  0.0491
  216loPI   GL1 3445  10.370   0.491   9.904 -0.4092  0.1348  0.0762
  216loPI   GL2 3446  10.199   0.300   9.921 -0.0128  0.1494 -0.1236
  216loPI   C1A 3447  10.395   0.562   9.549  0.1558 -0.2237  0.0339
  216loPI   C2A 3448  10.430   0.525   9.241 -0.0751  0.0961 -0.1916
  216loPI   C3A 3449  10.378   0.392   8.866  0.1745  0.0028 -0.0071
  216loPI   C4A 3450  10.335   0.683   8.555 -0.0702 -0.1543  0.0901
  216loPI   C5A 3451  10.149   0.825   8.193 -0.0632 -0.0723  0.0780
  216loPI   C6A 3452  10.081   1.205   7.897  0.2087 -0.1496  0.0881
  216loPI   C1B 3453  10.001   0.239   9.564  0.1792  0.0419  0.3317
  216loPI   C2B 3454  10.023   0.259   9.226 -0.2118  0.3687  0.1442
  216loPI   C3B 3455   9.947   0.018   8.827 -0.0921  0.2456  0.0228
  216loPI   C4B 3456  10.231   0.092   8.499 -0.4095 -0.1065  0.0900
  217loPI    C1 3457  15.581   3.196  10.528  0.0931 -0.0366  0.0162
  217loPI    C2 3458  15.658   3.583  10.591 -0.0771  0.0198 -0.1146
  217loPI    C3 3459  15.321   3.420  10.733  0.1113 -0.1424  0.1568
  217loPI   PO4 3460  15.587   3.231  10.211  0.3121  0.1041 -0.4486
  217loPI   GL1 3461  15.298   3.231   9.857 -0.2987 -0.1976  0.1609
  217loPI   GL2 3462  15.530   3.426   9.770 -0.0533 -0.0202 -0.3487
  217loPI   C1A 3463  15.187   2.860   9.538  0.1793  0.2709 -0.1272
  217loPI   C2A 3464  15.068   2.765   9.077 -0.2707  0.2625 -0.0287
  217loPI   C3A 3465  15.058   2.780   8.600 -0.2906 -0.0790  0.2438
  217loPI   C4A 3466  15.159   2.806   8.072 -0.1045 -0.0434  0.1157
  217loPI   C5A 3467  15.135   3.093   7.736 -0.1097  0.3010 -0.0096
  217loPI   C6A 3468  15.013   3.291   7.327 -0.2066  0.1182  0.2095
  217loPI   C1B 3469  15.282   3.450   9.374 -0.2630 -0.2251  0.0946
  217loPI   C2B 3470  15.389   3.408   8.883  0.1466 -0.1002 -0.0677
  217loPI   C3B 3471  15.066   3.298   8.543 -0.2372  0.1731  0.1889
  217loPI   C4B 3472  14.901   3.167   8.168 -0.2235 -0.2950 -0.1476
  218loPI    C1 3473   0.021  14.514  10.748  0.0568  0.0358 -0.0354
  218loPI    C2 3474  -0.280  14.402  10.986  0.0227  0.1448 -0.0270
  218loPI    C3 3475   0.064  14.529  11.145  0.0180  0.1687 -0.0359
  218loPI   PO4 3476   0.067  14.359  10.531  0.0242  0.0004  0.1934
  218loPI   GL1 3477   0.099  14.453  10.132 -0.0104 -0.0004  0.0699
  218loPI   GL2 3478   0.144  14.688   9.988  0.4272 -0.0879  0.0255
  218loPI   C1A 3479  -0.101  14.340   9.733 -0.0823  0.1100  0.1433
  218loPI   C2A 3480  -0.026  14.147   9.337 -0.1282 -0.0619  0.3618
  218loPI   C3A 3481   0.021  14.384   8.901 -0.0478  0.0952 -0.0952
  218loPI   C4A 3482   0.382  14.758   8.906 -0.0951 -0.0402  0.1895
  218loPI   C5A 3483   0.784  14.808   8.608  0.0085 -0.1025  0.2255
  218loPI   C6A 3484   1.076  14.903   8.280 -0.0136 -0.0453  0.2029
  218loPI   C1B 3485   0.331  14.926   9.750  0.0180 -0.0530  0.0926
  218loPI   C2B 3486   0.328  15.120   9.308 -0.1582 -0.1027 -0.0191
  218loPI   C3B 3487   0.326  15.432   9.054 -0.1822 -0.1255 -0.2944
  218loPI   C4B 3488   0.050  15.649   8.864  0.3638 -0.1093 -0.2336
  219loPI    C1 3489  17.261  11.923  10.092 -0.2252  0.0045  0.0334
  219loPI    C2 3490  17.232  12.308  10.194 -0.3198  0.0161 -0.0357
  219loPI    C3 3491  17.424  12.052  10.433 -0.2151  0.1151 -0.0128
  219loPI   PO4 3492  17.332  11.966   9.785 -0.1293 -0.4459 -0.0446
  219loPI   GL1 3493  17.262  11.655   9.515 -0.2316  0.2361 -0.3519
  219loPI   GL2 3494  17.003  11.295   9.447  0.1974  0.0809  0.1203
  219loPI   C1A 3495  17.050  11.609   9.039 -0.0556 -0.0822 -0.0186
  219loPI   C2A 3496  17.262  11.765   8.614 -0.1091 -0.0616  0.5808
  219loPI   C3A 3497  17.573  11.933   8.228 -0.0149  0.0430 -0.2175
  219loPI   C4A 3498  17.892  11.946   7.993  0.0594 -0.0436  0.4486
  219loPI   C5A 3499  18.145  11.585   7.978 -0.3761 -0.0308  0.1541
  219loPI   C6A 3500  18.297  11.227   8.231 -0.1246  0.3980  0.0444
  219loPI   C1B 3501  17.044  11.105   9.038  0.0548  0.2364  0.0950
  219loPI   C2B 3502  17.201  11.265   8.713 -0.0463 -0.0435 -0.1762
  219loPI   C3B 3503  17.211  11.222   8.249  0.3952  0.3176 -0.2758
  219loPI   C4B 3504  16.892  10.977   7.993 -0.2246  0.1103  0.2219
  220loPI    C1 3505  17.330   0.327  10.677 -0.0199  0.0922  0.0077
  220loPI    C2 3506  17.477   0.291  11.047 -0.0880  0.1121  0.0366
  220loPI    C3 3507  17.721   0.262  10.732 -0.0472 -0.0159  0.0792
  220loPI   PO4 3508  17.192   0.530  10.711 -0.0050 -0.2863 -0.1112
  220loPI   GL1 3509  17.031   0.709  10.247 -0.0285  0.2741  0.0312
  220loPI   GL2 3510  16.832   0.586  10.189 -0.3253  0.1378 -0.0249
  220loPI   C1A 3511  16.986   1.156  10.064 -0.0905  0.1055  0.0975
  220loPI   C2A 3512  17.020   1.430   9.710 -0.0546  0.0589  0.0179
  220loPI   C3A 3513  16.956   1.692   9.372 -0.1075  0.1155 -0.6025
  220loPI   C4A 3514  16.820   1.981   8.989 -0.0388 -0.0187  0.0838
  220loPI   C5A 3515  16.881   1.998   8.639  0.1210  0.3495  0.0533
  220loPI   C6A 3516  16.985   1.781   8.296 -0.0619  0.1177 -0.2937
  220loPI   C1B 3517  16.638   0.856  10.000  0.1638 -0.0991 -0.1128
  220loPI   C2B 3518  16.384   0.887   9.591 -0.1962 -0.0481 -0.1363
  220loPI   C3B 3519  16.401   0.845   9.181 -0.1938 -0.0282 -0.3173
  220loPI   C4B 3520  16.413   1.025   8.729 -0.2727  0.2931  0.1019
  221loPI    C1 3521  17.206   1.886  10.492 -0.0598 -0.1971  0.1624
  221loPI    C2 3522  16.885   2.007  10.697 -0.1289 -0.0761 -0.0152
  221loPI    C3 3523  17.227   1.929  10.889 -0.3459 -0.4960  0.2143
  221loPI   PO4 3524  17.264   2.041  10.320  0.0490 -0.3313 -0.0962
  221loPI   GL1 3525  17.089   2.050   9.893  0.0150  0.0970 -0.2216
  221loPI   GL2 3526  17.035   2.265   9.760 -0.1055 -0.0516  0.3097
  221loPI   C1A 3527  16.697   1.885   9.782  0.0263 -0.2070 -0.2955
  221loPI   C2A 3528  16.445   1.876   9.366 -0.1280  0.1868  0.2745
  221loPI   C3A 3529  16.279   1.859   9.069 -0.0526  0.0216 -0.0532
  221loPI   C4A 3530  16.273   1.926   8.625 -0.1185 -0.0485 -0.2406
  221loPI   C5A 3531  16.156   1.835   8.380 -0.0087  0.1753 -0.1172
  221loPI   C6A 3532  16.100   1.871   7.942  0.1123  0.1890  0.4700
  221loPI   C1B 3533  16.900   2.378   9.380  0.1879  0.0434  0.4368
  221loPI   C2B 3534  16.892   2.524   8.994  0.1243  0.0831 -0.1350
  221loPI   C3B 3535  17.005   2.532   8.570  0.3358  0.2124 -0.3759
  221loPI   C4B 3536  17.034   2.423   8.221  0.0889  0.2821  0.3433
  222loPI    C1 3537  11.153  15.433  10.596  0.0572 -0.0640 -0.2134
  222loPI    C2 3538  11.060  15.423  10.985 -0.0985 -0.0300 -0.2491
  222loPI    C3 3539  11.407  15.270  10.858  0.0246  0.1023 -0.0767
  222loPI   PO4 3540  10.984  15.240  10.519 -0.0508  0.1088 -0.4350
  222loPI   GL1 3541  10.960  14.950  10.320  0.1227  0.2963  0.1691
  222loPI   GL2 3542  10.596  14.981  10.210 -0.0794  0.0480 -0.2577
  222loPI   C1A 3543  10.977  15.181   9.871 -0.0539 -0.3858  0.0450
  222loPI   C2A 3544  11.243  15.273   9.563 -0.0005  0.1135  0.0135
  222loPI   C3A 3545  11.540  15.420   9.262  0.3242  0.2963 -0.3785
  222loPI   C4A 3546  11.849  15.493   8.963  0.1211 -0.1415  0.3674
  222loPI   C5A 3547  11.656  15.375   8.515  0.0258  0.2121 -0.0071
  222loPI   C6A 3548  11.669  15.033   8.257 -0.0077  0.0160  0.0486
  222loPI   C1B 3549  10.490  14.860   9.827  0.0604 -0.1508  0.3463
  222loPI   C2B 3550  10.517  15.006   9.433 -0.0093  0.1687 -0.0085
  222loPI   C3B 3551  10.885  15.154   9.229  0.1753 -0.0003  0.0570
  222loPI   C4B 3552  11.217  15.151   9.001 -0.1084  0.0865  0.2004
  223loPI    C1 3553   3.187  11.812  10.481 -0.2952  0.0171 -0.0476
  223loPI    C2 3554   3.276  11.471  10.292  0.0847  0.1220 -0.0671
  223loPI    C3 3555   3.183  11.466  10.681 -0.2986 -0.0460 -0.1560
  223loPI   PO4 3556   3.096  11.927  10.299  0.0969  0.4161  0.3947
  223loPI   GL1 3557   3.160  11.737   9.953  0.2333  0.0913  0.1754
  223loPI   GL2 3558   3.030  12.003   9.768  0.3271 -0.2615  0.0713
  223loPI   C1A 3559   3.172  11.564   9.478  0.0197 -0.1812 -0.0972
  223loPI   C2A 3560   3.407  11.360   9.319 -0.2351  0.1680  0.1557
  223loPI   C3A 3561   3.530  11.212   8.901  0.0687 -0.1072 -0.0009
  223loPI   C4A 3562   3.502  11.283   8.420 -0.1459 -0.1551 -0.2569
  223loPI   C5A 3563   3.368  11.193   7.964  0.0587 -0.2469  0.0112
  223loPI   C6A 3564   3.094  11.443   7.614 -0.0839 -0.2176  0.0070
  223loPI   C1B 3565   3.274  12.108   9.414  0.2920  0.1992  0.1707
  223loPI   C2B 3566   3.351  12.551   9.407  0.0782  0.0285 -0.4675
  223loPI   C3B 3567   3.649  12.758   9.226  0.0421  0.0690  0.0722
  223loPI   C4B 3568   4.004  12.983   9.226  0.1216 -0.0450 -0.0258
  224loPI    C1 3569   2.791  14.014  10.662 -0.0109  0.0550  0.0073
  224loPI    C2 3570   2.559  13.717  10.796 -0.0226 -0.0428 -0.2241
  224loPI    C3 3571   2.739  13.963  11.055  0.0079 -0.2666 -0.0292
  224loPI   PO4 3572   2.619  14.058  10.400 -0.5686  0.1833 -0.1422
  224loPI   GL1 3573   2.629  14.222  10.015 -0.1672 -0.1356 -0.1402
  224loPI   GL2 3574   2.412  14.092   9.914 -0.1734 -0.0240 -0.0570
  224loPI   C1A 3575   2.962  14.051   9.807  0.0143 -0.2394 -0.0126
  224loPI   C2A 3576   3.207  14.078   9.414 -0.0695 -0.2904  0.4260
  224loPI   C3A 3577   3.348  14.220   8.976  0.0156  0.1112  0.1956
  224loPI   C4A 3578   3.582  14.312   8.665 -0.0399  0.1676  0.3520
  224loPI   C5A 3579   3.944  14.444   8.497 -0.1065  0.0213  0.0834
  224loPI   C6A 3580   4.345  14.755   8.618 -0.0944  0.0951  0.2872
  224loPI   C1B 3581   2.262  14.397   9.623  0.0709 -0.0277 -0.1095
  224loPI   C2B 3582   2.094  14.329   9.253  0.1719  0.0258  0.0418
  224loPI   C3B 3583   1.822  14.007   9.045  0.1451  0.2930 -0.0571
  224loPI   C4B 3584   1.644  13.851   8.682  0.0426  0.1401 -0.3780
  225loPI    C1 3585   0.024   3.797  10.196  0.0584  0.0020  0.0242
  225loPI    C2 3586   0.156   3.901  10.560  0.2196 -0.0361 -0.0226
  225loPI    C3 3587  -0.108   4.133  10.368  0.0238 -0.0899  0.1786
  225loPI   PO4 3588   0.190   3.724  10.026  0.0273 -0.2080  0.2855
  225loPI   GL1 3589   0.492   3.914   9.753 -0.5364  0.0368  0.2124
  225loPI   GL2 3590   0.629   3.575   9.808  0.2675 -0.1606  0.1816
  225loPI   C1A 3591   0.402   4.058   9.270 -0.1578  0.1523  0.0025
  225loPI   C2A 3592   0.480   4.042   8.869  0.2310  0.4690 -0.0435
  225loPI   C3A 3593   0.425   4.096   8.410 -0.2961  0.2481 -0.1280
  225loPI   C4A 3594   0.429   4.203   7.976 -0.1183  0.0089 -0.1693
  225loPI   C5A 3595   0.126   4.321   7.660 -0.0808  0.1309 -0.3092
  225loPI   C6A 3596  -0.291   4.419   7.638 -0.2572 -0.2394  0.1172
  225loPI   C1B 3597   0.708   3.576   9.324 -0.0803  0.0343  0.1103
  225loPI   C2B 3598   0.710   3.538   8.821 -0.1176  0.0112 -0.0670
  225loPI   C3B 3599   0.571   3.534   8.391 -0.1496  0.2637 -0.0301
  225loPI   C4B 3600   0.301   3.566   8.306 -0.0370 -0.3955 -0.2459
  226loPI    C1 3601   1.188   2.776  10.067  0.4429 -0.1945 -0.0245
  226loPI    C2 3602   1.098   2.924  10.428  0.0060 -0.0106 -0.2020
  226loPI    C3 3603   1.277   2.567  10.396  0.0930 -0.0064  0.1954
  226loPI   PO4 3604   1.338   2.915   9.965 -0.0974  0.0990  0.2466
  226loPI   GL1 3605   1.341   3.166   9.666  0.1279  0.0081  0.0520
  226loPI   GL2 3606   1.625   3.282   9.646  0.2330 -0.1896  0.1235
  226loPI   C1A 3607   1.394   2.867   9.297  0.0489 -0.3292  0.1147
  226loPI   C2A 3608   1.370   2.971   8.947  0.2822  0.3047 -0.0755
  226loPI   C3A 3609   1.366   2.861   8.558 -0.2968 -0.0247  0.1370
  226loPI   C4A 3610   1.186   2.623   8.125 -0.0268  0.0062 -0.0095
  226loPI   C5A 3611   0.749   2.637   7.934 -0.1190  0.2187  0.0762
  226loPI   C6A 3612   0.542   2.869   7.674 -0.3284  0.0945 -0.1440
  226loPI   C1B 3613   1.700   3.377   9.117  0.0761 -0.0415 -0.1710
  226loPI   C2B 3614   1.775   3.436   8.712 -0.0622  0.2738  0.3814
  226loPI   C3B 3615   1.740   3.230   8.372  0.0410  0.0522  0.1496
  226loPI   C4B 3616   1.513   3.081   8.013  0.0919 -0.2419  0.1005
  227loPI    C1 3617   0.129   5.632  10.280 -0.1681 -0.0691  0.0305
  227loPI    C2 3618  -0.124   5.365  10.439 -0.0857  0.0283  0.3330
  227loPI    C3 3619   0.258   5.374  10.557  0.1312 -0.2798 -0.2961
  227loPI   PO4 3620  -0.062   5.836  10.228  0.1434  0.1072 -0.1613
  227loPI   GL1 3621  -0.291   6.071   9.904 -0.0568  0.0564  0.2448
  227loPI   GL2 3622  -0.056   6.124   9.777  0.1565 -0.0060 -0.1076
  227loPI   C1A 3623  -0.603   6.040   9.534  0.1336 -0.1449 -0.0127
  227loPI   C2A 3624  -0.496   5.731   9.247 -0.0375 -0.1948  0.1321
  227loPI   C3A 3625  -0.359   5.511   8.991 -0.0220 -0.1937 -0.1642
  227loPI   C4A 3626  -0.353   5.423   8.499 -0.1778  0.1691  0.0653
  227loPI   C5A 3627  -0.550   5.271   8.142 -0.1191  0.1052  0.1270
  227loPI   C6A 3628  -0.575   4.888   7.873  0.1826  0.1834 -0.1595
  227loPI   C1B 3629   0.075   6.368   9.311 -0.3676  0.1559 -0.1300
  227loPI   C2B 3630  -0.012   6.532   8.902 -0.0519 -0.0097  0.0618
  227loPI   C3B 3631   0.169   6.425   8.547  0.1150  0.1178  0.0591
  227loPI   C4B 3632   0.520   6.626   8.407 -0.0054  0.0917  0.1691
  228loPI    C1 3633   7.339   6.620  10.383  0.0911 -0.2750 -0.0719
  228loPI    C2 3634   7.138   6.277  10.431 -0.3553 -0.0064  0.0402
  228loPI    C3 3635   6.939   6.621  10.383  0.0853  0.2258 -0.1908
  228loPI   PO4 3636   7.470   6.618  10.151  0.1927  0.2281 -0.1341
  228loPI   GL1 3637   7.389   6.611   9.775 -0.2093  0.0658  0.0912
  228loPI   GL2 3638   7.058   6.558   9.772 -0.0795 -0.1547  0.0045
  228loPI   C1A 3639   7.543   6.674   9.380  0.1979 -0.0681 -0.3082
  228loPI   C2A 3640   7.602   6.810   9.014 -0.2195 -0.1545  0.2532
  228loPI   C3A 3641   7.817   6.859   8.684  0.0424 -0.0915  0.1134
  228loPI   C4A 3642   7.783   6.776   8.257 -0.1858  0.0937 -0.1701
  228loPI   C5A 3643   7.685   6.804   7.845  0.1939  0.0321 -0.0812
  228loPI   C6A 3644   7.581   7.158   7.560  0.4319  0.0568  0.4127
  228loPI   C1B 3645   7.026   6.594   9.342 -0.2210 -0.1960 -0.2543
  228loPI   C2B 3646   6.900   6.436   8.971  0.2735 -0.1546 -0.0890
  228loPI   C3B 3647   7.011   6.249   8.620  0.1149  0.2769 -0.0484
  228loPI   C4B 3648   6.845   6.246   8.194 -0.0189  0.0210  0.2615
  229loPI    C1 3649   1.925  18.256  10.940 -0.0820 -0.0430  0.2291
  229loPI    C2 3650   2.283  18.311  11.111 -0.1128 -0.1488  0.3296
  229loPI    C3 3651   2.167  17.944  11.005  0.0064 -0.0571 -0.1441
  229loPI   PO4 3652   1.866  18.382  10.784  0.2842  0.0310 -0.0175
  229loPI   GL1 3653   1.629  18.383  10.514 -0.3474 -0.3575  0.1026
  229loPI   GL2 3654   1.315  18.270  10.248 -0.2631 -0.0784 -0.2744
  229loPI   C1A 3655   1.823  18.450  10.126  0.1107 -0.0827 -0.2242
  229loPI   C2A 3656   1.704  18.572   9.670 -0.0580  0.2232 -0.0842
  229loPI   C3A 3657   1.742  18.363   9.185 -0.0384  0.1739  0.0994
  229loPI   C4A 3658   1.594  18.015   8.963 -0.0363 -0.0143  0.2514
  229loPI   C5A 3659   1.675  17.919   8.489  0.1832 -0.2126  0.1139
  229loPI   C6A 3660   1.550  17.957   8.079 -0.2415  0.3820  0.0952
  229loPI   C1B 3661   0.982  18.122   9.786  0.0354 -0.0066 -0.4310
  229loPI   C2B 3662   0.843  18.357   9.510  0.0984 -0.0132  0.0014
  229loPI   C3B 3663   0.763  18.567   9.221  0.1516  0.1495  0.3640
  229loPI   C4B 3664   0.572  18.542   8.888 -0.0492  0.0206  0.2310
  230loPI    C1 3665   2.659   0.800  10.801  0.0218  0.0603  0.1469
  230loPI    C2 3666   2.877   1.033  10.560 -0.1385  0.2757  0.2078
  230loPI    C3 3667   2.990   0.977  10.940  0.1364 -0.0963  0.0770
  230loPI   PO4 3668   2.608   0.553  10.741 -0.1000  0.0515 -0.0290
  230loPI   GL1 3669   2.440   0.466  10.285 -0.1308  0.1684  0.2046
  230loPI   GL2 3670   2.555   0.823  10.271 -0.1480  0.1638 -0.0107
  230loPI   C1A 3671   2.632   0.295   9.867 -0.1808 -0.2793  0.2307
  230loPI   C2A 3672   2.669   0.289   9.462 -0.0877 -0.0569  0.0290
  230loPI   C3A 3673   2.768   0.214   9.057  0.3041  0.4738 -0.2441
  230loPI   C4A 3674   3.014   0.067   8.755 -0.0308  0.1787  0.0236
  230loPI   C5A 3675   3.332   0.133   8.522 -0.0898 -0.0709 -0.3474
  230loPI   C6A 3676   3.394   0.292   8.109 -0.0752  0.1487 -0.2831
  230loPI   C1B 3677   2.518   0.797   9.877  0.0732 -0.1281  0.1865
  230loPI   C2B 3678   2.546   0.845   9.526  0.1363 -0.0723 -0.1771
  230loPI   C3B 3679   2.782   0.687   9.165 -0.1763  0.2051 -0.0309
  230loPI   C4B 3680   2.778   0.693   8.727  0.1181  0.3012  0.3664
  231loPI    C1 3681   6.542  13.676  10.695 -0.1856 -0.0198 -0.1181
  231loPI    C2 3682   6.535  14.056  10.820  0.0178 -0.0553  0.0059
  231loPI    C3 3683   6.194  13.850  10.788 -0.1088  0.1813 -0.2017
  231loPI   PO4 3684   6.689  13.703  10.470  0.1542 -0.2774  0.2740
  231loPI   GL1 3685   6.786  13.767   9.991 -0.1518  0.1253 -0.2649
  231loPI   GL2 3686   6.864  14.096  10.024  0.2646 -0.1497 -0.0988
  231loPI   C1A 3687   6.679  13.835   9.560 -0.2545  0.1269  0.3322
  231loPI   C2A 3688   6.631  13.659   9.171  0.1479  0.0574 -0.0319
  231loPI   C3A 3689   6.889  13.791   8.774  0.1738  0.0617 -0.0305
  231loPI   C4A 3690   6.816  13.767   8.364 -0.0518  0.1626  0.1856
  231loPI   C5A 3691   6.536  13.725   8.094  0.0838  0.0157  0.0837
  231loPI   C6A 3692   6.376  14.063   7.720  0.3550  0.1006  0.0382
  231loPI   C1B 3693   7.049  14.267   9.767 -0.1980  0.0838  0.3437
  231loPI   C2B 3694   7.103  14.194   9.447  0.0118  0.0622  0.2174
  231loPI   C3B 3695   6.879  14.126   9.142  0.1997  0.1201  0.1746
  231loPI   C4B 3696   6.451  14.179   9.090  0.2768 -0.1557  0.2031
  232loPI    C1 3697   0.091  16.901  11.030  0.0851 -0.0015  0.0830
  232loPI    C2 3698   0.341  16.957  11.337  0.2227 -0.3628  0.0413
  232loPI    C3 3699   0.017  16.727  11.382  0.0116 -0.0731  0.0325
  232loPI   PO4 3700   0.234  16.897  10.862  0.0801  0.0349  0.3171
  232loPI   GL1 3701   0.539  17.010  10.574 -0.0923  0.3819 -0.2138
  232loPI   GL2 3702   0.194  17.234  10.500  0.2914 -0.0764 -0.1757
  232loPI   C1A 3703   0.370  16.865  10.117  0.2612 -0.0458  0.1407
  232loPI   C2A 3704   0.245  17.035   9.639 -0.1073 -0.2025 -0.1330
  232loPI   C3A 3705   0.273  16.894   9.167  0.3487 -0.0001 -0.5375
  232loPI   C4A 3706   0.142  16.976   8.875 -0.1759  0.1412  0.0823
  232loPI   C5A 3707   0.052  17.105   8.424  0.1543 -0.0380  0.3558
  232loPI   C6A 3708   0.259  17.362   8.234  0.0977 -0.1200  0.2934
  232loPI   C1B 3709   0.505  17.341  10.180 -0.0649 -0.1058 -0.0662
  232loPI   C2B 3710   0.684  17.188   9.722 -0.2963 -0.0551 -0.0053
  232loPI   C3B 3711   0.699  17.161   9.286 -0.1437  0.2586 -0.0491
  232loPI   C4B 3712   0.528  17.266   8.959  0.1577 -0.1168 -0.0726
  233loPI    C1 3713   8.606   9.376  10.428 -0.1956  0.2337  0.0522
  233loPI    C2 3714   8.875   9.435  10.718  0.0544  0.0808 -0.1437
  233loPI    C3 3715   8.492   9.365  10.811  0.1869 -0.2705  0.1627
  233loPI   PO4 3716   8.743   9.285  10.177 -0.0304  0.1141 -0.0504
  233loPI   GL1 3717   8.711   9.423   9.730  0.1024 -0.0874 -0.0363
  233loPI   GL2 3718   8.940   9.476   9.723  0.0984 -0.1239 -0.1544
  233loPI   C1A 3719   8.443   9.283   9.373  0.2366  0.0387  0.4908
  233loPI   C2A 3720   8.511   9.175   8.867 -0.1402  0.2058 -0.1009
  233loPI   C3A 3721   8.531   8.978   8.433 -0.2443 -0.1753 -0.0866
  233loPI   C4A 3722   8.479   8.875   8.019 -0.1157  0.1349  0.0665
  233loPI   C5A 3723   8.107   8.666   7.744  0.0824  0.2282 -0.0290
  233loPI   C6A 3724   7.612   8.648   7.857  0.0308  0.0307 -0.1574
  233loPI   C1B 3725   8.913   9.383   9.321  0.0884  0.0959  0.0490
  233loPI   C2B 3726   8.958   9.303   8.878 -0.2478 -0.0415 -0.1330
  233loPI   C3B 3727   9.039   9.308   8.437  0.1813  0.2704  0.0322
  233loPI   C4B 3728   8.920   9.087   8.115  0.0899 -0.1083 -0.0881
  234loPI    C1 3729  13.832   4.656  10.322  0.2439 -0.0073  0.1208
  234loPI    C2 3730  13.488   4.843  10.406  0.1717 -0.1167  0.0705
  234loPI    C3 3731  13.652   4.595  10.673  0.0853 -0.2516 -0.0005
  234loPI   PO4 3732  13.713   4.628   9.977 -0.0153  0.1466  0.3391
  234loPI   GL1 3733  13.550   4.448   9.678 -0.2805 -0.0161 -0.0094
  234loPI   GL2 3734  13.870   4.560   9.547 -0.1852  0.2359 -0.0256
  234loPI   C1A 3735  13.401   4.341   9.247 -0.1925 -0.1288 -0.0899
  234loPI   C2A 3736  13.416   3.935   8.887  0.1891  0.0091  0.1082
  234loPI   C3A 3737  13.340   3.814   8.435 -0.1423  0.0141  0.0702
  234loPI   C4A 3738  12.979   3.552   8.063 -0.0037 -0.1871  0.3376
  234loPI   C5A 3739  12.573   3.569   7.761  0.2804  0.1344 -0.0357
  234loPI   C6A 3740  12.224   3.605   7.880  0.4143 -0.1041 -0.3441
  234loPI   C1B 3741  13.899   4.715   9.076  0.1004  0.4355  0.0677
  234loPI   C2B 3742  13.943   4.746   8.683  0.1274 -0.1352 -0.1700
  234loPI   C3B 3743  13.938   4.757   8.248 -0.0834  0.0916 -0.2874
  234loPI   C4B 3744  14.166   4.896   7.856  0.2428  0.1473 -0.1557
  235loPI    C1 3745   0.761   8.738  10.452 -0.2611 -0.0753 -0.0487
  235loPI    C2 3746   1.029   8.715  10.747 -0.1795  0.0920 -0.1086
  235loPI    C3 3747   0.642   8.649  10.823 -0.1235 -0.1455 -0.0210
  235loPI   PO4 3748   0.921   8.721  10.239  0.2684 -0.0038 -0.1203
  235loPI   GL1 3749   1.059   8.645   9.838 -0.0498 -0.0802  0.0092
  235loPI   GL2 3750   1.103   8.275   9.738 -0.0374  0.0451 -0.0865
  235loPI   C1A 3751   1.150   8.761   9.401 -0.2069  0.0372  0.5243
  235loPI   C2A 3752   1.029   8.743   9.001  0.1416  0.4947  0.0966
  235loPI   C3A 3753   0.700   8.684   8.865 -0.1662  0.0222  0.0685
  235loPI   C4A 3754   0.687   8.501   8.471  0.1818  0.1166  0.2816
  235loPI   C5A 3755   0.719   8.451   7.985 -0.2351  0.1439  0.1605
  235loPI   C6A 3756   0.996   8.551   7.712 -0.0833 -0.3487  0.1979
  235loPI   C1B 3757   1.167   7.999   9.351  0.0198 -0.1627 -0.0442
  235loPI   C2B 3758   1.270   7.895   8.939  0.1151  0.2693  0.2471
  235loPI   C3B 3759   1.631   7.993   8.766  0.1318 -0.1915 -0.0091
  235loPI   C4B 3760   1.923   7.696   8.535  0.0039 -0.0604  0.0830
  236loPI    C1 3761  13.000   5.338  10.015 -0.1223 -0.2314  0.0097
  236loPI    C2 3762  12.879   5.621  10.271 -0.0083 -0.1480 -0.0279
  236loPI    C3 3763  12.669   5.283  10.232  0.0098 -0.1896  0.2249
  236loPI   PO4 3764  13.129   5.559   9.806 -0.3193  0.2854  0.1142
  236loPI   GL1 3765  13.098   5.878   9.487 -0.3821  0.2522  0.0323
  236loPI   GL2 3766  12.774   5.818   9.514  0.1775 -0.2322  0.0975
  236loPI   C1A 3767  13.210   5.857   9.058 -0.3165  0.0580 -0.2717
  236loPI   C2A 3768  13.280   5.843   8.595  0.3885 -0.0971 -0.0424
  236loPI   C3A 3769  13.344   5.827   8.171  0.0232  0.1035  0.1972
  236loPI   C4A 3770  13.216   5.707   7.748 -0.0654  0.0681 -0.3689
  236loPI   C5A 3771  13.418   5.472   7.435  0.1514  0.0827 -0.1289
  236loPI   C6A 3772  13.598   5.078   7.462  0.1024  0.2301  0.3566
  236loPI   C1B 3773  12.814   5.636   9.089  0.1176 -0.3053  0.3991
  236loPI   C2B 3774  12.724   5.709   8.644 -0.0207 -0.0216 -0.0170
  236loPI   C3B 3775  12.525   5.708   8.197 -0.3594 -0.1759 -0.2728
  236loPI   C4B 3776  12.471   5.456   7.826 -0.0011 -0.3110 -0.3454
  237loPI    C1 3777   2.557   3.691  10.385 -0.1248  0.1220 -0.1643
  237loPI    C2 3778   2.264   3.443  10.496  0.1269 -0.1724 -0.1447
  237loPI    C3 3779   2.646   3.336  10.546  0.2420  0.0423 -0.5267
  237loPI   PO4 3780   2.433   3.791  10.152 -0.0134 -0.1585  0.2193
  237loPI   GL1 3781   2.483   3.677   9.752 -0.0411  0.0416  0.0205
  237loPI   GL2 3782   2.182   3.846   9.701 -0.0890  0.0106  0.2849
  237loPI   C1A 3783   2.827   3.748   9.508 -0.0600 -0.0746  0.1915
  237loPI   C2A 3784   2.862   3.845   9.129 -0.0869 -0.1132 -0.0942
  237loPI   C3A 3785   2.856   3.871   8.711  0.0472 -0.3091 -0.0933
  237loPI   C4A 3786   2.639   3.900   8.340  0.0815 -0.1048 -0.1745
  237loPI   C5A 3787   2.318   3.777   8.065 -0.0375 -0.0048  0.0802
  237loPI   C6A 3788   2.390   3.514   7.673  0.1529 -0.2433  0.1095
  237loPI   C1B 3789   2.436   4.003   9.370  0.3674 -0.0282  0.0560
  237loPI   C2B 3790   2.428   3.978   8.877 -0.1460  0.1781  0.3058
  237loPI   C3B 3791   2.186   3.773   8.566  0.3877  0.0909  0.1483
  237loPI   C4B 3792   1.858   3.769   8.309  0.2782  0.2564 -0.4982
  238loPI    C1 3793   4.005   8.122   9.998  0.1586 -0.1387 -0.2817
  238loPI    C2 3794   3.817   7.782  10.092 -0.1163  0.1164  0.1233
  238loPI    C3 3795   4.148   7.888  10.290 -0.0633  0.1127  0.0369
  238loPI   PO4 3796   4.034   8.155   9.791 -0.2450 -0.4479  0.0330
  238loPI   GL1 3797   3.811   8.061   9.520 -0.1607 -0.1401 -0.1161
  238loPI   GL2 3798   3.884   7.832   9.280 -0.2934 -0.1716  0.0540
  238loPI   C1A 3799   3.816   8.340   9.105  0.3094  0.2249  0.0500
  238loPI   C2A 3800   4.072   8.668   8.959  0.0262 -0.1050 -0.0880
  238loPI   C3A 3801   4.435   8.774   8.620 -0.3904 -0.4169  0.2889
  238loPI   C4A 3802   4.478   8.814   8.136 -0.1132  0.0707  0.1875
  238loPI   C5A 3803   4.134   8.647   7.836 -0.2347  0.0701  0.2219
  238loPI   C6A 3804   3.760   8.736   7.717  0.1576  0.0336 -0.1877
  238loPI   C1B 3805   4.073   7.875   8.946  0.0568  0.0689  0.0931
  238loPI   C2B 3806   4.084   7.923   8.592  0.1189  0.2078 -0.2148
  238loPI   C3B 3807   3.868   8.047   8.275 -0.2709 -0.1672 -0.2078
  238loPI   C4B 3808   3.581   8.325   7.944  0.0203 -0.0694  0.3832
  239loPI    C1 3809   4.740  10.921  10.219 -0.0111  0.2918 -0.0407
  239loPI    C2 3810   5.008  10.804  10.491 -0.1219 -0.1361 -0.1088
  239loPI    C3 3811   4.623  10.843  10.593 -0.1378 -0.1441 -0.1654
  239loPI   PO4 3812   4.757  10.832   9.969  0.2006 -0.2288  0.1653
  239loPI   GL1 3813   5.112  10.927   9.686  0.2956  0.0304  0.0072
  239loPI   GL2 3814   5.003  11.334   9.802  0.0830 -0.2077  0.2194
  239loPI   C1A 3815   4.882  10.823   9.284  0.0068  0.1762 -0.0225
  239loPI   C2A 3816   4.647  10.907   8.817 -0.2273 -0.0534 -0.3357
  239loPI   C3A 3817   4.380  11.073   8.464 -0.0506 -0.2026 -0.1125
  239loPI   C4A 3818   4.330  10.953   7.897 -0.1787 -0.0441 -0.2199
  239loPI   C5A 3819   4.029  10.925   7.441  0.0018 -0.3423 -0.0265
  239loPI   C6A 3820   3.711  11.141   7.038 -0.0423 -0.0956 -0.1988
  239loPI   C1B 3821   4.946  11.347   9.411  0.0556 -0.1846  0.1400
  239loPI   C2B 3822   5.085  11.360   8.992 -0.1932 -0.3174  0.1910
  239loPI   C3B 3823   5.169  11.700   8.772 -0.0007  0.2778 -0.3034
  239loPI   C4B 3824   5.297  11.906   8.548  0.1689  0.1177 -0.2734
  240loPI    C1 3825   7.239   4.471  10.651 -0.0873 -0.0354  0.1180
  240loPI    C2 3826   6.850   4.553  10.605 -0.0264  0.2088  0.0209
  240loPI    C3 3827   7.015   4.562  10.970 -0.1423 -0.0441  0.0820
  240loPI   PO4 3828   7.334   4.663  10.501 -0.2562 -0.2293 -0.1436
  240loPI   GL1 3829   7.467   4.695  10.143 -0.1243 -0.0594 -0.3299
  240loPI   GL2 3830   7.638   4.394  10.248 -0.0655  0.0870 -0.3902
  240loPI   C1A 3831   7.540   4.632   9.766 -0.1679  0.2114  0.3537
  240loPI   C2A 3832   7.526   4.904   9.404 -0.0512  0.1483  0.0887
  240loPI   C3A 3833   7.586   5.012   8.952 -0.3885  0.2001  0.4323
  240loPI   C4A 3834   7.551   4.976   8.553 -0.0722  0.0013  0.0883
  240loPI   C5A 3835   7.629   4.977   8.009 -0.2488  0.1735 -0.1416
  240loPI   C6A 3836   7.572   4.723   7.595 -0.1997 -0.2790  0.1541
  240loPI   C1B 3837   7.902   4.317   9.947 -0.0024 -0.2619  0.0381
  240loPI   C2B 3838   8.016   4.288   9.510 -0.0809 -0.0107 -0.2377
  240loPI   C3B 3839   8.036   4.414   9.060 -0.1391  0.3195 -0.3102
  240loPI   C4B 3840   7.829   4.564   8.702 -0.1759  0.0642  0.0602
  241loPI    C1 3841   3.566  12.808  10.407 -0.0529 -0.0636 -0.0489
  241loPI    C2 3842   3.817  12.568  10.604  0.0574 -0.0788 -0.2057
  241loPI    C3 3843   3.489  12.706  10.785  0.3377  0.1957  0.1074
  241loPI   PO4 3844   3.520  12.766  10.213  0.1559 -0.1936 -0.0326
  241loPI   GL1 3845   3.653  12.864   9.737  0.1785 -0.1615 -0.0539
  241loPI   GL2 3846   4.022  12.922   9.716 -0.0067 -0.1236  0.3188
  241loPI   C1A 3847   3.671  13.269   9.530  0.1792  0.1776 -0.1571
  241loPI   C2A 3848   3.586  13.488   9.126  0.0022 -0.1847  0.2367
  241loPI   C3A 3849   3.597  13.813   8.882  0.2257  0.1783 -0.0028
  241loPI   C4A 3850   3.407  13.848   8.465  0.0499  0.1656  0.0224
  241loPI   C5A 3851   3.503  14.108   8.097  0.2051  0.2807  0.4412
  241loPI   C6A 3852   3.515  14.236   7.674 -0.2603 -0.0373  0.4245
  241loPI   C1B 3853   4.377  13.260   9.556 -0.1671 -0.0769 -0.0036
  241loPI   C2B 3854   4.574  13.586   9.385  0.0191 -0.0754 -0.2248
  241loPI   C3B 3855   4.504  13.839   9.073 -0.1702  0.1907  0.2414
  241loPI   C4B 3856   4.321  14.294   8.815 -0.0145  0.2498 -0.0262
  242loPI    C1 3857   6.035  18.455  10.594  0.0153  0.0281 -0.0733
  242loPI    C2 3858   5.814  18.358  10.914 -0.1633 -0.0771 -0.2261
  242loPI    C3 3859   6.151  18.158  10.835  0.0164  0.1154  0.0346
  242loPI   PO4 3860   5.888  18.418  10.297  0.1631  0.0922 -0.0661
  242loPI   GL1 3861   6.042  18.211   9.877  0.0199  0.3304  0.0068
  242loPI   GL2 3862   5.708  18.063   9.851 -0.0439 -0.1656 -0.0387
  242loPI   C1A 3863   6.261  17.958   9.560 -0.2088 -0.0398  0.0741
  242loPI   C2A 3864   6.354  17.963   9.171  0.0095  0.0194 -0.0406
  242loPI   C3A 3865   6.228  17.873   8.732  0.1080 -0.3223 -0.1624
  242loPI   C4A 3866   6.262  18.264   8.687  0.1541  0.1590  0.0075
  242loPI   C5A 3867   5.992  18.474   8.509 -0.0658 -0.0620 -0.1010
  242loPI   C6A 3868   5.698  18.543   8.266 -0.2360  0.0883 -0.1407
  242loPI   C1B 3869   5.837  18.051   9.376 -0.2912 -0.0998  0.3954
  242loPI   C2B 3870   5.804  18.158   8.981 -0.1104 -0.0720 -0.0310
  242loPI   C3B 3871   5.835  18.020   8.473 -0.0990 -0.0359  0.2010
  242loPI   C4B 3872   6.012  17.804   8.100 -0.0536 -0.2089  0.3510
  243loPI    C1 3873   4.221  17.794  10.248 -0.0590  0.0790 -0.0343
  243loPI    C2 3874   3.919  17.999  10.413 -0.0957 -0.1579  0.2012
  243loPI    C3 3875   4.048  17.661  10.584  0.2103 -0.1350  0.0232
  243loPI   PO4 3876   4.203  17.878   9.966  0.1781  0.2249  0.0608
  243loPI   GL1 3877   4.099  18.053   9.553  0.1354  0.1891  0.0977
  243loPI   GL2 3878   3.931  18.296   9.708  0.0442  0.2101  0.2700
  243loPI   C1A 3879   3.900  17.910   9.156  0.2980  0.0683 -0.0433
  243loPI   C2A 3880   3.687  17.924   8.815  0.3261 -0.0414 -0.1027
  243loPI   C3A 3881   3.515  18.198   8.594 -0.1654  0.1191  0.0116
  243loPI   C4A 3882   3.060  18.289   8.322  0.0318 -0.2467  0.2337
  243loPI   C5A 3883   2.727  18.029   8.132 -0.0569  0.0875  0.2393
  243loPI   C6A 3884   2.703  17.661   8.023  0.4474 -0.0201 -0.0325
  243loPI   C1B 3885   4.079  18.565   9.320  0.5032 -0.0022 -0.1896
  243loPI   C2B 3886   4.244  18.685   8.799  0.0754  0.0754  0.0439
  243loPI   C3B 3887   4.271  18.863   8.336  0.0543  0.0827  0.2628
  243loPI   C4B 3888   4.565  18.669   7.968 -0.0596  0.2367  0.2277
  244loPI    C1 3889   5.957  13.438  10.679 -0.0497  0.1940  0.0731
  244loPI    C2 3890   6.266  13.300  10.892  0.2137  0.1969 -0.2959
  244loPI    C3 3891   5.937  13.431  11.078  0.5237  0.4150  0.1160
  244loPI   PO4 3892   6.004  13.291  10.441 -0.1600  0.3541  0.1586
  244loPI   GL1 3893   6.106  13.193  10.014  0.1189 -0.1964  0.1227
  244loPI   GL2 3894   5.913  13.233   9.709  0.2730  0.1806 -0.0964
  244loPI   C1A 3895   6.089  12.790   9.728  0.3802 -0.3153  0.1746
  244loPI   C2A 3896   6.147  12.734   9.349  0.3874 -0.0647  0.3462
  244loPI   C3A 3897   6.242  12.730   8.895  0.2577  0.0332  0.2846
  244loPI   C4A 3898   6.276  12.965   8.493  0.0282 -0.1181 -0.0466
  244loPI   C5A 3899   6.440  13.207   8.113 -0.0557  0.3825 -0.2333
  244loPI   C6A 3900   6.282  13.550   7.717 -0.1123  0.0525 -0.1756
  244loPI   C1B 3901   5.951  13.203   9.212  0.1421  0.0985  0.4694
  244loPI   C2B 3902   5.909  13.398   8.775 -0.0324  0.1478 -0.1350
  244loPI   C3B 3903   5.965  13.423   8.318 -0.1317 -0.2679  0.5149
  244loPI   C4B 3904   5.921  13.147   7.943 -0.0481 -0.0066  0.2451
  245loPI    C1 3905  16.339   9.893  10.575 -0.0164 -0.1222  0.0280
  245loPI    C2 3906  16.591   9.587  10.625 -0.0057 -0.1089  0.0559
  245loPI    C3 3907  16.658   9.934  10.812  0.0227 -0.0658 -0.0342
  245loPI   PO4 3908  16.276   9.923  10.319  0.0029 -0.0059 -0.0782
  245loPI   GL1 3909  16.429   9.781   9.937  0.0073  0.2985 -0.1667
  245loPI   GL2 3910  16.553  10.001   9.815  0.3405 -0.2059  0.0863
  245loPI   C1A 3911  16.088   9.665   9.656  0.2669  0.2810  0.1169
  245loPI   C2A 3912  16.055   9.593   9.248 -0.0534 -0.0967  0.1462
  245loPI   C3A 3913  16.072   9.642   8.813 -0.1315 -0.1508 -0.4204
  245loPI   C4A 3914  16.174   9.676   8.343  0.0280 -0.2921 -0.2409
  245loPI   C5A 3915  16.084   9.380   7.995 -0.0889 -0.0152 -0.0910
  245loPI   C6A 3916  15.699   9.078   7.768 -0.0059 -0.2007 -0.0502
  245loPI   C1B 3917  16.523   9.837   9.428  0.1957  0.0395 -0.2307
  245loPI   C2B 3918  16.492   9.797   8.953 -0.1252 -0.0686 -0.1090
  245loPI   C3B 3919  16.570   9.883   8.537  0.0512  0.0642 -0.3525
  245loPI   C4B 3920  16.611   9.970   8.106 -0.0713  0.3484  0.1298
  246loPI    C1 3921   1.590   7.177  10.374 -0.1910 -0.0159 -0.0372
  246loPI    C2 3922   1.702   7.046  10.735 -0.0940  0.1981  0.0118
  246loPI    C3 3923   1.580   7.424  10.688 -0.0786  0.1800 -0.1851
  246loPI   PO4 3924   1.677   7.021  10.212 -0.1627  0.3706 -0.1779
  246loPI   GL1 3925   1.590   6.727   9.947 -0.1464 -0.2559 -0.4505
  246loPI   GL2 3926   1.935   6.843   9.828 -0.0884 -0.2147 -0.1537
  246loPI   C1A 3927   1.487   6.919   9.522  0.0900 -0.3995 -0.3193
  246loPI   C2A 3928   1.557   6.832   9.120  0.0196  0.1992 -0.1219
  246loPI   C3A 3929   1.629   6.621   8.688  0.2194 -0.0739  0.0137
  246loPI   C4A 3930   1.578   6.756   8.365  0.1338  0.4922  0.1574
  246loPI   C5A 3931   1.510   6.993   7.990 -0.0304 -0.2195 -0.0764
  246loPI   C6A 3932   1.327   7.356   7.787 -0.1689 -0.1502  0.0296
  246loPI   C1B 3933   1.898   6.622   9.440  0.0935  0.3013 -0.0729
  246loPI   C2B 3934   2.016   6.766   8.949 -0.0060  0.0749 -0.2110
  246loPI   C3B 3935   2.067   6.742   8.508 -0.1461 -0.0485  0.1168
  246loPI   C4B 3936   2.059   6.909   8.094  0.0423 -0.3100 -0.2156
  247loPI    C1 3937   0.433  12.355  10.001 -0.2344  0.1062 -0.1316
  247loPI    C2 3938   0.601  12.335  10.364  0.2014  0.0370 -0.3306
  247loPI    C3 3939   0.437  12.677  10.238 -0.1366  0.0055  0.0055
  247loPI   PO4 3940   0.221  12.146  10.032  0.2758 -0.0790  0.1164
  247loPI   GL1 3941  -0.033  12.184   9.751 -0.0877  0.1039 -0.2446
  247loPI   GL2 3942  -0.349  12.301   9.822 -0.1847  0.1014 -0.1160
  247loPI   C1A 3943   0.158  12.395   9.446  0.0454 -0.2413  0.0342
  247loPI   C2A 3944  -0.005  12.345   9.018 -0.1738  0.0027 -0.0865
  247loPI   C3A 3945  -0.358  12.544   8.773 -0.0710 -0.0947 -0.0161
  247loPI   C4A 3946  -0.469  12.907   8.364  0.0337 -0.0121  0.5309
  247loPI   C5A 3947  -0.570  12.951   7.945  0.0701  0.4393  0.0506
  247loPI   C6A 3948  -0.755  12.696   7.585  0.1332  0.0539 -0.1103
  247loPI   C1B 3949  -0.338  12.323   9.396 -0.0919  0.0223  0.0883
  247loPI   C2B 3950  -0.427  12.027   9.058 -0.1344  0.2622 -0.2651
  247loPI   C3B 3951  -0.191  11.948   8.779 -0.0200  0.2353 -0.3337
  247loPI   C4B 3952  -0.435  11.676   8.459  0.0071 -0.0260  0.1308
  248loPI    C1 3953  13.017  17.043  11.040  0.2346  0.0055  0.3074
  248loPI    C2 3954  12.937  17.414  11.167 -0.0639  0.1113 -0.1665
  248loPI    C3 3955  12.975  17.116  11.431 -0.1147  0.4223  0.1996
  248loPI   PO4 3956  13.287  17.075  10.790 -0.2080 -0.3675  0.1275
  248loPI   GL1 3957  13.435  17.211  10.358  0.0524 -0.0899  0.1535
  248loPI   GL2 3958  13.259  17.013  10.273 -0.1565  0.1985  0.0161
  248loPI   C1A 3959  13.422  17.502   9.931 -0.1948 -0.0414  0.2498
  248loPI   C2A 3960  13.432  17.550   9.412 -0.3430  0.3835  0.1747
  248loPI   C3A 3961  13.382  17.430   9.007  0.0860 -0.0343 -0.2975
  248loPI   C4A 3962  13.746  17.274   8.752 -0.0966 -0.0529 -0.1164
  248loPI   C5A 3963  13.956  16.933   8.577 -0.0782  0.0663 -0.2534
  248loPI   C6A 3964  13.736  16.657   8.234  0.3724 -0.0261 -0.2909
  248loPI   C1B 3965  13.340  16.927   9.803 -0.0398 -0.2279  0.1401
  248loPI   C2B 3966  13.319  16.788   9.309  0.2139  0.4809 -0.1243
  248loPI   C3B 3967  13.297  16.948   8.891 -0.1680 -0.4579  0.2395
  248loPI   C4B 3968  13.057  16.773   8.506 -0.1596 -0.2245  0.1958
  249loPI    C1 3969   0.093  10.141  10.329  0.0233  0.0794 -0.0569
  249loPI    C2 3970   0.218  10.444  10.559 -0.1093  0.1244 -0.0437
  249loPI    C3 3971  -0.148  10.290  10.611 -0.0518 -0.0214 -0.0674
  249loPI   PO4 3972   0.093  10.198  10.128  0.0540  0.1513 -0.0652
  249loPI   GL1 3973   0.183  10.225   9.693 -0.1562 -0.0707 -0.0882
  249loPI   GL2 3974  -0.193  10.332   9.781  0.0326 -0.3268  0.0257
  249loPI   C1A 3975   0.127  10.381   9.260  0.0318 -0.0734 -0.1536
  249loPI   C2A 3976  -0.069  10.198   8.841  0.0315  0.4718 -0.1858
  249loPI   C3A 3977  -0.155  10.320   8.499 -0.2150 -0.0812 -0.1395
  249loPI   C4A 3978  -0.081  10.236   8.066  0.0942 -0.1877 -0.0449
  249loPI   C5A 3979  -0.136   9.826   7.772  0.1525 -0.4440  0.2011
  249loPI   C6A 3980   0.154   9.487   7.781  0.2408 -0.1285 -0.0243
  249loPI   C1B 3981  -0.416  10.304   9.386 -0.1901 -0.1006 -0.3368
  249loPI   C2B 3982  -0.388  10.483   8.960  0.1390  0.1302 -0.3377
  249loPI   C3B 3983  -0.660  10.567   8.734  0.2315 -0.1102  0.0270
  249loPI   C4B 3984  -1.089  10.443   8.542 -0.2099  0.0474  0.1888
  250loPI    C1 3985  14.801   2.869  10.896  0.0279 -0.1258  0.2179
  250loPI    C2 3986  14.471   2.981  11.091 -0.0509 -0.2291  0.1454
  250loPI    C3 3987  14.829   3.016  11.267 -0.0797  0.0692  0.1501
  250loPI   PO4 3988  14.699   2.940  10.657  0.2924  0.0460 -0.2569
  250loPI   GL1 3989  14.590   2.980  10.231  0.1647  0.0193 -0.1972
  250loPI   GL2 3990  14.557   3.282   9.973 -0.0008  0.0349 -0.2549
  250loPI   C1A 3991  14.349   2.830   9.854 -0.0160 -0.1737  0.0374
  250loPI   C2A 3992  14.155   2.898   9.518  0.2185 -0.0425 -0.0131
  250loPI   C3A 3993  14.034   2.696   9.181  0.1821  0.0251 -0.1821
  250loPI   C4A 3994  14.160   2.731   8.771 -0.1382  0.0184 -0.0180
  250loPI   C5A 3995  14.068   2.574   8.411  0.3251 -0.3498 -0.0535
  250loPI   C6A 3996  13.811   2.276   8.085  0.1083  0.0481  0.1915
  250loPI   C1B 3997  14.780   3.130   9.722 -0.2044 -0.2464 -0.0174
  250loPI   C2B 3998  14.797   3.154   9.253  0.2169 -0.0190  0.4613
  250loPI   C3B 3999  14.607   3.116   8.724  0.0802 -0.1978 -0.1848
  250loPI   C4B 4000  14.332   3.109   8.339 -0.2919 -0.0856  0.1374
  251loPI    C1 4001   2.836  11.227  10.183 -0.1132 -0.1331  0.0324
  251loPI    C2 4002   2.698  10.862  10.270  0.2903 -0.2962  0.0093
  251loPI    C3 4003   2.927  11.058  10.533  0.0366 -0.0351  0.0417
  251loPI   PO4 4004   2.880  11.232   9.991 -0.0387  0.1158 -0.2366
  251loPI   GL1 4005   2.879  10.902   9.764 -0.0120 -0.0172 -0.1252
  251loPI   GL2 4006   3.063  10.653   9.660 -0.2884  0.0749 -0.0408
  251loPI   C1A 4007   2.775  10.988   9.355 -0.4045 -0.0281 -0.2242
  251loPI   C2A 4008   2.925  11.283   9.092  0.2404  0.0331  0.1193
  251loPI   C3A 4009   3.166  11.597   8.814  0.0298  0.1133 -0.0304
  251loPI   C4A 4010   3.310  12.011   8.812 -0.1493  0.2106  0.1314
  251loPI   C5A 4011   3.170  12.394   8.953 -0.0052 -0.0761 -0.0426
  251loPI   C6A 4012   3.474  12.628   8.749  0.2139 -0.1273  0.1891
  251loPI   C1B 4013   2.964  10.513   9.273  0.0978  0.3130  0.3157
  251loPI   C2B 4014   3.189  10.414   8.796  0.2887  0.1620  0.0475
  251loPI   C3B 4015   3.188  10.546   8.396  0.0349 -0.0289  0.0036
  251loPI   C4B 4016   3.425  10.781   8.222  0.2532  0.2198 -0.0737
  252loPI    C1 4017   7.849  14.134  10.443  0.2288 -0.0306 -0.0317
  252loPI    C2 4018   7.796  14.448  10.686 -0.0440 -0.0928 -0.0075
  252loPI    C3 4019   8.154  14.271  10.663  0.0656  0.1103  0.1103
  252loPI   PO4 4020   7.818  14.181  10.259  0.0047  0.1184 -0.2493
  252loPI   GL1 4021   8.022  13.995   9.926  0.1642  0.0635  0.0409
  252loPI   GL2 4022   8.153  14.221   9.885 -0.1493 -0.0445 -0.2928
  252loPI   C1A 4023   7.788  14.129   9.582  0.3672  0.0169  0.2170
  252loPI   C2A 4024   7.610  14.218   9.285 -0.2162 -0.0198 -0.2380
  252loPI   C3A 4025   7.446  14.120   8.895 -0.0413 -0.0212 -0.1805
  252loPI   C4A 4026   7.134  14.140   8.583 -0.1471 -0.3478 -0.2163
  252loPI   C5A 4027   7.131  14.205   8.198 -0.1532  0.0556  0.0738
  252loPI   C6A 4028   7.401  14.091   7.818  0.3140 -0.0102  0.1488
  252loPI   C1B 4029   8.353  14.094   9.508  0.1597  0.0522 -0.4222
  252loPI   C2B 4030   8.389  13.828   9.252  0.1715  0.0975  0.2388
  252loPI   C3B 4031   8.296  13.460   9.238 -0.2250  0.1184 -0.1578
  252loPI   C4B 4032   8.202  12.978   9.273  0.0389 -0.3357  0.2599
  253loPI    C1 4033  15.480  15.281  11.239 -0.0020 -0.0466  0.0694
  253loPI    C2 4034  15.403  14.926  11.408  0.1249 -0.0733  0.0722
  253loPI    C3 4035  15.773  15.078  11.422  0.0881  0.0236  0.0037
  253loPI   PO4 4036  15.393  15.227  10.935  0.1405 -0.1510  0.3127
  253loPI   GL1 4037  15.453  15.416  10.570  0.0207  0.2851  0.1012
  253loPI   GL2 4038  15.569  15.841  10.525 -0.0706  0.0521  0.1219
  253loPI   C1A 4039  15.356  15.441  10.149 -0.4320 -0.1646  0.1386
  253loPI   C2A 4040  15.349  15.357   9.729 -0.1875  0.0283 -0.1258
  253loPI   C3A 4041  15.359  15.329   9.244 -0.0777 -0.0343  0.0845
  253loPI   C4A 4042  15.356  15.253   8.727 -0.0745  0.2080  0.1510
  253loPI   C5A 4043  15.142  14.971   8.428  0.0169 -0.1013  0.1549
  253loPI   C6A 4044  14.765  14.874   8.274  0.1085  0.3006 -0.3033
  253loPI   C1B 4045  15.473  15.934  10.234 -0.1061  0.0932  0.0794
  253loPI   C2B 4046  15.309  15.859   9.845  0.1781  0.0752  0.1864
  253loPI   C3B 4047  15.208  15.760   9.440  0.1941  0.0843 -0.0982
  253loPI   C4B 4048  14.925  15.546   9.102 -0.0410 -0.1071  0.4746
  254loPI    C1 4049   3.526   0.965  10.869 -0.0041 -0.2129 -0.1116
  254loPI    C2 4050   3.379   0.701  10.606  0.1766 -0.1396 -0.2886
  254loPI    C3 4051   3.402   0.606  10.994 -0.3456 -0.1484 -0.2533
  254loPI   PO4 4052   3.371   1.239  10.697  0.1915  0.2536 -0.0664
  254loPI   GL1 4053   3.258   1.191  10.258  0.0066  0.3975 -0.2830
  254loPI   GL2 4054   3.264   1.428  10.093  0.1937 -0.1072  0.0567
  254loPI   C1A 4055   2.984   0.942  10.060 -0.3104  0.1977  0.0725
  254loPI   C2A 4056   2.995   0.817   9.651 -0.0327 -0.2372 -0.0967
  254loPI   C3A 4057   3.360   0.799   9.338  0.0929 -0.2304  0.0012
  254loPI   C4A 4058   3.599   0.884   8.957  0.0226  0.0362 -0.1785
  254loPI   C5A 4059   3.751   1.083   8.539 -0.0136  0.0056  0.0624
  254loPI   C6A 4060   3.995   0.847   8.168  0.0176  0.0443 -0.1600
  254loPI   C1B 4061   3.187   1.319   9.710  0.1235  0.1593 -0.0334
  254loPI   C2B 4062   3.195   1.260   9.269 -0.0371  0.0707 -0.1166
  254loPI   C3B 4063   3.066   1.064   8.881 -0.0453 -0.1798  0.0875
  254loPI   C4B 4064   3.110   1.151   8.471  0.0194 -0.0957  0.0373
  255loPI    C1 4065  11.652  13.546  10.807 -0.0473  0.0476  0.0259
  255loPI    C2 4066  12.030  13.515  10.934 -0.0380  0.0628  0.0019
  255loPI    C3 4067  11.732  13.554  11.199 -0.0082  0.2041  0.0156
  255loPI   PO4 4068  11.638  13.604  10.614  0.0081  0.0300  0.1920
  255loPI   GL1 4069  11.806  13.571  10.257 -0.0178 -0.0738 -0.1206
  255loPI   GL2 4070  11.851  13.889  10.126  0.2106  0.2112  0.0618
  255loPI   C1A 4071  11.993  13.578   9.746  0.1348  0.0924  0.0562
  255loPI   C2A 4072  12.069  13.402   9.444 -0.1550  0.1612  0.4206
  255loPI   C3A 4073  12.398  13.426   9.183 -0.2329  0.0644 -0.1657
  255loPI   C4A 4074  12.552  13.684   8.878 -0.0942  0.2680  0.1262
  255loPI   C5A 4075  12.608  13.747   8.410  0.1686 -0.1162 -0.0662
  255loPI   C6A 4076  12.205  13.540   8.304 -0.1094  0.4123  0.1049
  255loPI   C1B 4077  11.571  13.768   9.752 -0.3013  0.0242  0.1517
  255loPI   C2B 4078  11.624  13.766   9.445  0.0397  0.0517 -0.0427
  255loPI   C3B 4079  11.845  13.560   9.065 -0.1371  0.2145 -0.1630
  255loPI   C4B 4080  12.061  13.289   8.779 -0.1461  0.0467  0.0203
  256loPI    C1 4081   0.602   3.143  10.443 -0.1875 -0.0034  0.0896
  256loPI    C2 4082   0.408   3.289  10.125  0.2360  0.0506 -0.1508
  256loPI    C3 4083   0.320   3.423  10.491 -0.1751  0.0726 -0.2525
  256loPI   PO4 4084   0.623   2.872  10.381  0.1071 -0.1116 -0.1193
  256loPI   GL1 4085   0.637   2.877   9.960 -0.3437  0.0050  0.1061
  256loPI   GL2 4086   0.447   3.047   9.706  0.1278  0.1126 -0.1953
  256loPI   C1A 4087   0.872   2.968   9.509  0.2151 -0.0672 -0.2518
  256loPI   C2A 4088   0.874   3.065   9.083 -0.1068 -0.1379  0.0550
  256loPI   C3A 4089   0.845   3.141   8.589 -0.0503  0.1077 -0.1089
  256loPI   C4A 4090   0.497   3.080   8.211 -0.0904 -0.0249 -0.0040
  256loPI   C5A 4091   0.285   3.283   7.938  0.1013  0.0075  0.0308
  256loPI   C6A 4092  -0.173   3.358   7.914  0.2961  0.2376  0.0509
  256loPI   C1B 4093   0.148   2.897   9.536  0.1386 -0.0367  0.0663
  256loPI   C2B 4094  -0.059   3.010   9.161 -0.0807  0.0794 -0.2120
  256loPI   C3B 4095  -0.214   2.985   8.759 -0.0003  0.2150  0.2264
  256loPI   C4B 4096  -0.176   3.296   8.394  0.3962 -0.0695 -0.1188
  257loPI    C1 4097   8.215   0.194  10.567  0.1337  0.0703 -0.0930
  257loPI    C2 4098   8.542   0.105  10.780  0.1191  0.0158 -0.0934
  257loPI    C3 4099   8.314   0.416  10.884  0.0026 -0.1286  0.0896
  257loPI   PO4 4100   8.290   0.155  10.313 -0.3050 -0.2105  0.1795
  257loPI   GL1 4101   8.419  -0.085   9.984 -0.0689  0.1144 -0.2804
  257loPI   GL2 4102   8.155   0.070   9.836  0.0612  0.2197 -0.2612
  257loPI   C1A 4103   8.507  -0.043   9.566 -0.1567  0.0437 -0.0671
  257loPI   C2A 4104   8.529  -0.024   9.158 -0.4203 -0.0958 -0.2874
  257loPI   C3A 4105   8.698   0.149   8.693 -0.0614  0.1404  0.0804
  257loPI   C4A 4106   8.693   0.307   8.202  0.1041  0.2212 -0.0412
  257loPI   C5A 4107   8.699   0.699   7.943 -0.0687  0.1128 -0.1178
  257loPI   C6A 4108   8.770   0.565   7.507 -0.1402 -0.3213 -0.1684
  257loPI   C1B 4109   8.074   0.099   9.410 -0.0672  0.1166 -0.0274
  257loPI   C2B 4110   8.083  -0.054   9.119 -0.1205  0.1209 -0.2317
  257loPI   C3B 4111   8.247  -0.077   8.750 -0.1618 -0.1158  0.1298
  257loPI   C4B 4112   8.305  -0.065   8.372  0.1030  0.3527 -0.1084
  258loPI    C1 4113   6.866  17.674  10.383  0.2859  0.1037  0.1138
  258loPI    C2 4114   6.569  17.658  10.650  0.0033  0.1112 -0.1935
  258loPI    C3 4115   6.743  18.008  10.566  0.0171  0.1267 -0.1017
  258loPI   PO4 4116   6.752  17.591  10.157 -0.1275  0.0759 -0.1696
  258loPI   GL1 4117   6.759  17.327   9.805 -0.2745 -0.0261 -0.4777
  258loPI   GL2 4118   7.057  17.251   9.755  0.0167  0.0454 -0.0556
  258loPI   C1A 4119   6.804  17.242   9.335 -0.2165  0.0354  0.0991
  258loPI   C2A 4120   6.846  17.237   8.915  0.1592  0.0846 -0.0961
  258loPI   C3A 4121   6.849  17.245   8.518 -0.1824  0.0588 -0.2150
  258loPI   C4A 4122   6.617  17.577   8.371  0.3401 -0.1846 -0.0883
  258loPI   C5A 4123   6.422  18.084   8.262  0.0237  0.1755 -0.0442
  258loPI   C6A 4124   6.178  18.381   8.045 -0.0102  0.3070 -0.1162
  258loPI   C1B 4125   7.126  17.645   9.470 -0.0715 -0.1310 -0.0296
  258loPI   C2B 4126   7.328  17.801   9.114 -0.0923  0.2786  0.3445
  258loPI   C3B 4127   7.300  18.092   8.801 -0.1228 -0.1326  0.0162
  258loPI   C4B 4128   7.371  18.133   8.504 -0.4293  0.1899 -0.0455
  259loPI    C1 4129   5.900   2.729  10.386 -0.0198  0.2213  0.0973
  259loPI    C2 4130   5.599   2.729  10.650  0.0072  0.3110  0.1283
  259loPI    C3 4131   5.881   3.012  10.668  0.0274  0.2979  0.0238
  259loPI   PO4 4132   5.860   2.516  10.152 -0.0218 -0.2160 -0.1462
  259loPI   GL1 4133   6.218   2.410   9.898  0.0672 -0.1455 -0.0260
  259loPI   GL2 4134   6.547   2.315   9.954  0.1888 -0.2410 -0.0065
  259loPI   C1A 4135   6.157   2.444   9.443  0.0778 -0.4462  0.1365
  259loPI   C2A 4136   6.147   2.356   8.945 -0.1035  0.3614  0.1263
  259loPI   C3A 4137   6.115   2.470   8.428  0.1436 -0.0351 -0.3406
  259loPI   C4A 4138   6.012   2.698   8.084 -0.0810 -0.0098  0.2299
  259loPI   C5A 4139   5.749   2.889   7.863  0.0850 -0.0932  0.0295
  259loPI   C6A 4140   5.465   3.254   7.963  0.0224  0.1799 -0.0091
  259loPI   C1B 4141   6.617   2.633   9.576  0.0848 -0.0647  0.2065
  259loPI   C2B 4142   6.389   2.851   9.263  0.0501 -0.0805  0.2119
  259loPI   C3B 4143   6.144   3.213   9.019  0.3117  0.0387 -0.0304
  259loPI   C4B 4144   6.067   3.345   8.701 -0.3140 -0.1956 -0.0949
  260loPI    C1 4145   4.888  17.473  10.320  0.0985 -0.0704 -0.1412
  260loPI    C2 4146   4.955  17.133  10.120  0.2777 -0.0281 -0.1543
  260loPI    C3 4147   4.984  17.139  10.519 -0.1509 -0.1298 -0.1173
  260loPI   PO4 4148   4.759  17.594  10.147  0.2109 -0.2922  0.1711
  260loPI   GL1 4149   4.620  17.748   9.778 -0.0696  0.1612 -0.0946
  260loPI   GL2 4150   4.898  17.970   9.868 -0.0660 -0.0070  0.4231
  260loPI   C1A 4151   4.423  17.786   9.346  0.0101  0.2659  0.1981
  260loPI   C2A 4152   4.108  17.463   9.174 -0.2798  0.3010  0.0943
  260loPI   C3A 4153   3.867  17.478   8.929  0.1772  0.1289  0.1396
  260loPI   C4A 4154   3.910  17.433   8.454  0.1117  0.0840  0.1217
  260loPI   C5A 4155   3.619  17.581   8.169  0.2562 -0.0223  0.1965
  260loPI   C6A 4156   3.299  17.868   8.214 -0.0831 -0.0608 -0.1427
  260loPI   C1B 4157   4.925  17.926   9.474  0.0175 -0.1516  0.1396
  260loPI   C2B 4158   4.883  17.848   9.008  0.0132  0.2408 -0.0819
  260loPI   C3B 4159   4.546  17.854   8.733  0.0984  0.2460 -0.0708
  260loPI   C4B 4160   4.294  17.582   8.736 -0.1350  0.0408  0.3252
  261loPI    C1 4161   7.699  12.571  10.459  0.1291 -0.1287 -0.0671
  261loPI    C2 4162   7.892  12.848  10.673 -0.0283  0.1241 -0.2467
  261loPI    C3 4163   7.520  12.741  10.773  0.0896 -0.1418 -0.0823
  261loPI   PO4 4164   7.772  12.646  10.232 -0.2606  0.3295 -0.0735
  261loPI   GL1 4165   7.562  12.672   9.878 -0.0299  0.0547  0.3273
  261loPI   GL2 4166   7.789  12.790   9.706 -0.0850  0.1708 -0.0006
  261loPI   C1A 4167   7.306  12.927   9.536 -0.1404  0.2332 -0.0343
  261loPI   C2A 4168   7.343  13.086   9.106 -0.1314 -0.0740  0.1315
  261loPI   C3A 4169   7.216  12.964   8.673 -0.0920  0.3061  0.0653
  261loPI   C4A 4170   7.421  13.018   8.175 -0.2058  0.0476 -0.2390
  261loPI   C5A 4171   7.808  13.133   7.854  0.1236 -0.0091 -0.1416
  261loPI   C6A 4172   8.116  13.083   7.838 -0.0408 -0.1951 -0.2346
  261loPI   C1B 4173   7.693  12.746   9.313 -0.1618  0.7535  0.0920
  261loPI   C2B 4174   7.723  12.810   8.936  0.0341 -0.0212  0.1826
  261loPI   C3B 4175   7.699  13.009   8.594 -0.3124  0.0934  0.4493
  261loPI   C4B 4176   7.861  13.247   8.300 -0.1313  0.2955 -0.1077
  262loPI    C1 4177  16.926  15.115  10.433 -0.3866 -0.0018 -0.0114
  262loPI    C2 4178  16.961  15.287  10.792  0.0449  0.1030 -0.0983
  262loPI    C3 4179  16.761  14.942  10.754 -0.0385  0.1112  0.2340
  262loPI   PO4 4180  16.796  15.248  10.242  0.1791 -0.0677  0.1359
  262loPI   GL1 4181  16.780  15.142   9.907  0.1655  0.3249 -0.0741
  262loPI   GL2 4182  16.754  15.534   9.862  0.3161 -0.4057  0.2443
  262loPI   C1A 4183  16.664  15.124   9.486 -0.0011 -0.3771  0.0483
  262loPI   C2A 4184  16.728  14.838   9.085 -0.3915 -0.1728 -0.0002
  262loPI   C3A 4185  17.143  14.762   8.858  0.1070  0.0279  0.0098
  262loPI   C4A 4186  17.342  14.743   8.562  0.1023 -0.0196  0.4821
  262loPI   C5A 4187  17.676  14.687   8.292  0.1613 -0.0581  0.3307
  262loPI   C6A 4188  17.806  14.558   7.921 -0.1042 -0.3108  0.1635
  262loPI   C1B 4189  16.769  15.639   9.431  0.6096 -0.2244 -0.0752
  262loPI   C2B 4190  16.711  15.997   9.205  0.3077 -0.0626 -0.1149
  262loPI   C3B 4191  16.547  16.286   8.791 -0.0443 -0.3035 -0.0548
  262loPI   C4B 4192  16.286  16.528   8.456 -0.3900  0.1553 -0.0249
  263loPI    C1 4193  18.286  10.997  10.209 -0.0079 -0.0336 -0.1601
  263loPI    C2 4194  18.221  11.210  10.542  0.0240  0.0778 -0.2249
  263loPI    C3 4195  18.267  10.813  10.564  0.2064  0.1058 -0.0745
  263loPI   PO4 4196  17.990  10.989   9.975  0.3409 -0.1593  0.1121
  263loPI   GL1 4197  17.864  10.958   9.577  0.1224  0.1417 -0.0770
  263loPI   GL2 4198  17.723  11.275   9.496  0.2320 -0.2472 -0.2106
  263loPI   C1A 4199  17.930  10.994   9.131 -0.2443  0.2691 -0.5151
  263loPI   C2A 4200  18.081  11.012   8.690  0.3362 -0.0920 -0.1271
  263loPI   C3A 4201  18.216  10.798   8.480  0.0934 -0.2779  0.2691
  263loPI   C4A 4202  17.921  10.482   8.243  0.1027 -0.2180  0.0732
  263loPI   C5A 4203  17.502  10.625   8.039  0.0366 -0.0709 -0.0240
  263loPI   C6A 4204  17.533  10.948   7.831 -0.5055  0.0548 -0.1315
  263loPI   C1B 4205  17.490  11.394   9.155 -0.2596  0.0524 -0.1954
  263loPI   C2B 4206  17.674  11.405   8.802 -0.2064  0.0837 -0.0333
  263loPI   C3B 4207  17.639  11.432   8.380 -0.0900 -0.0975  0.0844
  263loPI   C4B 4208  17.632  11.452   7.997  0.0029  0.0530 -0.1396
  264loPI    C1 4209  12.180   0.371  10.514 -0.1268  0.1367 -0.1007
  264loPI    C2 4210  11.841   0.579  10.561 -0.1319  0.1142 -0.0370
  264loPI    C3 4211  12.088   0.525  10.872 -0.1663 -0.0366 -0.0354
  264loPI   PO4 4212  12.238   0.521  10.315  0.0105 -0.2756  0.1852
  264loPI   GL1 4213  12.221   0.795   9.962  0.1789  0.0390  0.2249
  264loPI   GL2 4214  11.799   0.716  10.067  0.0518  0.1026  0.1135
  264loPI   C1A 4215  12.342   0.695   9.483  0.1370  0.0119 -0.3848
  264loPI   C2A 4216  12.402   0.727   9.005 -0.1205 -0.2672 -0.0365
  264loPI   C3A 4217  12.427   0.709   8.606  0.0979 -0.1308 -0.2468
  264loPI   C4A 4218  12.345   0.822   8.198 -0.1411  0.2759 -0.1228
  264loPI   C5A 4219  12.148   0.971   7.839 -0.2688  0.1012 -0.4154
  264loPI   C6A 4220  12.011   1.277   7.547  0.1042  0.2818 -0.1044
  264loPI   C1B 4221  11.724   0.833   9.710 -0.0205  0.2893  0.2083
  264loPI   C2B 4222  11.736   1.091   9.403 -0.0799 -0.0248 -0.0834
  264loPI   C3B 4223  11.628   1.247   9.077  0.2450 -0.0945 -0.1593
  264loPI   C4B 4224  11.571   1.141   8.698 -0.3057 -0.0561 -0.0345
  265loPI    C1 4225  12.358  10.863  10.715  0.1202 -0.0572 -0.1401
  265loPI    C2 4226  12.446  10.985  11.085  0.2382 -0.0021 -0.1855
  265loPI    C3 4227  12.422  10.594  11.003 -0.1556 -0.0136 -0.0357
  265loPI   PO4 4228  12.436  11.057  10.568 -0.0608 -0.4287  0.2099
  265loPI   GL1 4229  12.527  11.335  10.131 -0.1793 -0.1088  0.2267
  265loPI   GL2 4230  12.256  11.409  10.116 -0.4438  0.0660 -0.3883
  265loPI   C1A 4231  12.442  11.133   9.720  0.0050 -0.1085  0.1608
  265loPI   C2A 4232  12.631  11.226   9.264  0.2701  0.0831 -0.1249
  265loPI   C3A 4233  12.704  11.314   8.917 -0.2090  0.0516 -0.0281
  265loPI   C4A 4234  12.907  11.322   8.504 -0.2514  0.0806 -0.2288
  265loPI   C5A 4235  12.997  11.428   8.023 -0.0340  0.1561 -0.1632
  265loPI   C6A 4236  12.828  11.651   7.807  0.0845 -0.0368 -0.1269
  265loPI   C1B 4237  12.079  11.606   9.761  0.1706  0.1626  0.0803
  265loPI   C2B 4238  11.893  11.919   9.477 -0.2097  0.2657  0.0612
  265loPI   C3B 4239  11.867  12.047   9.109 -0.1917 -0.0426  0.1120
  265loPI   C4B 4240  11.864  12.267   8.733 -0.2699  0.1014  0.2124
  266loPI    C1 4241   4.668   4.990  10.085  0.1343 -0.1133 -0.1076
  266loPI    C2 4242   4.285   5.058   9.992  0.1726 -0.0738 -0.2395
  266loPI    C3 4243   4.431   5.182  10.343  0.1218  0.1123 -0.2828
  266loPI   PO4 4244   4.798   4.979   9.821  0.2381 -0.0452 -0.1269
  266loPI   GL1 4245   4.686   5.041   9.409 -0.1313 -0.0243 -0.3225
  266loPI   GL2 4246   4.466   5.226   9.566 -0.3139 -0.0682  0.0350
  266loPI   C1A 4247   4.626   4.889   9.030  0.0842  0.3965 -0.4078
  266loPI   C2A 4248   4.452   4.775   8.744  0.0425  0.2731  0.1329
  266loPI   C3A 4249   4.402   4.959   8.313 -0.4156  0.1763 -0.1957
  266loPI   C4A 4250   4.550   4.936   7.872  0.0541  0.0352  0.2079
  266loPI   C5A 4251   4.845   4.723   7.829  0.0100  0.2496 -0.0771
  266loPI   C6A 4252   5.243   4.649   7.713  0.0780 -0.1178 -0.0365
  266loPI   C1B 4253   4.244   5.379   9.227  0.0331 -0.2919 -0.0986
  266loPI   C2B 4254   4.346   5.309   8.785 -0.2146 -0.0113  0.0301
  266loPI   C3B 4255   4.260   5.423   8.321 -0.2624  0.1055 -0.1482
  266loPI   C4B 4256   4.230   5.307   7.956  0.3297  0.1356 -0.1757
  267loPI    C1 4257  10.578  14.100  10.596  0.1227  0.0340 -0.0060
  267loPI    C2 4258  10.521  14.025  10.985 -0.0482 -0.0945 -0.0547
  267loPI    C3 4259  10.690  13.748  10.750 -0.0682 -0.0690 -0.0994
  267loPI   PO4 4260  10.268  14.116  10.509 -0.1927  0.0788  0.1736
  267loPI   GL1 4261  10.025  14.118  10.199  0.2759  0.0046 -0.0728
  267loPI   GL2 4262  10.256  13.941  10.027  0.3102  0.0837  0.2618
  267loPI   C1A 4263   9.701  13.913   9.902 -0.1631  0.2857  0.1072
  267loPI   C2A 4264   9.738  13.805   9.371 -0.1521  0.1187 -0.1549
  267loPI   C3A 4265   9.804  13.569   9.040 -0.0459  0.3127 -0.3772
  267loPI   C4A 4266  10.254  13.509   8.786  0.2685  0.1171  0.1580
  267loPI   C5A 4267  10.428  13.235   8.616  0.1082  0.3478 -0.3040
  267loPI   C6A 4268  10.784  13.256   8.418 -0.2225  0.0181  0.0462
  267loPI   C1B 4269  10.052  14.105   9.629 -0.1504 -0.3394 -0.0895
  267loPI   C2B 4270  10.129  14.151   9.166 -0.2590  0.0458  0.0104
  267loPI   C3B 4271  10.543  14.280   8.845  0.1282  0.0157  0.1635
  267loPI   C4B 4272  10.753  14.317   8.449  0.2007 -0.1100 -0.3365
  268loPI    C1 4273  10.806  17.294  10.442  0.0697  0.0461  0.1335
  268loPI    C2 4274  10.410  17.242  10.422  0.0885 -0.0489 -0.0065
  268loPI    C3 4275  10.598  17.456  10.141  0.0924  0.2826  0.2434
  268loPI   PO4 4276  10.918  17.010  10.490  0.1926  0.1785  0.2121
  268loPI   GL1 4277  11.070  16.637  10.280 -0.2038  0.0214  0.1074
  268loPI   GL2 4278  10.967  16.369  10.452 -0.2535  0.0286  0.0306
  268loPI   C1A 4279  10.970  16.527   9.956  0.1908 -0.0408  0.0813
  268loPI   C2A 4280  10.733  16.298   9.618  0.0380  0.2360 -0.0956
  268loPI   C3A 4281  10.463  16.033   9.337  0.1277  0.0981 -0.1980
  268loPI   C4A 4282  10.638  15.910   8.934 -0.0197  0.2688  0.1346
  268loPI   C5A 4283  10.882  15.872   8.526 -0.2147  0.0869  0.1096
  268loPI   C6A 4284  11.230  15.645   8.367  0.0166 -0.1834  0.2001
  268loPI   C1B 4285  10.642  16.124  10.164 -0.1483  0.1016 -0.1124
  268loPI   C2B 4286  10.423  15.865   9.933  0.0667  0.0282  0.1310
  268loPI   C3B 4287  10.029  15.717   9.982 -0.3210 -0.2428  0.0607
  268loPI   C4B 4288   9.899  15.346  10.053 -0.1934 -0.0595  0.0333
  269loPI    C1 4289   5.222   8.077  10.078  0.0497  0.0222  0.0538
  269loPI    C2 4290   5.034   8.383  10.254 -0.1980 -0.1287  0.0563
  269loPI    C3 4291   5.086   8.040  10.453 -0.2053 -0.1958 -0.0565
  269loPI   PO4 4292   5.590   8.149  10.018 -0.4058  0.0440  0.0318
  269loPI   GL1 4293   5.855   8.393   9.726 -0.1226  0.1818  0.2934
  269loPI   GL2 4294   5.942   8.021   9.584 -0.0520  0.3869 -0.0714
  269loPI   C1A 4295   5.519   8.397   9.464  0.0530 -0.1700  0.1700
  269loPI   C2A 4296   5.311   8.375   9.051  0.0064 -0.0323 -0.1753
  269loPI   C3A 4297   5.236   8.758   8.813 -0.1500  0.2859 -0.1532
  269loPI   C4A 4298   5.043   8.946   8.384 -0.1212  0.0286 -0.1860
  269loPI   C5A 4299   5.184   9.112   7.930  0.1331  0.2661 -0.2600
  269loPI   C6A 4300   5.565   8.920   7.635  0.0996 -0.0703  0.0178
  269loPI   C1B 4301   5.882   8.197   9.264  0.0601 -0.3513 -0.1263
  269loPI   C2B 4302   5.999   8.269   8.848 -0.0047  0.0305  0.4595
  269loPI   C3B 4303   5.847   8.166   8.442 -0.1313  0.1312  0.0971
  269loPI   C4B 4304   5.894   8.015   8.025 -0.0942 -0.0326  0.2640
  270loPI    C1 4305  16.263   3.626  10.407  0.0951  0.1454 -0.0531
  270loPI    C2 4306  16.026   3.946  10.447 -0.1130 -0.0050 -0.0622
  270loPI    C3 4307  16.134   3.735  10.769  0.0034  0.0584 -0.0590
  270loPI   PO4 4308  16.046   3.501  10.223  0.0246  0.2380 -0.2212
  270loPI   GL1 4309  16.040   3.388   9.817 -0.0067  0.1307 -0.2242
  270loPI   GL2 4310  16.280   3.262   9.819 -0.3318  0.2808 -0.0959
  270loPI   C1A 4311  15.878   3.547   9.478 -0.2640 -0.0463  0.0775
  270loPI   C2A 4312  15.914   3.559   9.017 -0.0288  0.2598 -0.1059
  270loPI   C3A 4313  15.865   3.425   8.666  0.2257 -0.1977 -0.1281
  270loPI   C4A 4314  15.928   3.412   8.308 -0.1102  0.1804  0.2886
  270loPI   C5A 4315  16.087   3.393   8.030 -0.0647 -0.0686 -0.4450
  270loPI   C6A 4316  16.418   3.142   7.902  0.0072  0.0595  0.1644
  270loPI   C1B 4317  16.250   3.187   9.397 -0.0838 -0.2075 -0.2373
  270loPI   C2B 4318  16.227   3.192   8.991 -0.0869 -0.0818 -0.0361
  270loPI   C3B 4319  16.101   2.999   8.580  0.0895  0.0919  0.1673
  270loPI   C4B 4320  16.039   2.940   8.168 -0.0464 -0.1761 -0.1390
  271loPI    C1 4321   6.221  17.989  10.385 -0.1364  0.1790  0.2880
  271loPI    C2 4322   5.867  17.820  10.311  0.0050  0.0091 -0.0231
  271loPI    C3 4323   6.080  17.707  10.630 -0.0710 -0.1298 -0.0205
  271loPI   PO4 4324   6.383  17.898  10.205  0.0104  0.0811  0.3489
  271loPI   GL1 4325   6.357  17.655   9.866  0.0157 -0.1285  0.1962
  271loPI   GL2 4326   6.051  17.640   9.925  0.0106  0.2450 -0.3469
  271loPI   C1A 4327   6.672  17.743   9.477  0.1239 -0.0059  0.0017
  271loPI   C2A 4328   6.751  17.713   9.012 -0.2456 -0.2166  0.0948
  271loPI   C3A 4329   7.051  17.686   8.694 -0.2066  0.0585  0.0563
  271loPI   C4A 4330   7.180  17.714   8.333  0.0975 -0.2115  0.1622
  271loPI   C5A 4331   7.436  17.782   7.992  0.0296  0.3269  0.1190
  271loPI   C6A 4332   7.862  17.622   7.944  0.1181  0.0337 -0.2740
  271loPI   C1B 4333   5.886  17.622   9.587  0.1073 -0.2427  0.1367
  271loPI   C2B 4334   5.676  17.535   9.242  0.0301 -0.1988 -0.1867
  271loPI   C3B 4335   5.690  17.585   8.830 -0.1484 -0.1392  0.0509
  271loPI   C4B 4336   5.570  17.519   8.398  0.0342  0.0744 -0.5060
  272loPI    C1 4337   7.290   5.255  10.671  0.0603  0.2072 -0.0340
  272loPI    C2 4338   6.973   5.446  10.823 -0.0277  0.0401 -0.0055
  272loPI    C3 4339   6.948   5.056  10.734  0.2062 -0.0021  0.1084
  272loPI   PO4 4340   7.215   5.413  10.385  0.2811  0.5024  0.0407
  272loPI   GL1 4341   7.310   5.337   9.982 -0.2814  0.2195 -0.1705
  272loPI   GL2 4342   7.211   5.483   9.671 -0.2128  0.0150 -0.2146
  272loPI   C1A 4343   7.684   5.313   9.690  0.2363 -0.1949  0.1196
  272loPI   C2A 4344   7.887   5.397   9.214 -0.2507  0.0436  0.2444
  272loPI   C3A 4345   7.844   5.417   8.701 -0.1116 -0.1335  0.0863
  272loPI   C4A 4346   7.870   5.265   8.299 -0.1532  0.0990  0.0851
  272loPI   C5A 4347   8.007   5.196   7.814 -0.2355 -0.2156  0.1509
  272loPI   C6A 4348   7.929   5.066   7.492 -0.1844  0.1879  0.0497
  272loPI   C1B 4349   7.327   5.346   9.264 -0.0499  0.0018 -0.1188
  272loPI   C2B 4350   7.333   5.373   8.751  0.0755  0.1130  0.1446
  272loPI   C3B 4351   7.367   5.416   8.341 -0.1729  0.1031  0.1503
  272loPI   C4B 4352   7.397   5.712   7.976 -0.3281 -0.0230 -0.0723
  273loPI    C1 4353  18.169   1.492  10.822 -0.4154 -0.2200 -0.1858
  273loPI    C2 4354  18.099   1.099  10.789 -0.3182 -0.2685  0.1488
  273loPI    C3 4355  17.881   1.321  11.041 -0.3108 -0.1244  0.0298
  273loPI   PO4 4356  18.132   1.634  10.593 -0.0463  0.0317 -0.0539
  273loPI   GL1 4357  18.202   1.685  10.094  0.1877 -0.2297  0.0551
  273loPI   GL2 4358  17.894   1.526  10.100  0.3473  0.1547  0.0086
  273loPI   C1A 4359  17.978   1.668   9.661 -0.1670  0.1892 -0.0369
  273loPI   C2A 4360  17.864   1.489   9.381 -0.0918 -0.1183 -0.0302
  273loPI   C3A 4361  17.726   1.290   9.123  0.0593 -0.2469 -0.2126
  273loPI   C4A 4362  17.597   1.381   8.703  0.0927  0.0430  0.3523
  273loPI   C5A 4363  17.730   1.746   8.284  0.0375 -0.1265 -0.3160
  273loPI   C6A 4364  17.852   2.169   8.256  0.0204  0.0165 -0.0469
  273loPI   C1B 4365  17.632   1.330   9.824  0.0252  0.0784 -0.0807
  273loPI   C2B 4366  17.391   1.268   9.462  0.0768  0.1696  0.2636
  273loPI   C3B 4367  17.200   1.286   9.045  0.0463 -0.0327  0.0941
  273loPI   C4B 4368  17.057   1.571   8.749  0.2409  0.4019 -0.2386
  274loPI    C1 4369  11.300   6.216  10.047  0.0079  0.0358 -0.1494
  274loPI    C2 4370  11.282   5.855  10.219  0.0399  0.0690 -0.0761
  274loPI    C3 4371  11.396   6.173  10.433  0.0753  0.1114 -0.1576
  274loPI   PO4 4372  11.070   6.240   9.946 -0.3660 -0.1956  0.0558
  274loPI   GL1 4373  11.202   6.249   9.486  0.1418 -0.1104 -0.2647
  274loPI   GL2 4374  11.337   6.610   9.610  0.0141 -0.1485  0.2053
  274loPI   C1A 4375  11.014   6.225   9.108 -0.2163 -0.2520 -0.1252
  274loPI   C2A 4376  10.864   6.376   8.844 -0.0441  0.0337 -0.1936
  274loPI   C3A 4377  10.558   6.498   8.513  0.1221 -0.1635  0.2277
  274loPI   C4A 4378  10.473   6.452   8.098 -0.0121  0.1567 -0.0048
  274loPI   C5A 4379  10.712   6.387   7.718 -0.1340 -0.2589  0.0191
  274loPI   C6A 4380  10.708   6.704   7.387  0.3728  0.3077 -0.0128
  274loPI   C1B 4381  11.288   6.613   9.169 -0.2439  0.1360 -0.0725
  274loPI   C2B 4382  11.411   6.302   8.755  0.0427 -0.2043  0.2329
  274loPI   C3B 4383  11.147   6.158   8.404 -0.3457  0.0509  0.2861
  274loPI   C4B 4384  11.020   6.436   8.106  0.0012  0.2011 -0.2614
  275loPI    C1 4385  11.994  13.998  10.678 -0.0259 -0.0983 -0.0943
  275loPI    C2 4386  12.093  14.220  10.995 -0.0867  0.0427 -0.1736
  275loPI    C3 4387  11.756  14.004  10.999  0.0063 -0.1023 -0.0703
  275loPI   PO4 4388  12.096  14.086  10.473 -0.0524  0.2384 -0.0400
  275loPI   GL1 4389  12.475  14.070  10.317 -0.2812 -0.2280  0.1510
  275loPI   GL2 4390  12.413  13.870  10.062  0.0443 -0.1994 -0.1088
  275loPI   C1A 4391  12.613  14.232   9.821  0.0970 -0.1648  0.0073
  275loPI   C2A 4392  12.744  14.383   9.365 -0.4339  0.3357  0.0499
  275loPI   C3A 4393  12.855  14.588   8.971  0.2881 -0.0079 -0.0691
  275loPI   C4A 4394  12.942  14.650   8.645 -0.2109  0.1156 -0.0722
  275loPI   C5A 4395  12.952  15.010   8.472 -0.0300 -0.0216 -0.0024
  275loPI   C6A 4396  12.941  15.023   7.979 -0.3840 -0.1469  0.0709
  275loPI   C1B 4397  12.146  14.042   9.709 -0.1940 -0.0252 -0.0055
  275loPI   C2B 4398  12.256  14.328   9.442 -0.2063 -0.3797 -0.0731
  275loPI   C3B 4399  12.218  14.483   8.961 -0.0803  0.1573 -0.2116
  275loPI   C4B 4400  12.420  14.660   8.623 -0.1892 -0.0485 -0.1021
  276loPI    C1 4401  15.198   1.228  10.787  0.2194 -0.0844 -0.0162
  276loPI    C2 4402  15.497   1.201  11.050  0.1395 -0.0077  0.0836
  276loPI    C3 4403  15.250   1.515  11.060 -0.0242 -0.1352  0.0860
  276loPI   PO4 4404  15.325   1.132  10.594  0.1797 -0.1349  0.1184
  276loPI   GL1 4405  15.267   1.282  10.199  0.3334  0.3629 -0.1292
  276loPI   GL2 4406  15.607   1.181  10.173  0.1093 -0.2459 -0.1657
  276loPI   C1A 4407  15.173   1.395   9.817 -0.4532  0.0206  0.2593
  276loPI   C2A 4408  15.112   1.540   9.476  0.1519  0.0704  0.0694
  276loPI   C3A 4409  15.220   1.656   9.093 -0.4598 -0.2101 -0.0400
  276loPI   C4A 4410  15.225   1.789   8.738  0.3237  0.0395  0.1399
  276loPI   C5A 4411  15.045   1.842   8.325  0.4579 -0.0200 -0.0420
  276loPI   C6A 4412  15.160   2.289   8.131 -0.0618 -0.0355 -0.2953
  276loPI   C1B 4413  15.573   1.035   9.714 -0.2184  0.2934 -0.0753
  276loPI   C2B 4414  15.687   1.338   9.413  0.5363 -0.2302 -0.0391
  276loPI   C3B 4415  15.953   1.745   9.429 -0.1860  0.3562  0.1365
  276loPI   C4B 4416  16.185   1.876   9.764  0.2201  0.2686  0.2908
  277loPI    C1 4417  12.011   2.672  10.372 -0.1740  0.1955 -0.0669
  277loPI    C2 4418  12.210   3.003  10.267  0.1045  0.0152 -0.1179
  277loPI    C3 4419  11.951   3.013  10.572  0.2217  0.2443 -0.0239
  277loPI   PO4 4420  12.109   2.490  10.300  0.0986  0.0149  0.1065
  277loPI   GL1 4421  12.347   2.524   9.921  0.1083  0.1745 -0.0359
  277loPI   GL2 4422  12.208   2.452   9.670 -0.1816 -0.3109 -0.3584
  277loPI   C1A 4423  12.525   2.792   9.679  0.0322 -0.0235 -0.2063
  277loPI   C2A 4424  12.611   2.811   9.224 -0.2616  0.0908 -0.0617
  277loPI   C3A 4425  12.585   2.458   8.876  0.0019 -0.1731  0.0899
  277loPI   C4A 4426  12.539   2.244   8.519  0.0596 -0.0972  0.0877
  277loPI   C5A 4427  12.819   2.286   8.093 -0.0680 -0.0979 -0.3758
  277loPI   C6A 4428  12.851   2.186   7.665 -0.0746  0.0431 -0.2029
  277loPI   C1B 4429  12.232   2.490   9.219  0.2922 -0.4965 -0.1199
  277loPI   C2B 4430  12.065   2.455   8.795 -0.1809  0.0944  0.1429
  277loPI   C3B 4431  12.085   2.345   8.325  0.0696  0.2890  0.2390
  277loPI   C4B 4432  12.334   2.218   8.047 -0.1551 -0.1379 -0.1032
  278loPI    C1 4433   6.813   3.949  10.250 -0.0485 -0.1650 -0.0052
  278loPI    C2 4434   6.839   3.563  10.350 -0.1250 -0.1113  0.2282
  278loPI    C3 4435   6.553   3.792  10.510  0.0294  0.0843  0.2277
  278loPI   PO4 4436   6.816   3.984   9.948  0.1212  0.1916 -0.0727
  278loPI   GL1 4437   7.047   3.921   9.544 -0.2305  0.2867 -0.3404
  278loPI   GL2 4438   6.764   3.786   9.458  0.1698  0.3437  0.1379
  278loPI   C1A 4439   7.208   3.822   9.142  0.1812 -0.0178 -0.0860
  278loPI   C2A 4440   7.548   3.624   8.891 -0.0893 -0.0121 -0.0327
  278loPI   C3A 4441   7.567   3.805   8.499 -0.1015 -0.0889  0.0004
  278loPI   C4A 4442   7.584   4.009   8.162 -0.3453  0.1595 -0.2034
  278loPI   C5A 4443   7.634   4.245   7.787  0.1053  0.1908 -0.1456
  278loPI   C6A 4444   7.523   4.310   7.298  0.0070 -0.0988  0.2342
  278loPI   C1B 4445   6.719   3.729   8.981 -0.2247  0.4847  0.0066
  278loPI   C2B 4446   6.900   3.618   8.636 -0.0135 -0.1229 -0.0518
  278loPI   C3B 4447   6.767   3.720   8.177 -0.0291 -0.0087  0.0114
  278loPI   C4B 4448   6.449   3.667   7.858 -0.0864  0.0233  0.5454
  279loPI    C1 4449  17.244   9.976  10.356 -0.0131 -0.0534  0.0538
  279loPI    C2 4450  17.108   9.824  10.701  0.0495  0.1332  0.1620
  279loPI    C3 4451  17.019  10.200  10.598  0.0323  0.0790 -0.0257
  279loPI   PO4 4452  17.283   9.777  10.158 -0.0781 -0.0412  0.3200
  279loPI   GL1 4453  17.337   9.973   9.795  0.2452  0.1624 -0.2644
  279loPI   GL2 4454  17.069  10.132   9.890 -0.0158  0.2693  0.2600
  279loPI   C1A 4455  17.394   9.731   9.406  0.3069 -0.1162  0.1349
  279loPI   C2A 4456  17.468   9.420   9.127 -0.0030  0.0668 -0.0140
  279loPI   C3A 4457  17.497   9.328   8.747 -0.0342 -0.2055 -0.0949
  279loPI   C4A 4458  17.319   9.221   8.344 -0.1595 -0.2979  0.2967
  279loPI   C5A 4459  17.086   9.155   7.973  0.0813  0.4314  0.0230
  279loPI   C6A 4460  17.001   8.892   7.635 -0.0340 -0.1852 -0.0595
  279loPI   C1B 4461  16.969  10.074   9.488  0.0576  0.1422 -0.1968
  279loPI   C2B 4462  16.915  10.063   9.171 -0.0975 -0.2900 -0.0689
  279loPI   C3B 4463  16.968  10.198   8.767 -0.1412 -0.2360 -0.0861
  279loPI   C4B 4464  17.049  10.099   8.455  0.1608 -0.1409  0.0434
  280loPI    C1 4465  11.885   1.236  10.550  0.0205  0.0620  0.2156
  280loPI    C2 4466  12.173   1.025  10.370 -0.0043  0.1079  0.1215
  280loPI    C3 4467  12.127   1.003  10.767 -0.1191 -0.2014  0.0932
  280loPI   PO4 4468  11.971   1.479  10.481  0.2664 -0.1767 -0.0235
  280loPI   GL1 4469  12.049   1.521  10.085  0.1547  0.0840  0.0329
  280loPI   GL2 4470  12.213   1.865   9.940  0.2395 -0.2501  0.6001
  280loPI   C1A 4471  11.804   1.282   9.942  0.1677 -0.1303 -0.0217
  280loPI   C2A 4472  11.385   1.195   9.764 -0.1684 -0.1326  0.2167
  280loPI   C3A 4473  11.275   0.915   9.363 -0.2227  0.1972  0.1321
  280loPI   C4A 4474  11.453   0.799   9.077 -0.0614 -0.1051 -0.0591
  280loPI   C5A 4475  11.474   0.708   8.650  0.2453  0.3075  0.0564
  280loPI   C6A 4476  11.257   0.700   8.121  0.1235 -0.1670 -0.0443
  280loPI   C1B 4477  12.094   1.680   9.561 -0.0183  0.0553 -0.3104
  280loPI   C2B 4478  11.928   1.664   9.155  0.2643  0.1475 -0.0438
  280loPI   C3B 4479  11.933   1.501   8.741 -0.0046 -0.1069 -0.3871
  280loPI   C4B 4480  12.010   1.396   8.233  0.2695  0.1126  0.2828
  281loPI    C1 4481   5.444   1.544  10.756  0.0075  0.0068 -0.3716
  281loPI    C2 4482   5.748   1.803  10.782  0.0361 -0.0309 -0.3305
  281loPI    C3 4483   5.816   1.410  10.813 -0.0386 -0.0306 -0.1492
  281loPI   PO4 4484   5.349   1.589  10.505 -0.2635 -0.0944  0.0480
  281loPI   GL1 4485   5.374   1.816  10.096 -0.1054 -0.0968  0.1204
  281loPI   GL2 4486   5.265   1.533  10.037 -0.1366 -0.2177 -0.1029
  281loPI   C1A 4487   5.281   1.975   9.699  0.2824  0.1651 -0.0742
  281loPI   C2A 4488   5.233   2.078   9.330  0.2289 -0.1345 -0.0983
  281loPI   C3A 4489   5.312   1.964   8.815 -0.0034 -0.2740  0.2410
  281loPI   C4A 4490   5.514   1.734   8.462  0.2083 -0.1266  0.1593
  281loPI   C5A 4491   5.393   1.605   8.148  0.0839  0.0517  0.3165
  281loPI   C6A 4492   5.389   1.616   7.690  0.1108 -0.0423  0.3195
  281loPI   C1B 4493   5.662   1.546   9.838  0.2571  0.1841  0.1054
  281loPI   C2B 4494   5.626   1.724   9.457  0.2866 -0.2165  0.1300
  281loPI   C3B 4495   5.699   1.621   8.962 -0.1630  0.0083  0.0231
  281loPI   C4B 4496   5.958   1.573   8.673 -0.0717  0.0304 -0.1098
  282loPI    C1 4497   2.628   4.585  10.508 -0.0345 -0.0544  0.0502
  282loPI    C2 4498   3.000   4.476  10.606 -0.0887 -0.1842  0.1143
  282loPI    C3 4499   2.700   4.416  10.863 -0.0919  0.2907  0.2297
  282loPI   PO4 4500   2.652   4.555  10.155  0.1182  0.1316  0.0685
  282loPI   GL1 4501   2.772   4.608   9.644  0.4444 -0.1034  0.1064
  282loPI   GL2 4502   2.695   4.944   9.689  0.4169 -0.1912  0.0148
  282loPI   C1A 4503   2.713   4.394   9.306  0.0815 -0.1101 -0.1479
  282loPI   C2A 4504   2.703   4.428   8.911 -0.2151  0.1284 -0.2371
  282loPI   C3A 4505   2.519   4.434   8.520 -0.2812 -0.4451 -0.2213
  282loPI   C4A 4506   2.622   4.382   8.125  0.0556  0.0505  0.0989
  282loPI   C5A 4507   2.587   4.618   7.726  0.0228  0.2234 -0.0560
  282loPI   C6A 4508   2.301   4.494   7.402 -0.0990 -0.0314 -0.0879
  282loPI   C1B 4509   2.544   4.860   9.263 -0.3196  0.0049  0.3714
  282loPI   C2B 4510   2.574   4.859   8.850 -0.0898 -0.1561 -0.2185
  282loPI   C3B 4511   2.551   4.937   8.460 -0.0626  0.1370 -0.0750
  282loPI   C4B 4512   2.839   4.837   8.167  0.0850  0.1499  0.1233
  283loPI    C1 4513   5.531  12.880  10.332 -0.0876  0.0216 -0.0068
  283loPI    C2 4514   5.321  12.563  10.208 -0.0936 -0.0625  0.2148
  283loPI    C3 4515   5.182  12.791  10.506 -0.1430  0.2150 -0.0166
  283loPI   PO4 4516   5.638  13.058  10.085 -0.1955 -0.1379 -0.3684
  283loPI   GL1 4517   5.435  13.293   9.755  0.0775 -0.1097  0.1736
  283loPI   GL2 4518   5.568  13.562   9.557  0.0840  0.2424 -0.0803
  283loPI   C1A 4519   5.416  13.147   9.304  0.2393 -0.0121 -0.2414
  283loPI   C2A 4520   5.258  13.175   8.823 -0.1487  0.1205 -0.0858
  283loPI   C3A 4521   5.238  13.038   8.475 -0.2473 -0.0371  0.2997
  283loPI   C4A 4522   5.373  12.627   8.381  0.1479 -0.0239 -0.0526
  283loPI   C5A 4523   5.675  12.287   8.148 -0.1272  0.0597 -0.0487
  283loPI   C6A 4524   5.378  11.910   8.065 -0.2229 -0.0764  0.0256
  283loPI   C1B 4525   5.530  13.549   8.996  0.4872 -0.1525 -0.0583
  283loPI   C2B 4526   5.514  13.575   8.518 -0.1186  0.1684  0.5336
  283loPI   C3B 4527   5.496  13.733   8.160 -0.0423 -0.0108 -0.1229
  283loPI   C4B 4528   5.313  14.025   7.918  0.1600 -0.1982  0.1309
  284loPI    C1 4529   7.290   3.145  10.260 -0.0849 -0.1810  0.0760
  284loPI    C2 4530   7.603   2.898  10.263  0.1692  0.1324 -0.0245
  284loPI    C3 4531   7.612   3.233  10.480 -0.1375  0.0980  0.0452
  284loPI   PO4 4532   7.093   2.951  10.181  0.0604  0.0110 -0.1813
  284loPI   GL1 4533   7.288   2.719   9.721 -0.0738  0.0951 -0.1029
  284loPI   GL2 4534   7.220   2.388   9.702  0.0347  0.1887 -0.3936
  284loPI   C1A 4535   7.446   2.979   9.377  0.0087  0.2622 -0.0695
  284loPI   C2A 4536   7.434   2.905   8.888 -0.1831  0.1960 -0.1657
  284loPI   C3A 4537   7.344   2.822   8.425  0.0756  0.2724  0.2321
  284loPI   C4A 4538   7.663   2.727   8.170 -0.3990 -0.0527  0.0559
  284loPI   C5A 4539   8.063   2.789   7.838  0.2328 -0.1963 -0.1347
  284loPI   C6A 4540   8.175   2.825   7.461 -0.4019 -0.3145 -0.0896
  284loPI   C1B 4541   7.249   2.501   9.214 -0.1882 -0.0007 -0.0931
  284loPI   C2B 4542   7.124   2.492   8.860 -0.0810  0.2519  0.1082
  284loPI   C3B 4543   7.054   2.291   8.429 -0.0588  0.1292 -0.0288
  284loPI   C4B 4544   7.096   2.486   8.035 -0.1634 -0.0008 -0.1709
  285loPI    C1 4545   5.059   7.543  10.263  0.0393 -0.0843  0.2307
  285loPI    C2 4546   4.784   7.284  10.395  0.1295 -0.2619  0.0746
  285loPI    C3 4547   5.109   7.359  10.615  0.0788 -0.2427  0.1433
  285loPI   PO4 4548   5.062   7.573  10.055  0.0361  0.1930  0.3382
  285loPI   GL1 4549   4.995   7.737   9.665 -0.0071  0.1106  0.0226
  285loPI   GL2 4550   5.210   7.994   9.495 -0.0527  0.3675  0.2682
  285loPI   C1A 4551   5.020   7.574   9.290 -0.1340 -0.1714 -0.0475
  285loPI   C2A 4552   5.147   7.330   8.885  0.0801  0.0405 -0.0994
  285loPI   C3A 4553   5.213   7.407   8.420 -0.1945 -0.1097 -0.1449
  285loPI   C4A 4554   4.996   7.821   8.247 -0.0352  0.2721 -0.0235
  285loPI   C5A 4555   5.177   8.138   7.924  0.0102  0.0285  0.0615
  285loPI   C6A 4556   5.211   8.591   7.962  0.0919  0.0351 -0.0748
  285loPI   C1B 4557   5.489   7.901   9.109 -0.3788  0.3540  0.0227
  285loPI   C2B 4558   5.412   7.740   8.711 -0.0762  0.1582 -0.1149
  285loPI   C3B 4559   5.605   7.677   8.322  0.1590 -0.2418 -0.3299
  285loPI   C4B 4560   5.360   7.589   7.948 -0.2304 -0.1722  0.2631
  286loPI    C1 4561  14.421  11.673  10.267 -0.1301 -0.1203 -0.0258
  286loPI    C2 4562  14.477  11.993  10.501  0.0168 -0.0961 -0.0925
  286loPI    C3 4563  14.573  11.628  10.634 -0.2710 -0.1291  0.0319
  286loPI   PO4 4564  14.436  11.772  10.054  0.0236 -0.0426  0.1268
  286loPI   GL1 4565  14.557  11.928   9.761 -0.0365  0.1174  0.0568
  286loPI   GL2 4566  14.365  12.193   9.718 -0.0710 -0.1529 -0.1946
  286loPI   C1A 4567  14.874  12.185   9.461  0.1750  0.1148  0.0696
  286loPI   C2A 4568  14.850  12.325   9.079  0.0751 -0.1429 -0.2096
  286loPI   C3A 4569  14.992  12.205   8.700  0.2165 -0.0145 -0.0427
  286loPI   C4A 4570  14.927  12.116   8.284 -0.1993 -0.0128  0.1505
  286loPI   C5A 4571  14.806  11.912   7.909 -0.1214  0.1448  0.0519
  286loPI   C6A 4572  14.346  11.820   7.704  0.2391  0.0397 -0.5323
  286loPI   C1B 4573  14.401  12.377   9.335 -0.3280  0.1262 -0.0058
  286loPI   C2B 4574  14.366  12.527   8.930 -0.1876  0.0138 -0.0396
  286loPI   C3B 4575  14.347  12.734   8.487 -0.0768 -0.2970 -0.2340
  286loPI   C4B 4576  14.643  13.008   8.230  0.4067  0.0599  0.0482
  287loPI    C1 4577   7.226   2.470  10.200  0.0786 -0.3608 -0.0226
  287loPI    C2 4578   7.137   2.276  10.538 -0.0074 -0.2577  0.0143
  287loPI    C3 4579   6.885   2.551  10.393  0.1693 -0.0870  0.0268
  287loPI   PO4 4580   7.488   2.380  10.141  0.2081 -0.1329  0.0343
  287loPI   GL1 4581   7.562   1.961   9.890 -0.1695 -0.0046  0.2724
  287loPI   GL2 4582   7.817   2.179   9.787  0.1673 -0.2115  0.2828
  287loPI   C1A 4583   7.464   2.112   9.459  0.1079 -0.1480  0.0222
  287loPI   C2A 4584   7.272   2.027   9.114 -0.3934  0.3005  0.2000
  287loPI   C3A 4585   7.231   1.940   8.714 -0.1312  0.1130 -0.1886
  287loPI   C4A 4586   7.219   1.818   8.295  0.1393  0.2045 -0.0865
  287loPI   C5A 4587   7.158   1.399   8.421  0.2279  0.0143  0.0330
  287loPI   C6A 4588   7.063   0.989   8.162  0.1217  0.1253  0.0462
  287loPI   C1B 4589   7.964   1.967   9.447  0.3087 -0.0930 -0.1724
  287loPI   C2B 4590   7.790   2.012   9.024  0.2171 -0.2764  0.0153
  287loPI   C3B 4591   7.596   2.222   8.688 -0.2336  0.1939  0.0945
  287loPI   C4B 4592   7.509   2.231   8.316  0.0536 -0.2139  0.1367
  288loPI    C1 4593   8.395  13.853  10.658  0.1585  0.1649  0.1493
  288loPI    C2 4594   8.264  13.574  10.913  0.0682 -0.0392 -0.1159
  288loPI    C3 4595   8.510  13.862  11.041 -0.3194  0.1183  0.3002
  288loPI   PO4 4596   8.249  13.804  10.338 -0.0503 -0.0352  0.2725
  288loPI   GL1 4597   8.484  13.832   9.899 -0.0785  0.0236  0.0044
  288loPI   GL2 4598   8.742  13.751  10.163 -0.1876  0.3442  0.1802
  288loPI   C1A 4599   8.662  13.614   9.612  0.2306 -0.0245  0.0507
  288loPI   C2A 4600   9.016  13.716   9.362 -0.0993  0.1355  0.1189
  288loPI   C3A 4601   9.285  13.915   9.073  0.2293  0.0025  0.1325
  288loPI   C4A 4602   9.457  13.825   8.772 -0.3236 -0.2357  0.1331
  288loPI   C5A 4603   9.293  13.487   8.456 -0.2269 -0.0683  0.1218
  288loPI   C6A 4604   9.549  13.229   8.221 -0.1413 -0.0484 -0.1097
  288loPI   C1B 4605   9.114  13.667  10.028  0.0137  0.0094  0.0130
  288loPI   C2B 4606   9.326  13.539   9.691 -0.2726 -0.0256 -0.0453
  288loPI   C3B 4607   9.479  13.351   9.312  0.0241 -0.2781  0.0507
  288loPI   C4B 4608   9.241  13.373   8.930 -0.0864  0.3129 -0.2250
  289loPI    C1 4609  14.114  12.768  10.222 -0.0608  0.0714 -0.1158
  289loPI    C2 4610  14.074  12.882  10.603 -0.1583  0.0400 -0.1163
  289loPI    C3 4611  14.339  12.598  10.506 -0.1313  0.0501 -0.0725
  289loPI   PO4 4612  14.146  13.033  10.077 -0.3077  0.2679  0.1519
  289loPI   GL1 4613  14.069  13.418   9.986 -0.0364 -0.1993 -0.0210
  289loPI   GL2 4614  14.093  13.698   9.846 -0.4314  0.0932 -0.1035
  289loPI   C1A 4615  14.313  13.331   9.532  0.1104  0.0386  0.0551
  289loPI   C2A 4616  14.455  13.342   9.123 -0.1617 -0.1100  0.1557
  289loPI   C3A 4617  14.516  13.208   8.732  0.2886 -0.0922 -0.0361
  289loPI   C4A 4618  14.733  13.416   8.467  0.1765  0.1780 -0.2620
  289loPI   C5A 4619  14.964  13.447   8.088 -0.0630 -0.1930  0.0282
  289loPI   C6A 4620  15.154  13.377   7.678  0.1438  0.1937  0.1218
  289loPI   C1B 4621  14.096  13.865   9.389  0.1829 -0.1075  0.2444
  289loPI   C2B 4622  13.831  13.975   9.017  0.0944  0.2351 -0.1573
  289loPI   C3B 4623  13.838  14.108   8.573 -0.2311 -0.1293 -0.2426
  289loPI   C4B 4624  14.093  14.274   8.222  0.0612  0.2535 -0.0906
  290loPI    C1 4625  10.243   7.074  10.170 -0.0747  0.1497 -0.1491
  290loPI    C2 4626  10.235   7.150  10.563 -0.0036  0.0376 -0.1254
  290loPI    C3 4627  10.017   7.373  10.312  0.0218  0.1683 -0.0327
  290loPI   PO4 4628  10.196   6.889  10.112 -0.0389  0.1237  0.1592
  290loPI   GL1 4629  10.000   6.970   9.674 -0.0529  0.3968  0.1335
  290loPI   GL2 4630   9.896   7.244   9.809  0.0041 -0.0650  0.2731
  290loPI   C1A 4631   9.847   6.971   9.298  0.0473  0.0319 -0.0448
  290loPI   C2A 4632   9.693   7.078   8.893  0.0087 -0.0579 -0.0215
  290loPI   C3A 4633   9.666   7.147   8.408 -0.0369 -0.2817  0.0327
  290loPI   C4A 4634   9.723   7.278   8.022 -0.0770  0.2957  0.1328
  290loPI   C5A 4635   9.560   7.352   7.675 -0.2126  0.4310  0.0094
  290loPI   C6A 4636   9.782   7.166   7.349  0.0516 -0.0815  0.0066
  290loPI   C1B 4637   9.866   7.440   9.420  0.1634 -0.2226  0.0886
  290loPI   C2B 4638   9.673   7.513   9.154  0.0748  0.1610 -0.1968
  290loPI   C3B 4639   9.542   7.544   8.715  0.0075 -0.0063 -0.1117
  290loPI   C4B 4640   9.484   7.651   8.274  0.1152 -0.2613 -0.2106
  291loPI    C1 4641   6.226   1.680  10.634  0.1457  0.1436 -0.1149
  291loPI    C2 4642   6.352   2.000  10.838  0.0967  0.1272 -0.0582
  291loPI    C3 4643   6.258   1.663  11.032 -0.2032  0.1955 -0.0813
  291loPI   PO4 4644   6.390   1.570  10.458  0.1092  0.1056 -0.0698
  291loPI   GL1 4645   6.280   1.632  10.092  0.1296 -0.0072  0.2295
  291loPI   GL2 4646   6.622   1.811   9.961 -0.4043  0.0965  0.0682
  291loPI   C1A 4647   6.178   1.916   9.773 -0.1100  0.2305  0.1734
  291loPI   C2A 4648   6.180   1.954   9.348  0.0069 -0.2019  0.0427
  291loPI   C3A 4649   6.285   1.838   8.955  0.2648 -0.0524 -0.0575
  291loPI   C4A 4650   6.455   1.678   8.549  0.3973  0.0395  0.1022
  291loPI   C5A 4651   6.704   1.878   8.325  0.1517 -0.1209 -0.1336
  291loPI   C6A 4652   6.864   1.940   7.916  0.0598 -0.2489 -0.1463
  291loPI   C1B 4653   6.567   1.572   9.587 -0.5959 -0.0754 -0.0835
  291loPI   C2B 4654   6.724   1.588   9.209  0.2795 -0.1866  0.0046
  291loPI   C3B 4655   6.769   1.784   8.865 -0.0714  0.1933 -0.1002
  291loPI   C4B 4656   6.609   2.179   8.689  0.1003 -0.2458 -0.1041
  292loPI    C1 4657  10.007   8.838  10.402  0.1106 -0.2077 -0.2092
  292loPI    C2 4658   9.710   8.642  10.585 -0.0371  0.1692 -0.0334
  292loPI    C3 4659  10.048   8.725  10.783  0.0698 -0.0014 -0.1420
  292loPI   PO4 4660  10.037   8.691  10.178  0.1157  0.1583  0.0577
  292loPI   GL1 4661  10.256   8.763   9.834 -0.0725 -0.1837 -0.2874
  292loPI   GL2 4662  10.009   8.484   9.705 -0.3379  0.0365  0.3720
  292loPI   C1A 4663  10.149   8.809   9.381  0.0422  0.2151 -0.3204
  292loPI   C2A 4664  10.032   8.812   8.995  0.2348  0.0994  0.0921
  292loPI   C3A 4665  10.023   8.713   8.522 -0.0186 -0.0313 -0.1490
  292loPI   C4A 4666  10.306   8.502   8.205  0.2114 -0.2077 -0.0446
  292loPI   C5A 4667  10.463   8.473   7.727  0.2299 -0.0291  0.3883
  292loPI   C6A 4668  10.578   8.827   7.444 -0.0657 -0.0764  0.3026
  292loPI   C1B 4669   9.881   8.264   9.286 -0.1342 -0.0723 -0.0821
  292loPI   C2B 4670   9.953   8.342   8.826 -0.1307 -0.0663 -0.0944
  292loPI   C3B 4671  10.136   8.132   8.516  0.0391  0.2262 -0.2695
  292loPI   C4B 4672  10.457   8.012   8.215  0.2900 -0.0395 -0.1316
  293loPI    C1 4673  11.571   4.367   9.888  0.1513 -0.6806  0.0826
  293loPI    C2 4674  11.928   4.546   9.905 -0.1195 -0.1269  0.1590
  293loPI    C3 4675  11.804   4.317  10.209  0.1626 -0.3176  0.1344
  293loPI   PO4 4676  11.437   4.187   9.872  0.1344 -0.0907 -0.5845
  293loPI   GL1 4677  11.123   4.270   9.594  0.4534 -0.3029 -0.2722
  293loPI   GL2 4678  10.762   4.202   9.705 -0.3666  0.1448 -0.1563
  293loPI   C1A 4679  11.097   3.978   9.300 -0.4427  0.1669 -0.0799
  293loPI   C2A 4680  11.163   3.749   9.012  0.0793 -0.2015  0.0216
  293loPI   C3A 4681  11.364   3.548   8.748 -0.1071  0.1518 -0.2777
  293loPI   C4A 4682  11.520   3.635   8.337  0.1502  0.0262  0.1937
  293loPI   C5A 4683  11.863   3.299   8.061 -0.3140  0.0047  0.1624
  293loPI   C6A 4684  12.054   3.070   7.815 -0.2150 -0.2893  0.0151
  293loPI   C1B 4685  10.565   4.072   9.326 -0.1143  0.0503  0.2168
  293loPI   C2B 4686  10.730   4.033   8.982 -0.4393  0.0040  0.0100
  293loPI   C3B 4687  10.748   3.739   8.626  0.0040 -0.2287  0.0985
  293loPI   C4B 4688  11.004   3.720   8.289 -0.2779 -0.0817 -0.1330
  294loPI    C1 4689   4.559  12.669  10.318  0.3213  0.1089 -0.2388
  294loPI    C2 4690   4.705  12.898  10.612 -0.1990 -0.0273  0.1406
  294loPI    C3 4691   4.317  12.917  10.517 -0.1347 -0.3417 -0.2108
  294loPI   PO4 4692   4.766  12.679  10.131  0.1968 -0.3286 -0.4372
  294loPI   GL1 4693   4.504  12.501   9.823  0.0727  0.0913  0.1735
  294loPI   GL2 4694   4.595  12.814   9.685  0.1439 -0.1307 -0.0622
  294loPI   C1A 4695   4.235  12.534   9.547  0.2211  0.2644  0.2243
  294loPI   C2A 4696   4.121  12.485   9.112  0.2143  0.0529 -0.0200
  294loPI   C3A 4697   4.014  12.567   8.655 -0.1137  0.0216 -0.0599
  294loPI   C4A 4698   4.118  12.674   8.202  0.3467  0.0217 -0.1097
  294loPI   C5A 4699   4.478  12.741   8.054  0.4333 -0.1283 -0.2829
  294loPI   C6A 4700   4.564  13.082   7.739 -0.1701 -0.1362  0.0535
  294loPI   C1B 4701   4.552  12.814   9.245 -0.0241 -0.0622  0.1219
  294loPI   C2B 4702   4.404  12.911   8.907  0.0780  0.1403  0.0447
  294loPI   C3B 4703   4.169  13.166   8.609  0.2195  0.0407 -0.1908
  294loPI   C4B 4704   3.971  13.482   8.407  0.0397 -0.1679 -0.1670
  295loPI    C1 4705   4.949   3.392  10.527  0.2578  0.1943  0.1020
  295loPI    C2 4706   4.885   3.766  10.654 -0.3233  0.1643 -0.0738
  295loPI    C3 4707   4.735   3.457  10.859 -0.1417  0.0450 -0.1187
  295loPI   PO4 4708   4.978   3.420  10.325 -0.0787  0.1877 -0.0461
  295loPI   GL1 4709   5.042   3.063  10.010  0.3682 -0.0295  0.2632
  295loPI   GL2 4710   4.816   2.923   9.923  0.3384 -0.1947  0.2009
  295loPI   C1A 4711   5.131   3.168   9.590 -0.3032 -0.3305 -0.4820
  295loPI   C2A 4712   5.287   3.107   9.138  0.2948 -0.4335 -0.0583
  295loPI   C3A 4713   5.550   3.148   8.816 -0.2207  0.0008  0.2011
  295loPI   C4A 4714   5.786   3.131   8.352 -0.0418  0.2037  0.1708
  295loPI   C5A 4715   6.069   3.324   8.086  0.0345  0.1576  0.0376
  295loPI   C6A 4716   6.259   3.222   7.658 -0.0176 -0.2617 -0.0500
  295loPI   C1B 4717   4.632   2.805   9.504  0.1212  0.4378  0.2648
  295loPI   C2B 4718   4.443   2.602   9.148  0.1297  0.1555  0.2036
  295loPI   C3B 4719   4.459   2.633   8.758 -0.0195 -0.0763 -0.2709
  295loPI   C4B 4720   4.717   2.760   8.416 -0.0031 -0.2405  0.0916
  296loPI    C1 4721  16.923   7.473  10.074  0.0322 -0.0238 -0.0583
  296loPI    C2 4722  16.598   7.487   9.841 -0.1131  0.0243  0.1438
  296loPI    C3 4723  16.558   7.461  10.238  0.1320 -0.1629  0.1589
  296loPI   PO4 4724  17.193   7.651  10.042  0.0442 -0.0970 -0.0610
  296loPI   GL1 4725  17.417   7.627   9.649 -0.0201 -0.1520 -0.1330
  296loPI   GL2 4726  17.339   7.952   9.661  0.1055  0.1400 -0.1570
  296loPI   C1A 4727  17.395   7.886   9.108  0.1014 -0.4023 -0.2408
  296loPI   C2A 4728  17.433   8.220   8.785 -0.1408 -0.1407  0.1284
  296loPI   C3A 4729  17.588   8.446   8.472  0.7886 -0.1293  0.0518
  296loPI   C4A 4730  17.590   8.249   8.110  0.2139  0.1319 -0.0355
  296loPI   C5A 4731  17.459   8.011   7.802 -0.1338  0.1287 -0.1097
  296loPI   C6A 4732  17.134   8.071   7.539  0.0175  0.0861 -0.3215
  296loPI   C1B 4733  17.567   8.196   9.454  0.0604 -0.2435  0.2751
  296loPI   C2B 4734  17.793   8.345   9.115 -0.3483 -0.0406  0.1351
  296loPI   C3B 4735  18.034   8.589   8.863  0.0177 -0.0327  0.0512
  296loPI   C4B 4736  18.262   8.707   8.559  0.0750  0.0356 -0.4387
  297loPI    C1 4737   4.073   1.691  10.581  0.0460  0.2694 -0.2168
  297loPI    C2 4738   4.469   1.718  10.632  0.0515 -0.1497  0.0088
  297loPI    C3 4739   4.221   1.876  10.904  0.0645 -0.0670 -0.0273
  297loPI   PO4 4740   3.965   1.884  10.324 -0.1539  0.3067  0.0718
  297loPI   GL1 4741   4.134   2.061   9.962 -0.0898 -0.1167  0.0135
  297loPI   GL2 4742   3.905   2.156   9.776  0.1803  0.1093  0.0236
  297loPI   C1A 4743   4.048   1.689   9.689 -0.2357 -0.0886 -0.3034
  297loPI   C2A 4744   4.076   1.654   9.304 -0.1438  0.1090  0.0633
  297loPI   C3A 4745   4.289   1.647   8.991  0.0753 -0.4298  0.2170
  297loPI   C4A 4746   4.395   1.684   8.537 -0.0094 -0.0909 -0.1824
  297loPI   C5A 4747   4.221   1.863   8.234 -0.2429  0.1612  0.0021
  297loPI   C6A 4748   4.382   1.796   7.828 -0.3011  0.2123 -0.3057
  297loPI   C1B 4749   3.893   2.122   9.303 -0.1038 -0.0484 -0.3861
  297loPI   C2B 4750   3.773   1.930   8.935  0.0451  0.2414  0.2592
  297loPI   C3B 4751   3.869   1.638   8.595  0.0830 -0.2055 -0.0313
  297loPI   C4B 4752   3.972   1.414   8.214  0.0154 -0.1567  0.1196
  298loPI    C1 4753   8.670   8.921  10.576 -0.3447  0.1343  0.1161
  298loPI    C2 4754   8.559   8.657  10.855 -0.4065  0.0735  0.0344
  298loPI    C3 4755   8.808   8.955  10.950 -0.2004 -0.1126  0.0876
  298loPI   PO4 4756   8.747   8.759  10.390 -0.1128  0.1049 -0.1528
  298loPI   GL1 4757   8.843   8.760  10.003  0.2688 -0.2283  0.0665
  298loPI   GL2 4758   8.601   8.899   9.802 -0.0647  0.0765  0.1568
  298loPI   C1A 4759   8.702   8.367   9.673  0.0941  0.1943  0.0632
  298loPI   C2A 4760   8.825   8.291   9.279  0.0560 -0.0275 -0.0887
  298loPI   C3A 4761   8.991   8.300   8.897 -0.0660  0.0283 -0.1294
  298loPI   C4A 4762   9.340   8.453   8.649  0.0680  0.2087 -0.0004
  298loPI   C5A 4763   9.681   8.516   8.312 -0.0220  0.0785 -0.1076
  298loPI   C6A 4764   9.497   8.547   7.944 -0.1828  0.3174  0.1664
  298loPI   C1B 4765   8.481   8.743   9.436  0.1949 -0.1604  0.0410
  298loPI   C2B 4766   8.503   8.693   9.076  0.2258 -0.0078 -0.0958
  298loPI   C3B 4767   8.398   8.489   8.704  0.1699 -0.1056  0.0838
  298loPI   C4B 4768   8.238   8.325   8.257 -0.0431 -0.2641 -0.0387
  299loPI    C1 4769   1.724  10.714  10.415  0.0509  0.0955  0.2109
  299loPI    C2 4770   1.688  10.355  10.243  0.1758  0.1974 -0.0320
  299loPI    C3 4771   1.792  10.382  10.628  0.1471 -0.0268 -0.0071
  299loPI   PO4 4772   1.838  10.868  10.190  0.0616  0.1444  0.2752
  299loPI   GL1 4773   1.577  11.192   9.844  0.2144  0.0438 -0.2491
  299loPI   GL2 4774   1.963  11.030   9.748 -0.1612  0.0179  0.0349
  299loPI   C1A 4775   1.683  11.337   9.494 -0.1655  0.1015  0.1778
  299loPI   C2A 4776   1.801  11.372   9.118  0.0004  0.0272 -0.3073
  299loPI   C3A 4777   1.777  11.622   8.863  0.1243 -0.2724  0.0711
  299loPI   C4A 4778   1.798  11.831   8.506 -0.2073 -0.0670  0.1335
  299loPI   C5A 4779   2.049  11.709   8.115  0.1798 -0.0618 -0.0810
  299loPI   C6A 4780   1.968  11.355   7.779  0.1509 -0.0813  0.2081
  299loPI   C1B 4781   2.044  10.936   9.249  0.0541  0.0110 -0.1180
  299loPI   C2B 4782   1.998  10.993   8.804 -0.0977 -0.1031  0.0555
  299loPI   C3B 4783   1.907  11.246   8.503  0.0279  0.3143  0.3665
  299loPI   C4B 4784   1.592  11.401   8.298 -0.0392 -0.1047  0.0426
  300loPI    C1 4785   1.452  12.806  10.528  0.1024 -0.0845  0.0274
  300loPI    C2 4786   1.784  12.583  10.538  0.0931 -0.0958  0.0847
  300loPI    C3 4787   1.450  12.453  10.716  0.0202 -0.1453 -0.0869
  300loPI   PO4 4788   1.408  12.883  10.271  0.0304  0.4771 -0.3824
  300loPI   GL1 4789   1.282  12.920   9.844  0.2613  0.0653 -0.1787
  300loPI   GL2 4790   1.062  12.751   9.821 -0.0826  0.0822 -0.0753
  300loPI   C1A 4791   1.496  12.864   9.551  0.2074 -0.2855  0.0306
  300loPI   C2A 4792   1.464  12.882   9.084  0.1107  0.2212 -0.2394
  300loPI   C3A 4793   1.361  12.811   8.693  0.0817  0.4030 -0.4397
  300loPI   C4A 4794   1.220  12.536   8.317 -0.3365  0.2243  0.0216
  300loPI   C5A 4795   0.833  12.504   7.942  0.4086  0.0885 -0.2217
  300loPI   C6A 4796   0.745  12.725   7.614  0.1899  0.3722  0.2464
  300loPI   C1B 4797   1.035  12.894   9.350  0.0478  0.0719  0.1237
  300loPI   C2B 4798   0.855  12.933   8.948  0.0311 -0.0620 -0.2749
  300loPI   C3B 4799   0.745  12.867   8.514  0.0134 -0.1932 -0.0025
  300loPI   C4B 4800   0.505  12.828   8.121 -0.1264  0.2179 -0.1429
  301loPI    C1 4801  11.899   9.591  10.414  0.2707 -0.0001  0.1326
  301loPI    C2 4802  11.981   9.980  10.452  0.0342  0.0410  0.2370
  301loPI    C3 4803  11.962   9.747  10.776  0.2087 -0.0654  0.1719
  301loPI   PO4 4804  12.066   9.565  10.163 -0.1544 -0.1316 -0.1567
  301loPI   GL1 4805  11.892   9.878   9.875  0.0434  0.0864 -0.0139
  301loPI   GL2 4806  12.061  10.189   9.852  0.2277  0.4297  0.0445
  301loPI   C1A 4807  11.678   9.857   9.538 -0.2525 -0.0992 -0.3256
  301loPI   C2A 4808  11.494  10.135   9.165  0.2491  0.3317  0.0535
  301loPI   C3A 4809  11.585  10.502   8.812 -0.0411  0.1111  0.0482
  301loPI   C4A 4810  11.483  10.531   8.385  0.0933  0.2104  0.3019
  301loPI   C5A 4811  11.744  10.543   8.036  0.1893  0.3731 -0.2702
  301loPI   C6A 4812  12.202  10.815   7.938 -0.3264  0.1929  0.2436
  301loPI   C1B 4813  12.125  10.158   9.461 -0.0555  0.1173  0.0614
  301loPI   C2B 4814  11.919  10.172   8.996  0.1497  0.0203  0.0240
  301loPI   C3B 4815  11.780  10.136   8.539 -0.2433 -0.1639  0.2054
  301loPI   C4B 4816  11.594  10.059   8.194  0.2939  0.0566 -0.0085
  302loPI    C1 4817   8.385  15.325  10.761 -0.0403 -0.0271 -0.1198
  302loPI    C2 4818   8.418  15.461  11.135 -0.1339 -0.1429 -0.0690
  302loPI    C3 4819   8.114  15.221  11.035 -0.1905  0.0040 -0.2550
  302loPI   PO4 4820   8.402  15.481  10.562  0.0757 -0.0765 -0.2376
  302loPI   GL1 4821   8.616  15.592  10.169 -0.1735  0.1893  0.0720
  302loPI   GL2 4822   8.607  15.934  10.217  0.1517  0.1463 -0.0956
  302loPI   C1A 4823   8.445  15.507   9.813 -0.1717 -0.2432 -0.1875
  302loPI   C2A 4824   8.286  15.702   9.534 -0.3134  0.0672  0.1807
  302loPI   C3A 4825   8.265  15.637   9.137  0.0167 -0.0449 -0.2198
  302loPI   C4A 4826   8.281  15.748   8.757  0.0555  0.0287  0.2543
  302loPI   C5A 4827   8.381  15.691   8.351 -0.2355  0.3776  0.0317
  302loPI   C6A 4828   8.328  15.833   7.997  0.0209  0.1313  0.0011
  302loPI   C1B 4829   8.713  15.891   9.824 -0.0017  0.0885 -0.0361
  302loPI   C2B 4830   8.697  15.899   9.373 -0.1302 -0.0342  0.0843
  302loPI   C3B 4831   8.819  15.975   8.970  0.0136 -0.1437 -0.1264
  302loPI   C4B 4832   8.789  15.909   8.562 -0.0661  0.3218  0.2246
  303loPI    C1 4833   9.727   2.793  10.564  0.1453 -0.2528 -0.2365
  303loPI    C2 4834   9.829   2.524  10.841 -0.2223 -0.2386 -0.0816
  303loPI    C3 4835   9.799   2.910  10.939  0.2503 -0.1414 -0.2908
  303loPI   PO4 4836   9.512   2.578  10.338 -0.0071 -0.0388  0.1291
  303loPI   GL1 4837   9.381   2.711   9.782  0.1378  0.2105 -0.1440
  303loPI   GL2 4838   9.275   2.914  10.035  0.0698  0.0284 -0.0624
  303loPI   C1A 4839   9.172   2.798   9.489 -0.0639  0.0813  0.3098
  303loPI   C2A 4840   9.078   2.659   9.009  0.1143 -0.1897  0.1080
  303loPI   C3A 4841   9.139   2.664   8.620  0.0000  0.1028  0.2979
  303loPI   C4A 4842   9.304   2.694   8.212 -0.0384  0.0158 -0.0169
  303loPI   C5A 4843   9.408   2.395   7.847  0.0588  0.1905  0.0612
  303loPI   C6A 4844   9.094   2.164   7.707 -0.1432  0.4759 -0.1128
  303loPI   C1B 4845   8.944   3.029   9.876 -0.0358  0.2304  0.2817
  303loPI   C2B 4846   8.743   2.984   9.376 -0.1668 -0.0360  0.2619
  303loPI   C3B 4847   8.659   3.050   8.897  0.0054  0.0842  0.5239
  303loPI   C4B 4848   8.774   2.974   8.480  0.0209 -0.2941 -0.2469
  304loPI    C1 4849  13.222   9.295  10.015  0.0526 -0.2269 -0.0696
  304loPI    C2 4850  13.229   9.554  10.320 -0.3219 -0.1690 -0.1053
  304loPI    C3 4851  13.258   9.162  10.391 -0.1750 -0.1431 -0.0166
  304loPI   PO4 4852  13.392   9.369   9.904 -0.2012 -0.1736 -0.1458
  304loPI   GL1 4853  13.268   9.549   9.509 -0.2205  0.1726  0.0266
  304loPI   GL2 4854  13.079   9.281   9.488 -0.3047 -0.0547  0.1732
  304loPI   C1A 4855  13.100   9.862   9.465  0.1775 -0.0236 -0.0140
  304loPI   C2A 4856  12.911   9.933   8.988  0.0820  0.3710  0.1969
  304loPI   C3A 4857  12.957  10.200   8.617  0.1660  0.0939 -0.0551
  304loPI   C4A 4858  12.930  10.298   8.176  0.1023 -0.1393 -0.0688
  304loPI   C5A 4859  12.735  10.517   7.882 -0.1010  0.0520 -0.1291
  304loPI   C6A 4860  12.444  10.460   7.577  0.1515 -0.0846  0.0864
  304loPI   C1B 4861  13.431   9.215   9.120  0.3297 -0.1633  0.0694
  304loPI   C2B 4862  13.304   9.157   8.722  0.1197 -0.1419  0.3836
  304loPI   C3B 4863  13.390   8.932   8.367  0.1738  0.3387  0.0570
  304loPI   C4B 4864  13.203   8.949   7.944 -0.0776  0.1171 -0.0143
  305loPI    C1 4865   1.938   3.077  10.283 -0.0453 -0.1632 -0.0403
  305loPI    C2 4866   1.589   2.954  10.434 -0.1252 -0.0778 -0.1538
  305loPI    C3 4867   1.757   3.292  10.567 -0.0751 -0.1295 -0.0848
  305loPI   PO4 4868   1.906   3.034   9.999  0.1106  0.0993  0.1373
  305loPI   GL1 4869   1.855   2.801   9.656 -0.3478  0.1944 -0.1996
  305loPI   GL2 4870   1.996   2.453   9.681  0.0575  0.1222  0.2419
  305loPI   C1A 4871   1.893   2.855   9.236 -0.1203  0.0182  0.1025
  305loPI   C2A 4872   1.863   2.929   8.838 -0.1034 -0.0186  0.1739
  305loPI   C3A 4873   1.816   2.669   8.428 -0.3428 -0.1040 -0.0709
  305loPI   C4A 4874   1.658   2.577   8.057  0.0903 -0.2863 -0.2361
  305loPI   C5A 4875   1.574   2.234   7.954  0.1558  0.4641  0.0709
  305loPI   C6A 4876   1.491   1.805   8.108 -0.1874  0.0473  0.1931
  305loPI   C1B 4877   2.126   2.324   9.186  0.1630 -0.0151 -0.2620
  305loPI   C2B 4878   2.114   2.324   8.692  0.2180  0.3154 -0.0725
  305loPI   C3B 4879   2.535   2.323   8.440 -0.4391 -0.3679 -0.1066
  305loPI   C4B 4880   2.809   2.150   8.080 -0.0855 -0.4792  0.1420
  306loPI    C1 4881   2.373   6.756  10.144  0.1151 -0.2184  0.0962
  306loPI    C2 4882   2.040   6.537  10.178  0.0398 -0.1026  0.1089
  306loPI    C3 4883   2.093   6.857  10.412  0.1211 -0.0708  0.0475
  306loPI   PO4 4884   2.424   6.748   9.905 -0.0872 -0.1013 -0.3641
  306loPI   GL1 4885   2.669   6.879   9.537  0.0808 -0.2170 -0.0053
  306loPI   GL2 4886   2.915   6.893   9.599 -0.3600 -0.1057 -0.1620
  306loPI   C1A 4887   2.372   6.879   9.249 -0.1607  0.2381 -0.3123
  306loPI   C2A 4888   2.463   6.838   8.859 -0.1655  0.1254 -0.1985
  306loPI   C3A 4889   2.514   6.557   8.555  0.0977 -0.2161  0.1364
  306loPI   C4A 4890   2.534   6.237   8.228 -0.0388 -0.0990  0.2329
  306loPI   C5A 4891   2.775   6.349   7.931 -0.0208  0.2609  0.0610
  306loPI   C6A 4892   2.929   6.168   7.551  0.2632  0.3709  0.0529
  306loPI   C1B 4893   2.820   6.569   9.200  0.1442  0.1390  0.3015
  306loPI   C2B 4894   2.875   6.429   8.847 -0.2301 -0.0019 -0.0693
  306loPI   C3B 4895   3.168   6.553   8.511  0.0929  0.1722  0.2594
  306loPI   C4B 4896   3.233   6.552   8.020 -0.1943  0.1425 -0.1079
  307loPI    C1 4897  12.653  17.941  10.848 -0.0533 -0.1993 -0.0935
  307loPI    C2 4898  12.462  17.698  11.103  0.0507 -0.1269  0.0551
  307loPI    C3 4899  12.385  18.091  11.105 -0.0205 -0.1394 -0.0940
  307loPI   PO4 4900  12.674  17.759  10.595 -0.3805  0.0045 -0.0939
  307loPI   GL1 4901  12.719  17.901  10.207  0.1719  0.0300 -0.1000
  307loPI   GL2 4902  12.623  17.765   9.968 -0.1087 -0.2363  0.0870
  307loPI   C1A 4903  13.100  17.928   9.874  0.1081 -0.0163 -0.0814
  307loPI   C2A 4904  13.011  17.829   9.463 -0.1251  0.3194  0.2528
  307loPI   C3A 4905  13.238  17.876   9.093 -0.1604 -0.2512  0.0155
  307loPI   C4A 4906  13.169  18.151   8.737  0.0213  0.1512  0.1471
  307loPI   C5A 4907  13.214  18.189   8.377  0.0598 -0.0850  0.1508
  307loPI   C6A 4908  12.825  18.354   8.204 -0.2325  0.1318  0.1454
  307loPI   C1B 4909  12.250  17.733   9.795  0.0345  0.1978 -0.1837
  307loPI   C2B 4910  12.084  17.808   9.346 -0.1323  0.1224  0.1546
  307loPI   C3B 4911  11.929  17.860   8.899  0.0621 -0.0276 -0.0283
  307loPI   C4B 4912  11.937  17.910   8.458  0.2331  0.2545  0.0321
  308loPI    C1 4913  14.188   9.047  10.160  0.0278 -0.0491 -0.0237
  308loPI    C2 4914  14.186   9.310  10.461  0.1548  0.2540 -0.2818
  308loPI    C3 4915  14.531   9.151  10.337  0.0430 -0.3260  0.1140
  308loPI   PO4 4916  14.105   9.213   9.972  0.1155 -0.0582  0.1914
  308loPI   GL1 4917  13.878   9.212   9.668  0.0390 -0.0466 -0.3367
  308loPI   GL2 4918  13.713   8.941   9.564 -0.0705  0.0632 -0.2224
  308loPI   C1A 4919  13.940   9.225   9.213 -0.2351  0.2619  0.0748
  308loPI   C2A 4920  13.840   9.156   8.809  0.0247  0.1265  0.0336
  308loPI   C3A 4921  13.858   9.073   8.377 -0.1926 -0.0193 -0.1924
  308loPI   C4A 4922  13.804   8.803   7.994 -0.1597  0.0819  0.1554
  308loPI   C5A 4923  13.549   8.649   7.794  0.3182 -0.2651  0.2710
  308loPI   C6A 4924  13.106   8.540   7.678  0.0694 -0.0329  0.1625
  308loPI   C1B 4925  13.625   8.788   9.265 -0.0628 -0.1536 -0.3187
  308loPI   C2B 4926  13.494   8.714   8.847 -0.2878  0.1572  0.1638
  308loPI   C3B 4927  13.742   8.560   8.579  0.0581 -0.0150 -0.0851
  308loPI   C4B 4928  14.069   8.398   8.490  0.0190  0.2968 -0.3622
  309loPI    C1 4929  16.676  11.583  10.261  0.0032  0.2092 -0.0545
  309loPI    C2 4930  16.682  11.183  10.241 -0.0972  0.2158 -0.2398
  309loPI    C3 4931  16.960  11.377  10.454 -0.3164  0.0269  0.2319
  309loPI   PO4 4932  16.680  11.715  10.001  0.0078 -0.1939  0.0727
  309loPI   GL1 4933  16.793  11.723   9.575 -0.0032  0.1378  0.1675
  309loPI   GL2 4934  16.483  11.975   9.574 -0.1927 -0.2787 -0.0197
  309loPI   C1A 4935  16.526  11.421   9.460 -0.1554  0.3489  0.4610
  309loPI   C2A 4936  16.627  11.376   9.052  0.4170  0.1767 -0.1352
  309loPI   C3A 4937  16.598  11.524   8.560  0.1118  0.1764 -0.0537
  309loPI   C4A 4938  16.735  11.458   8.143 -0.1091  0.0291 -0.0078
  309loPI   C5A 4939  16.592  11.374   7.715  0.1901  0.1263  0.2847
  309loPI   C6A 4940  16.648  11.245   7.305 -0.4279  0.0473 -0.1124
  309loPI   C1B 4941  16.571  11.873   9.087  0.1376  0.0415  0.2973
  309loPI   C2B 4942  16.790  11.967   8.751  0.2092  0.2284  0.1000
  309loPI   C3B 4943  16.857  12.002   8.346 -0.1376 -0.0753 -0.1313
  309loPI   C4B 4944  17.105  11.799   8.130 -0.2051  0.1837  0.2769
  310loPI    C1 4945   4.592  11.972  10.462 -0.1134  0.0318 -0.0012
  310loPI    C2 4946   4.323  11.830  10.721  0.0723 -0.1739  0.0816
  310loPI    C3 4947   4.704  11.875  10.833  0.0698  0.1406 -0.0270
  310loPI   PO4 4948   4.426  12.156  10.254 -0.2155 -0.1845  0.4311
  310loPI   GL1 4949   4.298  12.074   9.766  0.2508 -0.3099 -0.0266
  310loPI   GL2 4950   4.036  12.195   9.809 -0.0905  0.4061 -0.1071
  310loPI   C1A 4951   4.612  12.205   9.492  0.0344  0.2315  0.1360
  310loPI   C2A 4952   4.723  12.377   9.087  0.4528 -0.0351 -0.0199
  310loPI   C3A 4953   4.507  12.480   8.712  0.2686 -0.0557 -0.0456
  310loPI   C4A 4954   4.744  12.485   8.372  0.0217 -0.0817 -0.1385
  310loPI   C5A 4955   4.904  12.383   8.024  0.0663  0.0843 -0.0067
  310loPI   C6A 4956   5.303  12.347   7.730 -0.2553  0.3873 -0.0095
  310loPI   C1B 4957   3.791  12.265   9.374  0.2291  0.1997  0.3871
  310loPI   C2B 4958   3.743  12.240   8.933 -0.0766 -0.0285  0.2842
  310loPI   C3B 4959   3.767  12.101   8.483  0.0731 -0.1294  0.0564
  310loPI   C4B 4960   3.859  12.213   8.030 -0.0441  0.1860 -0.0053
  311loPI    C1 4961   5.494   7.291  10.220 -0.1266  0.0383 -0.0022
  311loPI    C2 4962   5.491   7.050  10.539  0.0044  0.0024 -0.0275
  311loPI    C3 4963   5.198   7.027  10.268 -0.2209  0.1780  0.1973
  311loPI   PO4 4964   5.795   7.309  10.109 -0.0067 -0.2300  0.3970
  311loPI   GL1 4965   5.936   7.427   9.703  0.0643 -0.0044 -0.1382
  311loPI   GL2 4966   6.253   7.318   9.533 -0.1881  0.2165 -0.1684
  311loPI   C1A 4967   5.969   7.621   9.310  0.1587 -0.0012 -0.2047
  311loPI   C2A 4968   5.910   7.766   8.819  0.1106 -0.0452  0.2858
  311loPI   C3A 4969   6.162   7.663   8.426 -0.0111  0.0933  0.0129
  311loPI   C4A 4970   6.517   7.574   8.069 -0.2273  0.1505  0.1268
  311loPI   C5A 4971   6.968   7.530   7.948  0.1834  0.5788 -0.0593
  311loPI   C6A 4972   7.347   7.755   7.919  0.1747 -0.0413  0.1142
  311loPI   C1B 4973   6.233   7.206   9.190 -0.3223  0.1697  0.1974
  311loPI   C2B 4974   6.114   7.251   8.760  0.1645  0.0507  0.0299
  311loPI   C3B 4975   5.853   7.227   8.317 -0.3028 -0.0165 -0.1264
  311loPI   C4B 4976   5.912   7.419   7.948  0.1971 -0.3545  0.1708
  312loPI    C1 4977  14.588   5.449  10.308  0.0693  0.1829 -0.0123
  312loPI    C2 4978  14.810   5.169  10.487 -0.2603  0.1246  0.3190
  312loPI    C3 4979  14.773   5.531  10.652  0.0345  0.3188 -0.0254
  312loPI   PO4 4980  14.605   5.402  10.075 -0.0505  0.0570 -0.0030
  312loPI   GL1 4981  14.806   5.557   9.619 -0.3171  0.0295  0.0275
  312loPI   GL2 4982  14.673   5.959   9.613  0.5152  0.3523  0.0443
  312loPI   C1A 4983  14.651   5.554   9.186  0.0723 -0.0130 -0.0261
  312loPI   C2A 4984  14.715   5.423   8.789  0.1745 -0.0642 -0.0582
  312loPI   C3A 4985  14.527   5.451   8.391 -0.4647  0.2008  0.2607
  312loPI   C4A 4986  14.313   5.419   7.918 -0.0778 -0.1183 -0.3065
  312loPI   C5A 4987  14.367   5.641   7.589 -0.0175  0.0294  0.3680
  312loPI   C6A 4988  14.618   5.750   7.323  0.2543  0.0821  0.1882
  312loPI   C1B 4989  14.581   6.049   9.188  0.0441 -0.1234 -0.0193
  312loPI   C2B 4990  14.797   5.893   8.823  0.1908 -0.2271  0.3894
  312loPI   C3B 4991  14.731   5.943   8.341 -0.0291  0.1203 -0.3417
  312loPI   C4B 4992  14.600   5.884   8.003 -0.1198  0.0143 -0.0726
  313loPI    C1 4993  13.236  13.121  10.493 -0.2055 -0.0913 -0.0259
  313loPI    C2 4994  13.217  13.471  10.300 -0.0656 -0.1807 -0.2050
  313loPI    C3 4995  13.069  13.438  10.671  0.1765  0.1434 -0.0745
  313loPI   PO4 4996  13.080  12.875  10.299 -0.2262 -0.0716  0.0373
  313loPI   GL1 4997  13.291  12.725   9.905 -0.1612 -0.4199  0.0573
  313loPI   GL2 4998  13.604  12.752   9.736  0.0334 -0.1933 -0.0089
  313loPI   C1A 4999  13.246  13.014   9.522  0.0052  0.1430 -0.2194
  313loPI   C2A 5000  13.384  13.128   9.130  0.2115 -0.0236 -0.0138
  313loPI   C3A 5001  13.501  13.185   8.680  0.0576  0.2560  0.0458
  313loPI   C4A 5002  13.679  13.359   8.354 -0.3892  0.0547 -0.0659
  313loPI   C5A 5003  13.865  13.622   8.141 -0.0887  0.2168  0.0673
  313loPI   C6A 5004  13.602  14.063   8.054 -0.0736  0.2016 -0.1980
  313loPI   C1B 5005  13.549  12.667   9.281 -0.0385 -0.4534  0.0104
  313loPI   C2B 5006  13.516  12.649   8.798 -0.1858  0.0059  0.1910
  313loPI   C3B 5007  13.317  12.671   8.355 -0.0107  0.2408 -0.2717
  313loPI   C4B 5008  13.077  12.620   7.974  0.0512 -0.0398 -0.3694
  314loPI    C1 5009  10.687  11.045  10.492  0.1573 -0.0422  0.2430
  314loPI    C2 5010  10.727  11.340  10.760 -0.0892  0.0864  0.1422
  314loPI    C3 5011  10.621  10.973  10.880  0.2823  0.0183  0.2760
  314loPI   PO4 5012  10.851  10.972  10.385 -0.0682 -0.0828 -0.3738
  314loPI   GL1 5013  11.089  11.156  10.028  0.0821  0.0580 -0.2631
  314loPI   GL2 5014  10.759  11.279  10.032  0.1985  0.0599  0.1375
  314loPI   C1A 5015  11.107  11.436   9.677 -0.1730  0.0829  0.1580
  314loPI   C2A 5016  10.861  11.555   9.321 -0.0754  0.4068  0.0559
  314loPI   C3A 5017  10.861  11.418   8.961 -0.3351  0.0004 -0.2231
  314loPI   C4A 5018  10.808  11.340   8.615 -0.2000  0.3369 -0.0584
  314loPI   C5A 5019  10.634  11.138   8.258 -0.1514  0.1523 -0.0933
  314loPI   C6A 5020  10.549  11.301   7.869  0.0296 -0.0015  0.4261
  314loPI   C1B 5021  10.601  11.235   9.656 -0.0814 -0.0489  0.0647
  314loPI   C2B 5022  10.446  11.249   9.162  0.1158 -0.1566 -0.0825
  314loPI   C3B 5023  10.336  11.420   8.739 -0.2293  0.0775  0.0595
  314loPI   C4B 5024  10.329  11.556   8.352 -0.3065  0.1215 -0.1921
  315loPI    C1 5025  11.989  10.506  10.625  0.4360  0.0993 -0.0390
  315loPI    C2 5026  11.853  10.881  10.591  0.2616  0.0351 -0.0624
  315loPI    C3 5027  11.950  10.735  10.950 -0.1518 -0.0602  0.0157
  315loPI   PO4 5028  11.700  10.389  10.358 -0.1206 -0.1499 -0.2343
  315loPI   GL1 5029  11.595  10.306   9.982  0.0542  0.2938 -0.1089
  315loPI   GL2 5030  11.330  10.110   9.821  0.2750 -0.1593  0.1479
  315loPI   C1A 5031  11.683  10.400   9.566  0.0283 -0.1768 -0.0602
  315loPI   C2A 5032  11.541  10.680   9.235 -0.0493 -0.3765  0.0815
  315loPI   C3A 5033  11.697  10.999   8.920  0.0085 -0.0635 -0.0762
  315loPI   C4A 5034  11.724  10.990   8.398 -0.0859 -0.2685  0.1984
  315loPI   C5A 5035  11.670  11.122   7.934 -0.0114  0.2755  0.2553
  315loPI   C6A 5036  11.817  11.165   7.551 -0.1508  0.2347 -0.4108
  315loPI   C1B 5037  11.161   9.824   9.392  0.0421  0.1415 -0.1261
  315loPI   C2B 5038  11.167   9.803   8.926 -0.1824  0.1174 -0.1787
  315loPI   C3B 5039  11.239  10.044   8.599 -0.1357 -0.1097  0.1235
  315loPI   C4B 5040  11.124  10.226   8.144  0.3182 -0.1876 -0.1818
  316loPI    C1 5041   2.085   8.433  10.330 -0.0082 -0.0978  0.0432
  316loPI    C2 5042   2.066   8.675  10.647 -0.0104  0.2510 -0.2176
  316loPI    C3 5043   2.421   8.560  10.505 -0.0107  0.0063 -0.0267
  316loPI   PO4 5044   2.022   8.535  10.097 -0.1833  0.1028  0.0447
  316loPI   GL1 5045   2.157   8.195   9.748  0.1194  0.1450 -0.1976
  316loPI   GL2 5046   1.912   8.123   9.631  0.1171 -0.2614  0.1491
  316loPI   C1A 5047   2.323   8.045   9.338 -0.3275 -0.1249 -0.0889
  316loPI   C2A 5048   2.548   7.748   9.146  0.0362  0.0683 -0.3941
  316loPI   C3A 5049   2.618   7.824   8.697  0.0685 -0.0950  0.2824
  316loPI   C4A 5050   2.464   7.645   8.322 -0.0194 -0.1045  0.0390
  316loPI   C5A 5051   2.541   7.743   7.862  0.0188 -0.1907 -0.1664
  316loPI   C6A 5052   2.504   7.935   7.444 -0.1290  0.0374 -0.1589
  316loPI   C1B 5053   1.884   8.332   9.150  0.1651  0.0470 -0.0617
  316loPI   C2B 5054   1.874   8.441   8.738  0.0656  0.1793  0.2175
  316loPI   C3B 5055   1.658   8.354   8.367 -0.0723  0.1052  0.1279
  316loPI   C4B 5056   1.882   8.043   7.987  0.1660  0.0650  0.0674
  317loPI    C1 5057  17.364  17.837  11.088 -0.3172 -0.3070 -0.2999
  317loPI    C2 5058  17.351  18.234  11.035  0.0434 -0.1998  0.3154
  317loPI    C3 5059  17.049  18.046  11.219 -0.1032 -0.2075  0.0714
  317loPI   PO4 5060  17.565  17.747  10.888  0.0511  0.3943 -0.2258
  317loPI   GL1 5061  17.818  17.733  10.577 -0.1463 -0.0492 -0.0375
  317loPI   GL2 5062  17.947  18.017  10.437  0.2019 -0.0945  0.0339
  317loPI   C1A 5063  18.000  17.522  10.103 -0.1342 -0.0032 -0.0639
  317loPI   C2A 5064  18.163  17.633   9.704  0.0622  0.1329  0.1447
  317loPI   C3A 5065  18.129  17.696   9.249 -0.1901  0.0291 -0.1671
  317loPI   C4A 5066  18.140  17.826   8.845 -0.0303  0.0883 -0.5160
  317loPI   C5A 5067  18.522  17.828   8.389  0.1591 -0.3547 -0.0443
  317loPI   C6A 5068  18.916  17.912   8.168  0.0758  0.0585 -0.0250
  317loPI   C1B 5069  17.669  17.947  10.155 -0.3892 -0.1213 -0.1852
  317loPI   C2B 5070  17.415  17.750   9.870  0.2582  0.1028 -0.1122
  317loPI   C3B 5071  17.311  17.529   9.594  0.0212 -0.0283  0.1706
  317loPI   C4B 5072  17.314  17.096   9.561 -0.0728 -0.2338 -0.4962
  318loPI    C1 5073  14.375   0.467  10.499  0.1789  0.1370 -0.0866
  318loPI    C2 5074  14.772   0.416  10.477  0.1470 -0.0951 -0.1548
  318loPI    C3 5075  14.533   0.103  10.548 -0.0072  0.0857  0.1475
  318loPI   PO4 5076  14.306   0.755  10.305 -0.0649 -0.0306  0.1588
  318loPI   GL1 5077  14.420   0.898  10.010  0.0356 -0.0111  0.2555
  318loPI   GL2 5078  14.553   1.247  10.043 -0.1230  0.0366  0.0079
  318loPI   C1A 5079  14.595   0.827   9.555 -0.0315 -0.2892  0.4259
  318loPI   C2A 5080  14.763   0.820   9.127 -0.0574  0.1420 -0.3152
  318loPI   C3A 5081  15.020   0.827   8.877  0.2221  0.0065 -0.1109
  318loPI   C4A 5082  15.141   0.887   8.490 -0.2834  0.1800 -0.0789
  318loPI   C5A 5083  15.542   1.038   8.285 -0.3400  0.0390  0.0671
  318loPI   C6A 5084  15.854   1.119   7.912  0.3424 -0.1808  0.1211
  318loPI   C1B 5085  14.692   1.280   9.567 -0.2052 -0.1241 -0.0159
  318loPI   C2B 5086  14.815   1.359   9.136 -0.3453 -0.3611  0.2338
  318loPI   C3B 5087  15.023   1.325   8.771 -0.1373 -0.1829  0.1770
  318loPI   C4B 5088  14.977   1.301   8.289 -0.1562 -0.4310 -0.0969
  319loPI    C1 5089   2.513   1.356  10.690 -0.2179  0.2032 -0.1931
  319loPI    C2 5090   2.617   1.659  10.929  0.0857 -0.1040  0.0757
  319loPI    C3 5091   2.899   1.447  10.742 -0.1395 -0.0061 -0.3907
  319loPI   PO4 5092   2.241   1.515  10.577 -0.0017  0.0710  0.2111
  319loPI   GL1 5093   2.097   1.307  10.300 -0.0651 -0.2765 -0.1174
  319loPI   GL2 5094   1.842   1.480  10.100 -0.1797 -0.0907  0.1489
  319loPI   C1A 5095   2.324   1.213   9.818  0.1321 -0.2071 -0.2286
  319loPI   C2A 5096   2.320   1.371   9.414 -0.1110  0.2046 -0.0571
  319loPI   C3A 5097   2.336   1.467   9.023 -0.2918 -0.0510  0.1364
  319loPI   C4A 5098   2.297   1.704   8.627  0.0549 -0.2306 -0.0711
  319loPI   C5A 5099   2.505   1.732   8.272  0.1578 -0.1153 -0.1150
  319loPI   C6A 5100   2.392   1.973   7.894 -0.0385  0.4731 -0.4662
  319loPI   C1B 5101   1.903   1.472   9.745  0.1161 -0.3480  0.0519
  319loPI   C2B 5102   1.822   1.508   9.376 -0.0373  0.1258 -0.1149
  319loPI   C3B 5103   1.805   1.350   8.928  0.1574 -0.2455  0.0072
  319loPI   C4B 5104   2.109   1.232   8.517 -0.2406 -0.2215 -0.0541
  320loPI    C1 5105   9.197   3.919  10.578 -0.0672  0.0450  0.0729
  320loPI    C2 5106   9.440   3.832  10.884 -0.0774  0.1465  0.1105
  320loPI    C3 5107   9.132   4.081  10.938 -0.1847  0.0255  0.0606
  320loPI   PO4 5108   9.302   3.689  10.356  0.0841  0.0507 -0.0036
  320loPI   GL1 5109   9.287   3.440  10.004 -0.0376 -0.3883  0.0166
  320loPI   GL2 5110   9.349   3.770   9.865 -0.3076 -0.1947  0.3708
  320loPI   C1A 5111   9.279   3.287   9.490  0.1578 -0.3557  0.0451
  320loPI   C2A 5112   9.237   3.166   9.033 -0.1002 -0.0899 -0.0162
  320loPI   C3A 5113   9.111   3.353   8.580 -0.1389  0.0348  0.0081
  320loPI   C4A 5114   9.349   3.415   8.203  0.3120  0.2089  0.2788
  320loPI   C5A 5115   9.552   3.563   7.869 -0.2294 -0.0337  0.2419
  320loPI   C6A 5116   9.806   3.828   7.549  0.2446 -0.1932  0.1246
  320loPI   C1B 5117   9.284   3.771   9.432 -0.1690 -0.1271  0.1773
  320loPI   C2B 5118   9.220   3.751   8.998  0.1712 -0.1834  0.1962
  320loPI   C3B 5119   9.477   3.618   8.689 -0.0402  0.1439 -0.3316
  320loPI   C4B 5120   9.580   3.175   8.690  0.1179 -0.1440 -0.3169
  321loPI    C1 5121  11.477  17.821  10.535  0.1330 -0.0192  0.1539
  321loPI    C2 5122  11.609  18.101  10.789 -0.1434  0.0908  0.1791
  321loPI    C3 5123  11.287  18.172  10.562 -0.0056 -0.0751 -0.0728
  321loPI   PO4 5124  11.720  17.717  10.431 -0.1715 -0.2041  0.2142
  321loPI   GL1 5125  12.131  17.303  10.264 -0.0342  0.0565 -0.4202
  321loPI   GL2 5126  12.504  17.401  10.328 -0.0146 -0.1787  0.1924
  321loPI   C1A 5127  11.935  17.157   9.859 -0.2802 -0.1476 -0.0662
  321loPI   C2A 5128  12.021  17.013   9.401  0.1087  0.0194 -0.3159
  321loPI   C3A 5129  12.192  16.992   9.003 -0.5516  0.2204  0.1892
  321loPI   C4A 5130  12.204  16.892   8.499 -0.1125 -0.1548  0.1673
  321loPI   C5A 5131  12.148  16.679   8.105 -0.6438  0.2316  0.4186
  321loPI   C6A 5132  12.095  16.451   7.775 -0.1697 -0.1453 -0.4016
  321loPI   C1B 5133  12.501  17.292   9.875  0.2056  0.0282 -0.0785
  321loPI   C2B 5134  12.344  17.390   9.460  0.2430 -0.1842  0.0160
  321loPI   C3B 5135  12.366  17.482   9.065  0.2239  0.0323 -0.0300
  321loPI   C4B 5136  12.348  17.736   8.675  0.0234 -0.2865 -0.2773
  322loPI    C1 5137   6.357   2.906   9.911  0.2023 -0.3334 -0.1284
  322loPI    C2 5138   6.391   2.733  10.270 -0.1191  0.1161  0.1295
  322loPI    C3 5139   6.634   3.034  10.169 -0.0544  0.0159 -0.0165
  322loPI   PO4 5140   6.085   2.907   9.848  0.0398 -0.0237 -0.4626
  322loPI   GL1 5141   5.720   2.654   9.681  0.2243 -0.2318  0.0201
  322loPI   GL2 5142   5.683   2.898   9.540  0.0430 -0.1149  0.1517
  322loPI   C1A 5143   5.678   2.330   9.442  0.0362 -0.1325 -0.0447
  322loPI   C2A 5144   5.696   2.123   9.042 -0.1070 -0.0774  0.0920
  322loPI   C3A 5145   5.866   2.095   8.624  0.2222 -0.1746  0.0394
  322loPI   C4A 5146   6.190   2.038   8.272 -0.1580  0.0097  0.0648
  322loPI   C5A 5147   6.025   2.222   7.864  0.1782  0.1482 -0.0360
  322loPI   C6A 5148   5.733   2.256   7.539  0.1545  0.0700  0.0436
  322loPI   C1B 5149   5.850   2.829   9.192  0.2855 -0.2034 -0.0572
  322loPI   C2B 5150   5.938   2.831   8.723 -0.0291 -0.0629 -0.0982
  322loPI   C3B 5151   6.288   2.967   8.360 -0.1148  0.0392  0.0300
  322loPI   C4B 5152   6.505   2.751   7.981  0.1815 -0.3191  0.1861
  323loPI    C1 5153  11.783   7.860  10.227 -0.0998  0.0303 -0.0517
  323loPI    C2 5154  11.458   7.786  10.448 -0.0662  0.1842  0.0506
  323loPI    C3 5155  11.822   7.768  10.615 -0.0186 -0.0192 -0.0712
  323loPI   PO4 5156  11.707   8.108  10.073 -0.0079 -0.0058 -0.0872
  323loPI   GL1 5157  11.615   8.162   9.626  0.2121 -0.0054 -0.1053
  323loPI   GL2 5158  11.374   8.071   9.557 -0.2228 -0.1890  0.0202
  323loPI   C1A 5159  11.335   8.513   9.438 -0.0584 -0.2011  0.0443
  323loPI   C2A 5160  11.353   8.568   8.929  0.2052 -0.1189 -0.3410
  323loPI   C3A 5161  11.210   8.471   8.603 -0.0429  0.1799 -0.1555
  323loPI   C4A 5162  11.348   8.399   8.229 -0.0817  0.1260  0.0177
  323loPI   C5A 5163  11.470   8.302   7.837  0.1760 -0.1760  0.1367
  323loPI   C6A 5164  11.758   8.174   7.615 -0.2724  0.1580  0.2525
  323loPI   C1B 5165  11.587   8.173   9.131  0.2214  0.0729 -0.1552
  323loPI   C2B 5166  11.574   8.165   8.730 -0.0412  0.2668  0.1439
  323loPI   C3B 5167  11.538   7.944   8.321 -0.1597  0.2961 -0.2727
  323loPI   C4B 5168  11.411   7.792   7.987 -0.2271 -0.0228 -0.2672
  324loPI    C1 5169  10.556   4.398  10.078  0.0920  0.0213  0.0975
  324loPI    C2 5170  10.339   4.194  10.345  0.1191 -0.0860  0.0384
  324loPI    C3 5171  10.653   4.411  10.466 -0.0417  0.1000  0.1291
  324loPI   PO4 5172  10.398   4.586   9.943  0.0791 -0.0330 -0.2725
  324loPI   GL1 5173  10.135   4.646   9.581 -0.1817 -0.0063 -0.3408
  324loPI   GL2 5174  10.192   4.245   9.666  0.2491 -0.0735  0.2322
  324loPI   C1A 5175  10.095   4.713   9.244  0.0518 -0.1813 -0.0080
  324loPI   C2A 5176  10.017   4.865   8.937  0.1398 -0.0347 -0.0958
  324loPI   C3A 5177  10.257   4.918   8.530  0.0636 -0.1926  0.0566
  324loPI   C4A 5178  10.413   5.121   8.226 -0.2219  0.0960 -0.0987
  324loPI   C5A 5179  10.405   5.056   7.815 -0.1645 -0.1068  0.3140
  324loPI   C6A 5180  10.762   5.095   7.463 -0.1755  0.1447 -0.2155
  324loPI   C1B 5181  10.080   4.223   9.323 -0.2592  0.0632  0.2789
  324loPI   C2B 5182   9.913   4.302   8.885 -0.0526 -0.2066  0.1112
  324loPI   C3B 5183   9.855   4.545   8.450  0.2328 -0.0692 -0.2977
  324loPI   C4B 5184   9.987   4.922   8.082  0.2774  0.1351 -0.0991
  325loPI    C1 5185   1.086  11.177  10.013  0.3082  0.0911 -0.2108
  325loPI    C2 5186   0.801  11.364   9.804  0.0995 -0.1103 -0.1098
  325loPI    C3 5187   1.155  11.540   9.860 -0.0295  0.1744 -0.1736
  325loPI   PO4 5188   1.106  10.978   9.925 -0.0430 -0.2473 -0.3879
  325loPI   GL1 5189   1.095  10.940   9.555 -0.0399  0.0318 -0.1440
  325loPI   GL2 5190   1.027  10.628   9.511  0.1883 -0.1044  0.1548
  325loPI   C1A 5191   1.190  11.152   9.158  0.2121 -0.2055 -0.0555
  325loPI   C2A 5192   1.345  11.202   8.716 -0.1449 -0.0736 -0.1544
  325loPI   C3A 5193   1.248  11.073   8.273  0.1820 -0.1913  0.3469
  325loPI   C4A 5194   1.148  10.890   7.961  0.0702  0.0682 -0.1865
  325loPI   C5A 5195   1.359  10.520   7.789  0.0216  0.2130 -0.1523
  325loPI   C6A 5196   1.728  10.400   7.603  0.2140  0.0213 -0.0151
  325loPI   C1B 5197   1.215  10.600   9.091 -0.1043 -0.0520 -0.3222
  325loPI   C2B 5198   1.042  10.736   8.742  0.2138 -0.0654  0.1861
  325loPI   C3B 5199   0.779  10.496   8.357 -0.2991 -0.1219 -0.1502
  325loPI   C4B 5200   0.648  10.360   8.008  0.0239 -0.0399  0.1427
  326loPI    C1 5201   8.497   1.645  10.599  0.3072  0.1208  0.3955
  326loPI    C2 5202   8.127   1.629  10.446  0.4157  0.1612  0.1227
  326loPI    C3 5203   8.216   1.422  10.777  0.1242  0.2292  0.2468
  326loPI   PO4 5204   8.514   1.904  10.349  0.1802  0.0496 -0.1886
  326loPI   GL1 5205   8.626   2.038   9.979 -0.1207  0.3789  0.0803
  326loPI   GL2 5206   8.451   2.349   9.974 -0.2527 -0.0438  0.2488
  326loPI   C1A 5207   8.591   2.027   9.602  0.0476  0.2000  0.0129
  326loPI   C2A 5208   8.489   1.797   9.205  0.0429 -0.3166 -0.3055
  326loPI   C3A 5209   8.784   1.487   8.997  0.0204  0.2007 -0.0880
  326loPI   C4A 5210   8.687   1.577   8.576  0.2050 -0.1634  0.2125
  326loPI   C5A 5211   8.514   1.627   8.148  0.2602  0.3526  0.1316
  326loPI   C6A 5212   8.569   1.684   7.662 -0.0585  0.2480  0.0902
  326loPI   C1B 5213   8.271   2.374   9.594  0.2375 -0.1021 -0.1499
  326loPI   C2B 5214   8.241   2.164   9.115  0.0855 -0.1121  0.0248
  326loPI   C3B 5215   8.484   2.030   8.712  0.0156  0.3327  0.1722
  326loPI   C4B 5216   8.883   2.063   8.497  0.0640  0.2656  0.1516
  327loPI    C1 5217  12.771   9.420  10.454 -0.0222 -0.1710 -0.0395
  327loPI    C2 5218  12.393   9.506  10.552  0.1063  0.1971  0.1503
  327loPI    C3 5219  12.545   9.146  10.638 -0.1643  0.0871  0.1769
  327loPI   PO4 5220  12.760   9.515  10.144  0.2974 -0.3406  0.2558
  327loPI   GL1 5221  12.769   9.561   9.722 -0.0830 -0.2319 -0.2204
  327loPI   GL2 5222  12.351   9.579   9.764  0.1514  0.1284  0.1090
  327loPI   C1A 5223  12.683   9.561   9.287  0.2634 -0.1872  0.0419
  327loPI   C2A 5224  12.940   9.450   8.955  0.2452  0.1473 -0.2144
  327loPI   C3A 5225  12.908   9.313   8.448 -0.2428 -0.2132 -0.1398
  327loPI   C4A 5226  12.836   9.499   7.998 -0.0738 -0.0261 -0.2008
  327loPI   C5A 5227  12.773   9.602   7.527 -0.2935  0.0922  0.1975
  327loPI   C6A 5228  12.452   9.612   7.177  0.4096 -0.2007 -0.1690
  327loPI   C1B 5229  12.151   9.705   9.363  0.0964  0.0981  0.0815
  327loPI   C2B 5230  12.285   9.788   9.037  0.0138 -0.0281 -0.1158
  327loPI   C3B 5231  12.555   9.708   8.675 -0.1411 -0.2352 -0.0877
  327loPI   C4B 5232  12.681   9.899   8.265  0.1357  0.3170 -0.2353
  328loPI    C1 5233   3.315   2.544  10.528  0.3358 -0.2761  0.0200
  328loPI    C2 5234   3.661   2.669  10.684  0.1636  0.2143  0.0290
  328loPI    C3 5235   3.358   2.568  10.925  0.2058  0.0583  0.0178
  328loPI   PO4 5236   3.327   2.678  10.244  0.1815  0.1315 -0.0910
  328loPI   GL1 5237   3.572   2.891   9.771  0.0367 -0.0633  0.0640
  328loPI   GL2 5238   3.546   2.513   9.839 -0.0700 -0.1297 -0.1882
  328loPI   C1A 5239   3.445   2.873   9.342 -0.1962  0.0712  0.1890
  328loPI   C2A 5240   3.519   2.853   8.801  0.1347 -0.0255 -0.1782
  328loPI   C3A 5241   3.455   2.756   8.425  0.0521  0.1858  0.1015
  328loPI   C4A 5242   3.523   2.367   8.184  0.1756 -0.2687 -0.2105
  328loPI   C5A 5243   3.812   2.005   8.020 -0.0362 -0.2291 -0.0024
  328loPI   C6A 5244   3.772   1.663   7.810  0.1391  0.1838 -0.0311
  328loPI   C1B 5245   3.464   2.390   9.402 -0.1466 -0.1428 -0.1105
  328loPI   C2B 5246   3.375   2.084   9.182  0.0637  0.1804 -0.1057
  328loPI   C3B 5247   3.342   1.666   9.047 -0.1450 -0.0591 -0.1210
  328loPI   C4B 5248   3.461   1.435   8.707 -0.0652 -0.0244 -0.0246
  329loPI    C1 5249  16.107  17.528  10.972 -0.2519  0.1558 -0.0176
  329loPI    C2 5250  15.881  17.422  10.659  0.3899  0.1177 -0.4886
  329loPI    C3 5251  16.034  17.141  10.899 -0.2051  0.1521 -0.0454
  329loPI   PO4 5252  16.244  17.748  10.806 -0.1240  0.0448  0.2647
  329loPI   GL1 5253  16.291  17.594  10.391  0.0455  0.0150 -0.1663
  329loPI   GL2 5254  16.440  17.481  10.069  0.3362  0.2416 -0.1600
  329loPI   C1A 5255  16.211  17.873   9.982  0.1876  0.1360 -0.3679
  329loPI   C2A 5256  16.194  17.936   9.591 -0.2130  0.0808  0.0009
  329loPI   C3A 5257  16.206  17.880   9.091 -0.1192 -0.3029 -0.4030
  329loPI   C4A 5258  16.397  17.988   8.704  0.0468 -0.0498  0.1579
  329loPI   C5A 5259  16.492  18.096   8.351 -0.1236  0.0747 -0.2603
  329loPI   C6A 5260  16.619  17.855   7.999 -0.0510 -0.0973 -0.0802
  329loPI   C1B 5261  16.168  17.436   9.681  0.1927  0.0297  0.1032
  329loPI   C2B 5262  15.995  17.440   9.234  0.0865 -0.1279  0.4370
  329loPI   C3B 5263  16.136  17.503   8.826  0.0039 -0.0391  0.1424
  329loPI   C4B 5264  16.188  17.478   8.366  0.2062 -0.0759 -0.3251
  330loPI    C1 5265  17.758   2.966  10.112  0.3327 -0.0982 -0.0458
  330loPI    C2 5266  17.817   3.311  10.306 -0.0805 -0.1028  0.0974
  330loPI    C3 5267  17.945   3.269   9.929  0.0590  0.1709  0.1117
  330loPI   PO4 5268  17.497   2.923  10.016  0.2867  0.2753 -0.0107
  330loPI   GL1 5269  17.418   2.728   9.643  0.1982 -0.0900 -0.0154
  330loPI   GL2 5270  17.497   2.461   9.646 -0.0985  0.1060 -0.1366
  330loPI   C1A 5271  17.159   2.912   9.377  0.1880  0.1687 -0.0417
  330loPI   C2A 5272  17.139   2.930   8.978 -0.0143 -0.0115 -0.0598
  330loPI   C3A 5273  17.296   2.902   8.575  0.0182 -0.0558  0.2525
  330loPI   C4A 5274  17.291   3.133   8.160 -0.2804 -0.1021  0.0494
  330loPI   C5A 5275  17.569   3.181   7.813 -0.0662 -0.1394 -0.1300
  330loPI   C6A 5276  17.872   3.517   7.676  0.0067  0.1616  0.2130
  330loPI   C1B 5277  17.412   2.520   9.176 -0.1675 -0.2106 -0.1414
  330loPI   C2B 5278  17.555   2.381   8.857  0.1640 -0.0240  0.0034
  330loPI   C3B 5279  17.885   2.157   8.785 -0.2630  0.0864  0.2764
  330loPI   C4B 5280  18.218   2.197   8.579  0.2107  0.0273  0.2046
  331loPI    C1 5281   3.093  15.874  10.595 -0.0683  0.0821  0.0987
  331loPI    C2 5282   2.762  15.653  10.550 -0.1279  0.1639  0.1311
  331loPI    C3 5283   2.826  15.850  10.892  0.0298  0.0255  0.1827
  331loPI   PO4 5284   3.216  15.766  10.339 -0.1316 -0.2822 -0.2066
  331loPI   GL1 5285   3.169  15.902   9.976  0.6496 -0.0319  0.1028
  331loPI   GL2 5286   2.996  16.182  10.217 -0.0489  0.1758 -0.3374
  331loPI   C1A 5287   2.970  16.071   9.647 -0.1323 -0.3025  0.2215
  331loPI   C2A 5288   2.819  15.991   9.286  0.0165  0.2472 -0.1543
  331loPI   C3A 5289   2.878  15.824   8.974 -0.2386 -0.1093  0.1987
  331loPI   C4A 5290   2.994  15.396   8.919  0.0917 -0.3018  0.1431
  331loPI   C5A 5291   3.064  15.190   8.470 -0.0981 -0.1046 -0.3954
  331loPI   C6A 5292   3.092  15.368   8.070 -0.3941  0.3433 -0.0058
  331loPI   C1B 5293   2.839  16.463   9.928 -0.2775  0.1327  0.3140
  331loPI   C2B 5294   2.573  16.354   9.489  0.1457  0.2416  0.1036
  331loPI   C3B 5295   2.350  16.052   9.199  0.1044 -0.1132  0.2768
  331loPI   C4B 5296   2.082  16.058   8.807 -0.0904  0.0747  0.2613
  332loPI    C1 5297   1.916   4.800  10.648  0.0175  0.0559 -0.2179
  332loPI    C2 5298   1.997   4.893  11.028 -0.0367 -0.0323 -0.1845
  332loPI    C3 5299   2.232   4.637  10.830 -0.0287 -0.0134 -0.1996
  332loPI   PO4 5300   1.955   4.950  10.446 -0.1846 -0.0983 -0.0094
  332loPI   GL1 5301   1.978   5.011  10.014  0.2210 -0.1792 -0.0474
  332loPI   GL2 5302   2.203   4.817   9.881  0.0691  0.1488 -0.0017
  332loPI   C1A 5303   1.862   4.901   9.541 -0.0603  0.1681 -0.1408
  332loPI   C2A 5304   1.950   4.929   9.227  0.1109  0.0867 -0.3913
  332loPI   C3A 5305   2.075   4.854   8.733  0.0405 -0.2189  0.0626
  332loPI   C4A 5306   2.144   4.702   8.295 -0.0024  0.1524  0.1127
  332loPI   C5A 5307   2.365   4.982   7.965 -0.1747 -0.0216  0.2669
  332loPI   C6A 5308   2.411   5.096   7.642 -0.4662 -0.1917 -0.0636
  332loPI   C1B 5309   2.250   4.555   9.525  0.0440 -0.1316 -0.2987
  332loPI   C2B 5310   2.221   4.534   9.059 -0.2014  0.1093  0.2318
  332loPI   C3B 5311   2.036   4.376   8.804  0.0678 -0.0049  0.1275
  332loPI   C4B 5312   1.819   3.939   8.840  0.1854 -0.1547  0.1457
  333loPI    C1 5313  10.312   2.866  10.897  0.0725  0.2155  0.0102
  333loPI    C2 5314  10.282   2.495  11.044  0.0023  0.1660 -0.1275
  333loPI    C3 5315  10.187   2.809  11.272 -0.2005  0.0844 -0.0979
  333loPI   PO4 5316  10.305   2.747  10.609  0.4006  0.0733 -0.1114
  333loPI   GL1 5317  10.390   2.539  10.232  0.0728  0.0057 -0.1411
  333loPI   GL2 5318  10.044   2.766  10.189 -0.2207 -0.0027  0.0750
  333loPI   C1A 5319  10.628   2.823  10.017  0.1910  0.1706 -0.0721
  333loPI   C2A 5320  10.663   2.840   9.619  0.2026  0.0686  0.0123
  333loPI   C3A 5321  10.648   2.868   9.089 -0.2794 -0.1164  0.0827
  333loPI   C4A 5322  10.664   2.810   8.594 -0.1941 -0.1309  0.0894
  333loPI   C5A 5323  10.550   2.873   8.215  0.2273 -0.2084 -0.4347
  333loPI   C6A 5324  10.740   2.590   7.904 -0.1857  0.1201  0.1724
  333loPI   C1B 5325  10.168   2.578   9.796 -0.0408 -0.1878 -0.3548
  333loPI   C2B 5326  10.306   2.607   9.387 -0.1506 -0.0679 -0.0717
  333loPI   C3B 5327  10.323   2.545   8.949  0.1424 -0.2984 -0.0428
  333loPI   C4B 5328  10.219   2.574   8.483  0.1675 -0.2783  0.1024
  334loPI    C1 5329  16.463  12.390  10.203  0.1970  0.0049 -0.0340
  334loPI    C2 5330  16.764  12.644  10.135  0.0011  0.2609  0.0365
  334loPI    C3 5331  16.669  12.543  10.510  0.0206  0.1530  0.0127
  334loPI   PO4 5332  16.391  12.335   9.984 -0.5072  0.0441  0.1797
  334loPI   GL1 5333  16.404  12.496   9.639  0.1499  0.0768 -0.0863
  334loPI   GL2 5334  16.711  12.593   9.546  0.1188  0.3505  0.2255
  334loPI   C1A 5335  16.276  12.481   9.273  0.0535 -0.1026 -0.1019
  334loPI   C2A 5336  16.309  12.330   8.840  0.0985 -0.2532 -0.1878
  334loPI   C3A 5337  16.431  12.305   8.374 -0.1902  0.0334  0.0571
  334loPI   C4A 5338  16.515  12.230   8.002 -0.0133 -0.1071 -0.0714
  334loPI   C5A 5339  16.797  12.036   7.793  0.1737 -0.2515  0.0903
  334loPI   C6A 5340  17.075  11.969   7.640 -0.1015 -0.1345  0.1947
  334loPI   C1B 5341  16.829  12.393   9.078  0.0314  0.0464 -0.1753
  334loPI   C2B 5342  16.839  12.431   8.623 -0.1593  0.0734 -0.1927
  334loPI   C3B 5343  16.896  12.609   8.217 -0.2416 -0.0007 -0.1662
  334loPI   C4B 5344  16.804  12.656   7.757 -0.0199 -0.0452 -0.0081
  335loPI    C1 5345   7.210   3.918  10.536 -0.1446  0.2030  0.0390
  335loPI    C2 5346   6.961   3.757  10.805  0.0679  0.1523  0.2076
  335loPI    C3 5347   7.238   4.021  10.921  0.2883 -0.0150  0.0724
  335loPI   PO4 5348   7.344   3.632  10.317  0.0356 -0.0525 -0.2905
  335loPI   GL1 5349   7.332   3.554   9.981  0.2640 -0.1627  0.0454
  335loPI   GL2 5350   6.991   3.498   9.868 -0.1490  0.1407 -0.2819
  335loPI   C1A 5351   7.511   3.627   9.547  0.1420 -0.0009  0.1196
  335loPI   C2A 5352   7.904   3.734   9.241 -0.2093 -0.4021  0.1361
  335loPI   C3A 5353   7.924   3.970   8.855 -0.0650 -0.1923  0.0547
  335loPI   C4A 5354   8.014   4.170   8.445 -0.1200  0.2026 -0.1747
  335loPI   C5A 5355   8.131   4.169   8.031  0.0702  0.0318  0.1540
  335loPI   C6A 5356   8.257   4.192   7.608  0.1410  0.2635 -0.2083
  335loPI   C1B 5357   7.055   3.352   9.476 -0.1817 -0.2821  0.5276
  335loPI   C2B 5358   7.166   3.338   9.023 -0.4065  0.1784  0.0457
  335loPI   C3B 5359   7.249   3.350   8.516  0.0846  0.0795  0.1632
  335loPI   C4B 5360   7.402   3.473   8.096  0.4116  0.0799  0.0469
  336loPI    C1 5361  11.247  17.304  10.720 -0.2859 -0.1400 -0.2512
  336loPI    C2 5362  10.986  17.535  10.916 -0.1650 -0.1283 -0.1017
  336loPI    C3 5363  10.999  17.142  10.989 -0.0166 -0.1005  0.0271
  336loPI   PO4 5364  11.272  17.346  10.439  0.1636  0.2229 -0.0926
  336loPI   GL1 5365  11.519  17.486  10.066  0.0254 -0.0543  0.0672
  336loPI   GL2 5366  11.782  17.721   9.942 -0.1708 -0.0713 -0.2369
  336loPI   C1A 5367  11.172  17.609   9.776  0.1551 -0.0855  0.4664
  336loPI   C2A 5368  11.159  17.433   9.304  0.1603 -0.1659 -0.1497
  336loPI   C3A 5369  11.234  17.211   8.951 -0.3791 -0.1377  0.1665
  336loPI   C4A 5370  11.170  16.972   8.550  0.1391 -0.2974  0.0469
  336loPI   C5A 5371  11.082  16.806   8.142 -0.4893 -0.1270 -0.2681
  336loPI   C6A 5372  10.695  16.790   7.797  0.1931 -0.1900 -0.0068
  336loPI   C1B 5373  11.682  17.439   9.580  0.0904 -0.0576 -0.1004
  336loPI   C2B 5374  11.786  17.407   9.154 -0.0968 -0.3133 -0.2187
  336loPI   C3B 5375  12.006  17.393   8.757  0.2309 -0.1874  0.1327
  336loPI   C4B 5376  12.136  17.419   8.350 -0.1320  0.0021 -0.0794
  337loPI    C1 5377   1.926  17.483  10.732  0.2610  0.0348  0.0682
  337loPI    C2 5378   1.877  17.549  11.123 -0.2056 -0.1284  0.0433
  337loPI    C3 5379   1.624  17.711  10.860  0.1940  0.1047 -0.2083
  337loPI   PO4 5380   2.154  17.481  10.653  0.1467  0.1842  0.0114
  337loPI   GL1 5381   2.369  17.400  10.374  0.0097 -0.1150 -0.0536
  337loPI   GL2 5382   2.538  17.586  10.173 -0.1723 -0.2731  0.2318
  337loPI   C1A 5383   2.209  17.439   9.913  0.3704  0.2770  0.1880
  337loPI   C2A 5384   2.165  17.244   9.530  0.0148  0.3853  0.3571
  337loPI   C3A 5385   2.221  17.142   9.162 -0.1830 -0.3477  0.2016
  337loPI   C4A 5386   2.236  17.141   8.733  0.0034 -0.0763  0.1889
  337loPI   C5A 5387   1.979  16.984   8.337 -0.1586 -0.4511 -0.3695
  337loPI   C6A 5388   1.719  16.780   8.136 -0.2113 -0.0045  0.2255
  337loPI   C1B 5389   2.564  17.729   9.731  0.0380 -0.0287  0.0826
  337loPI   C2B 5390   2.381  17.664   9.296 -0.0634 -0.0907  0.2114
  337loPI   C3B 5391   2.464  17.700   8.910 -0.3212  0.1630 -0.0748
  337loPI   C4B 5392   2.433  17.695   8.484  0.2504 -0.0931 -0.0322
  338loPI    C1 5393   4.181  14.046  10.617  0.2558 -0.1902  0.1958
  338loPI    C2 5394   4.314  13.997  10.243  0.1226  0.2585  0.0836
  338loPI    C3 5395   4.509  13.827  10.549  0.2313 -0.1146 -0.1855
  338loPI   PO4 5396   4.061  14.313  10.526  0.0115  0.3012  0.1891
  338loPI   GL1 5397   4.303  14.601  10.265 -0.0358 -0.1441  0.1890
  338loPI   GL2 5398   4.398  14.391   9.985 -0.1247  0.1952  0.6481
  338loPI   C1A 5399   3.862  14.701  10.073  0.1176 -0.0829  0.1934
  338loPI   C2A 5400   3.713  14.928   9.801  0.1390 -0.2364  0.1361
  338loPI   C3A 5401   3.601  15.229   9.530 -0.0229  0.3896  0.2251
  338loPI   C4A 5402   3.668  15.437   9.142 -0.0076 -0.1384 -0.1199
  338loPI   C5A 5403   3.662  15.341   8.727  0.2600  0.1433 -0.2245
  338loPI   C6A 5404   3.638  15.147   8.316  0.2857  0.1622 -0.0339
  338loPI   C1B 5405   4.159  14.535   9.667 -0.6234 -0.1265  0.1576
  338loPI   C2B 5406   3.743  14.431   9.439  0.0108  0.4196 -0.3150
  338loPI   C3B 5407   3.582  14.745   9.224 -0.0118  0.0696  0.4077
  338loPI   C4B 5408   3.321  15.049   9.108  0.0064  0.0888 -0.5300
  339loPI    C1 5409   9.291  17.426  10.090 -0.0258 -0.0212 -0.1565
  339loPI    C2 5410   9.250  17.800  10.226 -0.2424 -0.0002 -0.2731
  339loPI    C3 5411   9.037  17.504  10.390 -0.1123 -0.0646 -0.2181
  339loPI   PO4 5412   9.584  17.430  10.160  0.0039  0.0421 -0.0459
  339loPI   GL1 5413   9.950  17.205   9.961  0.2902  0.3343  0.0176
  339loPI   GL2 5414  10.066  17.105  10.080  0.2206 -0.1367  0.0708
  339loPI   C1A 5415   9.898  17.147   9.569 -0.0063  0.0698 -0.2947
  339loPI   C2A 5416   9.873  17.126   9.098 -0.1173  0.0238 -0.2789
  339loPI   C3A 5417   9.869  17.005   8.726  0.0936  0.1580 -0.2382
  339loPI   C4A 5418   9.720  16.877   8.309  0.2482 -0.1238  0.1255
  339loPI   C5A 5419   9.433  16.930   7.991  0.3091 -0.1349 -0.1483
  339loPI   C6A 5420   9.090  17.218   7.759  0.1891  0.0298 -0.0765
  339loPI   C1B 5421  10.368  17.337   9.756  0.1286 -0.1124  0.4373
  339loPI   C2B 5422  10.244  17.435   9.297 -0.0187 -0.2215  0.0349
  339loPI   C3B 5423  10.507  17.675   9.035 -0.3082 -0.2505 -0.1962
  339loPI   C4B 5424  10.408  17.741   8.642 -0.1005 -0.1179  0.1274
  340loPI    C1 5425   6.745  10.406  10.432 -0.0311 -0.1551  0.0200
  340loPI    C2 5426   6.962  10.088  10.541  0.0186 -0.0457  0.2462
  340loPI    C3 5427   6.896  10.384  10.802 -0.0718  0.1057  0.0539
  340loPI   PO4 5428   6.844  10.371  10.059  0.1077  0.1093 -0.2619
  340loPI   GL1 5429   7.243  10.132   9.748  0.1324  0.0041  0.2471
  340loPI   GL2 5430   7.436   9.944   9.596 -0.0542  0.0561 -0.1628
  340loPI   C1A 5431   7.070  10.179   9.253 -0.4147  0.3698 -0.4082
  340loPI   C2A 5432   6.937  10.233   8.801 -0.1735  0.0367 -0.2570
  340loPI   C3A 5433   6.889  10.153   8.377  0.0327 -0.0682 -0.0525
  340loPI   C4A 5434   6.705  10.266   8.034 -0.0612 -0.0761  0.2710
  340loPI   C5A 5435   6.647  10.036   7.740 -0.0791  0.1001  0.0693
  340loPI   C6A 5436   6.709   9.827   7.273 -0.2556 -0.2599 -0.0502
  340loPI   C1B 5437   7.503   9.833   9.145 -0.0478 -0.1404 -0.0218
  340loPI   C2B 5438   7.512   9.678   8.752 -0.3161 -0.1639 -0.0522
  340loPI   C3B 5439   7.368   9.727   8.422 -0.0709  0.1124  0.3599
  340loPI   C4B 5440   7.547   9.480   8.099 -0.4451 -0.0827 -0.0900
  341loPI    C1 5441   2.751  10.319  10.361  0.0064  0.0010  0.0046
  341loPI    C2 5442   2.436  10.096  10.466 -0.0291  0.1300  0.1781
  341loPI    C3 5443   2.725  10.173  10.733  0.1419  0.0273  0.0253
  341loPI   PO4 5444   2.655  10.330  10.058 -0.0097  0.1797 -0.3200
  341loPI   GL1 5445   2.606  10.465   9.598 -0.0866 -0.0099 -0.1126
  341loPI   GL2 5446   2.382  10.244   9.683  0.0680  0.2899 -0.2071
  341loPI   C1A 5447   2.418  10.566   9.307 -0.3450 -0.0866  0.0511
  341loPI   C2A 5448   2.497  10.894   8.953  0.1261 -0.0965 -0.4864
  341loPI   C3A 5449   2.581  11.051   8.578 -0.1974  0.0390  0.2525
  341loPI   C4A 5450   2.363  11.273   8.178 -0.2721  0.1826 -0.0508
  341loPI   C5A 5451   2.434  11.039   7.860  0.1397 -0.1154  0.2910
  341loPI   C6A 5452   2.769  11.002   7.597 -0.0024  0.1826  0.0105
  341loPI   C1B 5453   2.203   9.978   9.466 -0.1956 -0.1989  0.0198
  341loPI   C2B 5454   2.185  10.124   9.040 -0.2215 -0.1737 -0.1054
  341loPI   C3B 5455   2.152  10.506   8.824  0.2119  0.0896  0.0917
  341loPI   C4B 5456   2.225  10.783   8.421  0.1555  0.3614  0.1298
  342loPI    C1 5457  14.613  14.814  10.767  0.0405  0.0491  0.0279
  342loPI    C2 5458  14.338  14.524  10.778  0.2367 -0.1433 -0.0804
  342loPI    C3 5459  14.644  14.520  11.036 -0.0283  0.2437  0.2527
  342loPI   PO4 5460  14.643  14.844  10.546 -0.2420  0.2591 -0.3196
  342loPI   GL1 5461  14.497  14.637  10.221 -0.1397  0.0471  0.0157
  342loPI   GL2 5462  14.255  14.559  10.267 -0.0887 -0.0058  0.0751
  342loPI   C1A 5463  14.571  14.696   9.787 -0.0719 -0.1469  0.2500
  342loPI   C2A 5464  14.620  14.685   9.443  0.3197  0.1124  0.0856
  342loPI   C3A 5465  14.617  14.619   9.066 -0.3752 -0.1320 -0.1218
  342loPI   C4A 5466  14.821  14.567   8.652  0.2569  0.0902 -0.1033
  342loPI   C5A 5467  15.088  14.377   8.347 -0.0008 -0.2783 -0.2637
  342loPI   C6A 5468  15.280  14.539   7.985 -0.0341  0.0143  0.2188
  342loPI   C1B 5469  13.995  14.676   9.894  0.3261 -0.0921  0.0011
  342loPI   C2B 5470  14.032  14.770   9.504 -0.1175  0.3091  0.1272
  342loPI   C3B 5471  14.141  14.852   9.077  0.0046  0.0301  0.1899
  342loPI   C4B 5472  14.376  14.852   8.671  0.1744 -0.4128 -0.0779
  343loPI    C1 5473  10.316  12.184  10.674 -0.1887  0.1637  0.1729
  343loPI    C2 5474   9.982  12.166  10.454 -0.0739  0.1794 -0.0044
  343loPI    C3 5475  10.308  11.965  10.340 -0.0174  0.1759  0.1600
  343loPI   PO4 5476  10.421  12.398  10.657  0.0095 -0.0496  0.0674
  343loPI   GL1 5477  10.434  12.456  10.202  0.3069  0.1627  0.0565
  343loPI   GL2 5478  10.642  12.276  10.027 -0.2234  0.0356  0.1920
  343loPI   C1A 5479  10.301  12.514   9.749 -0.0980 -0.0459  0.1749
  343loPI   C2A 5480  10.130  12.671   9.271 -0.0971 -0.0343 -0.0329
  343loPI   C3A 5481   9.968  12.819   8.924 -0.0203 -0.0524  0.0515
  343loPI   C4A 5482   9.923  13.125   8.641 -0.0508  0.0305  0.1160
  343loPI   C5A 5483   9.835  13.515   8.529  0.1337 -0.1591  0.0603
  343loPI   C6A 5484   9.963  13.903   8.720  0.2941 -0.0650 -0.0866
  343loPI   C1B 5485  10.780  12.334   9.632  0.2582  0.2645  0.1673
  343loPI   C2B 5486  10.853  12.027   9.259  0.3097 -0.0252 -0.0584
  343loPI   C3B 5487  11.063  11.859   8.917  0.0426  0.0768  0.0346
  343loPI   C4B 5488  11.085  11.814   8.542 -0.3557  0.0637 -0.3272
  344loPI    C1 5489  14.583   9.654  10.180  0.0229 -0.2188  0.0372
  344loPI    C2 5490  14.252   9.828  10.320  0.1268  0.0142 -0.0028
  344loPI    C3 5491  14.526   9.687  10.574  0.1086  0.0376  0.0297
  344loPI   PO4 5492  14.461   9.574   9.856 -0.0932  0.0692 -0.1541
  344loPI   GL1 5493  14.368   9.713   9.401 -0.2778 -0.2069  0.0627
  344loPI   GL2 5494  14.623   9.932   9.448  0.2402  0.1285 -0.2200
  344loPI   C1A 5495  14.427   9.850   8.936  0.0427 -0.3390  0.0254
  344loPI   C2A 5496  14.518   9.962   8.525 -0.1045 -0.2666  0.0089
  344loPI   C3A 5497  14.239   9.923   8.285 -0.3707  0.2411  0.3166
  344loPI   C4A 5498  13.958  10.216   8.101 -0.0237 -0.4239 -0.0149
  344loPI   C5A 5499  13.948  10.550   7.780 -0.0317 -0.0706 -0.3238
  344loPI   C6A 5500  13.650  10.669   7.527 -0.1294 -0.2637 -0.0819
  344loPI   C1B 5501  14.877  10.041   9.133 -0.0457 -0.1691  0.0511
  344loPI   C2B 5502  15.006  10.063   8.783 -0.1170 -0.2620 -0.4235
  344loPI   C3B 5503  15.278  10.272   8.718  0.0087  0.1699 -0.2066
  344loPI   C4B 5504  15.544  10.336   8.373 -0.1767  0.0995 -0.0022
  345loPI    C1 5505  10.601  10.014  10.491 -0.2409  0.0179  0.1712
  345loPI    C2 5506  10.264   9.857  10.639 -0.2407 -0.0468  0.1035
  345loPI    C3 5507  10.611   9.661  10.677 -0.2400 -0.0623  0.0205
  345loPI   PO4 5508  10.528  10.071  10.240  0.0627 -0.1673  0.1743
  345loPI   GL1 5509  10.295  10.105  10.005 -0.3235  0.0352  0.2301
  345loPI   GL2 5510  10.228  10.434   9.978  0.2938  0.1762  0.1293
  345loPI   C1A 5511  10.182   9.999   9.484  0.3835 -0.1053  0.3149
  345loPI   C2A 5512  10.153   9.838   9.140  0.0534  0.0670  0.1771
  345loPI   C3A 5513  10.314   9.642   8.761  0.1662 -0.1078 -0.1008
  345loPI   C4A 5514  10.316   9.491   8.363 -0.0648 -0.0880 -0.0928
  345loPI   C5A 5515  10.485   9.475   7.966 -0.0052 -0.2678  0.0307
  345loPI   C6A 5516  10.640   9.362   7.586 -0.1821  0.0679 -0.1470
  345loPI   C1B 5517  10.076  10.474   9.614 -0.2296 -0.0110 -0.0786
  345loPI   C2B 5518   9.896  10.269   9.223  0.1157 -0.2072 -0.0974
  345loPI   C3B 5519   9.673  10.044   8.859  0.2341  0.0371  0.0567
  345loPI   C4B 5520   9.776   9.708   8.823  0.0998  0.0098 -0.0209
  346loPI    C1 5521   1.990  15.921  10.903 -0.1730 -0.2251 -0.1634
  346loPI    C2 5522   2.001  15.621  11.168 -0.1972  0.0302  0.1320
  346loPI    C3 5523   2.099  15.992  11.281 -0.1812  0.1394 -0.2264
  346loPI   PO4 5524   1.861  15.786  10.661  0.5151  0.0430  0.0023
  346loPI   GL1 5525   1.588  15.812  10.160 -0.1658 -0.1204 -0.1110
  346loPI   GL2 5526   1.409  15.540   9.992 -0.1329 -0.1070  0.1955
  346loPI   C1A 5527   1.666  16.101   9.936  0.1846 -0.2164 -0.1664
  346loPI   C2A 5528   1.689  16.517   9.690 -0.1490 -0.1520 -0.0125
  346loPI   C3A 5529   1.547  16.626   9.274  0.3521 -0.2635 -0.0673
  346loPI   C4A 5530   1.318  16.673   8.890  0.0590  0.2333  0.2560
  346loPI   C5A 5531   1.152  16.662   8.479  0.0816  0.3421  0.0902
  346loPI   C6A 5532   0.843  16.448   8.285 -0.2803  0.2898 -0.0633
  346loPI   C1B 5533   1.413  15.755   9.659 -0.4024  0.0576 -0.4403
  346loPI   C2B 5534   1.411  15.813   9.173  0.0383  0.3201 -0.0932
  346loPI   C3B 5535   1.621  15.744   8.701  0.3748 -0.2354  0.0168
  346loPI   C4B 5536   1.474  15.766   8.242 -0.0361  0.1825  0.0471
  347loPI    C1 5537  10.730   3.878  10.453 -0.1494 -0.0911  0.2086
  347loPI    C2 5538  11.075   3.988  10.622 -0.1159  0.1086  0.0138
  347loPI    C3 5539  11.012   4.055  10.232 -0.3130 -0.0699  0.0134
  347loPI   PO4 5540  10.718   3.630  10.468 -0.2114  0.0768  0.0788
  347loPI   GL1 5541  10.669   3.639   9.999  0.0763  0.0711  0.1515
  347loPI   GL2 5542  10.425   3.876   9.924 -0.1795  0.0171  0.2532
  347loPI   C1A 5543  10.768   3.731   9.575  0.1674  0.1738 -0.0239
  347loPI   C2A 5544  10.694   3.539   9.225  0.3356  0.1331 -0.0070
  347loPI   C3A 5545  10.455   3.363   8.982  0.0082  0.0060  0.5000
  347loPI   C4A 5546  10.394   3.202   8.682 -0.1555 -0.0041  0.2313
  347loPI   C5A 5547  10.057   3.064   8.352 -0.0957  0.1170  0.2532
  347loPI   C6A 5548  10.145   3.276   7.963  0.2216  0.0440 -0.1734
  347loPI   C1B 5549  10.287   3.724   9.569 -0.0924  0.1029 -0.4184
  347loPI   C2B 5550  10.168   3.723   9.202 -0.2898  0.3603 -0.1631
  347loPI   C3B 5551  10.307   3.874   8.848  0.3017 -0.1586 -0.0329
  347loPI   C4B 5552  10.356   3.599   8.426  0.3093 -0.0194 -0.3975
  348loPI    C1 5553   1.873   7.788  10.432  0.0617 -0.0998 -0.0957
  348loPI    C2 5554   2.103   7.868  10.115  0.1567 -0.2342 -0.0618
  348loPI    C3 5555   2.268   7.730  10.452  0.0585 -0.0738  0.0535
  348loPI   PO4 5556   1.644   7.650  10.239 -0.0497  0.0711 -0.0983
  348loPI   GL1 5557   1.586   7.686   9.819  0.1531  0.1253 -0.0657
  348loPI   GL2 5558   1.779   7.309   9.811  0.2591  0.0742  0.2057
  348loPI   C1A 5559   1.706   7.725   9.461  0.1613 -0.1655 -0.2321
  348loPI   C2A 5560   1.933   7.787   9.083  0.1844  0.0530 -0.2568
  348loPI   C3A 5561   2.196   7.975   8.850  0.2610  0.1281 -0.3417
  348loPI   C4A 5562   2.272   8.145   8.488  0.0506 -0.1618 -0.0500
  348loPI   C5A 5563   2.197   8.551   8.402  0.1595  0.4014  0.0572
  348loPI   C6A 5564   2.127   8.785   7.913  0.0476 -0.2179 -0.4502
  348loPI   C1B 5565   1.820   7.203   9.341  0.1070  0.0921 -0.2264
  348loPI   C2B 5566   1.844   7.277   8.885 -0.2758  0.0191  0.0401
  348loPI   C3B 5567   1.824   7.202   8.442 -0.0559 -0.3287  0.1787
  348loPI   C4B 5568   1.746   7.437   8.061  0.0349  0.0233 -0.0018
  349loPI    C1 5569   7.848   9.301  10.217 -0.1907 -0.0343  0.0561
  349loPI    C2 5570   8.078   9.553  10.425 -0.0267 -0.1130 -0.0284
  349loPI    C3 5571   7.687   9.529  10.503 -0.0021  0.0017  0.1348
  349loPI   PO4 5572   7.823   9.247   9.961  0.2333  0.0329 -0.0307
  349loPI   GL1 5573   7.508   9.262   9.660  0.1687 -0.0403  0.0959
  349loPI   GL2 5574   7.216   9.165   9.797  0.1869 -0.0378  0.0116
  349loPI   C1A 5575   7.644   9.319   9.307 -0.0550 -0.0770  0.0504
  349loPI   C2A 5576   7.698   9.176   8.860  0.0845 -0.1345  0.2715
  349loPI   C3A 5577   7.767   9.237   8.516  0.0562  0.0687  0.3056
  349loPI   C4A 5578   8.178   9.315   8.367 -0.0117 -0.1635 -0.0930
  349loPI   C5A 5579   8.431   9.383   7.903 -0.2419 -0.1561 -0.0181
  349loPI   C6A 5580   8.800   9.385   7.702 -0.0704  0.1756 -0.4160
  349loPI   C1B 5581   7.143   9.011   9.317  0.0881 -0.2408 -0.3520
  349loPI   C2B 5582   7.250   9.281   8.927  0.1642  0.3777 -0.1067
  349loPI   C3B 5583   7.234   9.274   8.652  0.1631  0.1877  0.0361
  349loPI   C4B 5584   7.055   9.344   8.264  0.0635 -0.1517 -0.3348
  350loPI    C1 5585   1.721   6.183  10.415  0.4302 -0.0859  0.1869
  350loPI    C2 5586   1.656   6.565  10.515  0.1451  0.0426 -0.4434
  350loPI    C3 5587   1.564   6.272  10.772  0.2846  0.3875  0.0116
  350loPI   PO4 5588   1.719   6.194  10.062  0.1668  0.1511  0.0115
  350loPI   GL1 5589   1.530   5.968   9.765  0.0019  0.2120  0.1962
  350loPI   GL2 5590   1.776   6.001   9.549  0.0370  0.1378 -0.2821
  350loPI   C1A 5591   1.334   5.715   9.366  0.0941 -0.0152 -0.1563
  350loPI   C2A 5592   1.415   5.714   9.010 -0.0346 -0.1246 -0.1388
  350loPI   C3A 5593   1.435   5.611   8.725 -0.0161 -0.0358 -0.3159
  350loPI   C4A 5594   1.517   5.508   8.236  0.5128 -0.1153  0.1455
  350loPI   C5A 5595   1.369   5.219   7.839  0.2432 -0.2606  0.0003
  350loPI   C6A 5596   1.474   4.952   7.534 -0.2192 -0.1320  0.0452
  350loPI   C1B 5597   1.882   5.864   9.159  0.0211 -0.1915 -0.1451
  350loPI   C2B 5598   1.892   5.788   8.809  0.1970  0.3091  0.1172
  350loPI   C3B 5599   1.906   5.821   8.311 -0.2203  0.1871 -0.0266
  350loPI   C4B 5600   1.981   5.980   7.937  0.0837 -0.1476 -0.1049
  351loPI    C1 5601  15.118  14.764  10.306 -0.0432  0.2147  0.0566
  351loPI    C2 5602  15.144  14.666  10.693 -0.1763 -0.1906 -0.0314
  351loPI    C3 5603  15.453  14.842  10.509 -0.1229  0.0312  0.2625
  351loPI   PO4 5604  15.014  14.592  10.163 -0.0937  0.3079  0.4681
  351loPI   GL1 5605  15.041  14.577   9.709 -0.3262 -0.0574 -0.0549
  351loPI   GL2 5606  15.207  14.322   9.829 -0.1790 -0.1090  0.3331
  351loPI   C1A 5607  15.193  14.555   9.285  0.2537  0.0685  0.0090
  351loPI   C2A 5608  15.263  14.513   8.862 -0.0325 -0.1137 -0.0433
  351loPI   C3A 5609  15.500  14.599   8.461 -0.0234 -0.3133 -0.2201
  351loPI   C4A 5610  15.640  14.945   8.440 -0.0762 -0.1415  0.0177
  351loPI   C5A 5611  15.583  15.354   8.243 -0.2439  0.0317 -0.2418
  351loPI   C6A 5612  15.633  15.723   8.094 -0.0863  0.0611  0.0218
  351loPI   C1B 5613  15.301  14.066   9.469  0.2458  0.1631  0.1698
  351loPI   C2B 5614  15.561  14.155   9.190  0.1179 -0.1991  0.1678
  351loPI   C3B 5615  15.884  14.092   8.958 -0.0846  0.2064  0.0993
  351loPI   C4B 5616  16.196  14.056   8.692 -0.0039 -0.0901 -0.1666
  352loPI    C1 5617  16.907  15.775  10.571 -0.0394  0.1800 -0.0871
  352loPI    C2 5618  16.778  15.929  10.918  0.0848  0.2226 -0.0596
  352loPI    C3 5619  16.572  15.636  10.740  0.1752 -0.0010  0.1982
  352loPI   PO4 5620  16.892  15.939  10.398 -0.0495  0.0656 -0.0878
  352loPI   GL1 5621  16.728  16.102  10.081 -0.1217 -0.0601  0.1928
  352loPI   GL2 5622  16.971  16.091   9.793  0.3149  0.1625  0.0127
  352loPI   C1A 5623  16.463  15.938   9.800  0.2749  0.1956 -0.0673
  352loPI   C2A 5624  16.186  15.889   9.339 -0.1250 -0.0108  0.1696
  352loPI   C3A 5625  15.833  16.068   9.066 -0.3527  0.0247 -0.0448
  352loPI   C4A 5626  15.620  16.221   8.717 -0.5051  0.1048  0.0720
  352loPI   C5A 5627  15.350  16.234   8.368  0.1674  0.5011  0.2903
  352loPI   C6A 5628  14.923  16.283   8.373 -0.1864  0.1141 -0.1428
  352loPI   C1B 5629  16.759  16.358   9.554 -0.1521 -0.3308 -0.0474
  352loPI   C2B 5630  16.785  16.582   9.210 -0.0978 -0.0633  0.0596
  352loPI   C3B 5631  16.477  16.740   9.011 -0.0340  0.0485  0.2426
  352loPI   C4B 5632  16.324  17.035   8.797  0.1246 -0.1217 -0.2498
  353loPI    C1 5633   3.326  15.464  10.791 -0.0190  0.2311  0.0073
  353loPI    C2 5634   2.981  15.306  10.917  0.1667 -0.1081  0.1029
  353loPI    C3 5635   3.197  15.536  11.163  0.0162  0.0968  0.0461
  353loPI   PO4 5636   3.380  15.241  10.600  0.0299 -0.2595 -0.0503
  353loPI   GL1 5637   3.525  15.352  10.189 -0.1409 -0.2692 -0.1708
  353loPI   GL2 5638   3.738  15.394   9.951  0.0945 -0.0893 -0.0201
  353loPI   C1A 5639   3.223  15.141   9.895 -0.2545  0.0457  0.1009
  353loPI   C2A 5640   3.237  14.884   9.590 -0.1432  0.2948 -0.0681
  353loPI   C3A 5641   3.345  14.486   9.748 -0.3998  0.0664  0.0095
  353loPI   C4A 5642   3.418  13.986   9.867 -0.2114  0.1635 -0.1833
  353loPI   C5A 5643   3.652  13.778   9.476  0.1945 -0.0116  0.0732
  353loPI   C6A 5644   3.974  13.968   9.161  0.0498  0.2513  0.3817
  353loPI   C1B 5645   3.466  15.635   9.723  0.2140  0.1296 -0.1899
  353loPI   C2B 5646   3.212  15.652   9.304  0.1837  0.0896 -0.1114
  353loPI   C3B 5647   3.413  15.735   8.854 -0.2220  0.2774  0.0222
  353loPI   C4B 5648   3.364  15.659   8.484 -0.3166  0.0458 -0.0556
  354loPI    C1 5649  15.970  15.557  10.766 -0.1235 -0.0357 -0.0967
  354loPI    C2 5650  15.876  15.169  10.744  0.0732 -0.0841 -0.1052
  354loPI    C3 5651  16.052  15.313  11.073  0.1402 -0.0338 -0.1627
  354loPI   PO4 5652  16.042  15.623  10.531  0.2495  0.0221 -0.4119
  354loPI   GL1 5653  15.949  15.383  10.214 -0.0465  0.2812 -0.1418
  354loPI   GL2 5654  16.322  15.258  10.030  0.1065  0.2343  0.0682
  354loPI   C1A 5655  15.781  15.564   9.819  0.1869  0.0606  0.3793
  354loPI   C2A 5656  15.719  15.782   9.443 -0.0745  0.0440  0.1026
  354loPI   C3A 5657  15.688  15.630   9.057  0.6518  0.0023  0.0410
  354loPI   C4A 5658  15.564  15.716   8.691  0.0304  0.3125 -0.0403
  354loPI   C5A 5659  15.204  15.742   8.596 -0.2271 -0.0808 -0.0577
  354loPI   C6A 5660  14.711  15.751   8.634  0.0809  0.0656 -0.2684
  354loPI   C1B 5661  16.334  15.417   9.605  0.3918  0.3002  0.3077
  354loPI   C2B 5662  16.291  15.477   9.116 -0.0590  0.3538 -0.2852
  354loPI   C3B 5663  16.310  15.857   8.854  0.1556  0.0486 -0.1014
  354loPI   C4B 5664  16.231  15.893   8.389  0.0173  0.1454  0.0876
  355loPI    C1 5665   4.267   3.229  10.203  0.0699  0.2363 -0.0369
  355loPI    C2 5666   4.312   3.405  10.560 -0.1978  0.1798  0.0271
  355loPI    C3 5667   3.964   3.433  10.366 -0.1332  0.0025 -0.1171
  355loPI   PO4 5668   4.490   3.299  10.017 -0.0519  0.0108  0.1723
  355loPI   GL1 5669   4.711   3.490   9.667 -0.1097 -0.0724 -0.1279
  355loPI   GL2 5670   4.989   3.568   9.856 -0.2732 -0.2438  0.1849
  355loPI   C1A 5671   4.747   3.294   9.253  0.1787  0.0053  0.1057
  355loPI   C2A 5672   4.578   3.304   8.850  0.0048  0.0121  0.2994
  355loPI   C3A 5673   4.437   3.167   8.405  0.2489 -0.1264  0.0913
  355loPI   C4A 5674   4.453   3.349   7.969 -0.5455  0.1313  0.1310
  355loPI   C5A 5675   4.332   3.532   7.586  0.0539 -0.5052 -0.3104
  355loPI   C6A 5676   4.107   3.698   7.307  0.1412 -0.1055 -0.1254
  355loPI   C1B 5677   5.115   3.667   9.396  0.1745  0.2783 -0.0220
  355loPI   C2B 5678   5.109   3.566   8.931  0.2050  0.0251 -0.1500
  355loPI   C3B 5679   5.008   3.173   8.658  0.3823 -0.1340  0.1143
  355loPI   C4B 5680   4.902   2.867   8.883  0.1519 -0.0413 -0.2071
  356loPI    C1 5681  10.464   1.220  10.370 -0.0149  0.0772 -0.0692
  356loPI    C2 5682  10.505   1.610  10.287  0.0169  0.0515 -0.1763
  356loPI    C3 5683  10.527   1.482  10.666  0.1466  0.1365 -0.1547
  356loPI   PO4 5684  10.313   1.097  10.152  0.0852 -0.2652 -0.2050
  356loPI   GL1 5685  10.287   1.048   9.692  0.1349 -0.0127  0.1453
  356loPI   GL2 5686  10.055   0.858   9.812 -0.1327  0.0659  0.0412
  356loPI   C1A 5687  10.274   1.036   9.260  0.0315 -0.1293  0.2219
  356loPI   C2A 5688  10.364   1.058   8.918 -0.1047 -0.2274 -0.0271
  356loPI   C3A 5689  10.530   1.129   8.552  0.1738 -0.0915  0.4101
  356loPI   C4A 5690  10.750   1.033   8.233 -0.0105 -0.4300  0.0677
  356loPI   C5A 5691  10.541   1.159   7.775  0.0691  0.2172 -0.1175
  356loPI   C6A 5692  10.555   1.514   7.443 -0.0730  0.1571  0.4339
  356loPI   C1B 5693   9.840   0.732   9.516 -0.3200  0.1824 -0.1456
  356loPI   C2B 5694   9.911   0.721   9.027 -0.1642  0.3922 -0.0437
  356loPI   C3B 5695   9.913   0.472   8.661  0.1478  0.0378 -0.0760
  356loPI   C4B 5696   9.695   0.678   8.372 -0.3802 -0.0990  0.0186
  357loPI    C1 5697   5.572  11.258  10.137 -0.2154 -0.0339 -0.5234
  357loPI    C2 5698   5.203  11.220  10.287 -0.0714 -0.0070 -0.1528
  357loPI    C3 5699   5.509  11.022  10.453  0.1182  0.1403 -0.3211
  357loPI   PO4 5700   5.589  11.173   9.928  0.2289 -0.0519  0.2024
  357loPI   GL1 5701   5.476  11.290   9.583 -0.1050 -0.0034  0.1563
  357loPI   GL2 5702   5.637  11.428   9.466 -0.0913  0.1170  0.1571
  357loPI   C1A 5703   5.453  11.029   9.189  0.0133  0.0888  0.1664
  357loPI   C2A 5704   5.656  10.883   8.767  0.4996  0.1232 -0.1350
  357loPI   C3A 5705   5.868  10.639   8.448 -0.1995  0.1657  0.1891
  357loPI   C4A 5706   5.784  10.239   8.155  0.1661  0.2324  0.1174
  357loPI   C5A 5707   5.788   9.770   7.997 -0.2026 -0.1726 -0.2632
  357loPI   C6A 5708   5.754   9.378   7.812 -0.3999  0.0426 -0.1796
  357loPI   C1B 5709   5.598  11.463   8.937 -0.0484 -0.2298  0.1043
  357loPI   C2B 5710   5.388  11.297   8.605  0.1199 -0.0030 -0.1956
  357loPI   C3B 5711   5.487  11.008   8.288 -0.0350  0.2893  0.0873
  357loPI   C4B 5712   5.625  10.684   7.985  0.2640 -0.1932 -0.3842
  358loPI    C1 5713  16.606  13.571  10.170  0.1046 -0.0455 -0.0987
  358loPI    C2 5714  16.359  13.824  10.359  0.1734 -0.1068  0.0758
  358loPI    C3 5715  16.251  13.443  10.301  0.1765 -0.1029  0.0430
  358loPI   PO4 5716  16.832  13.600  10.205  0.1711 -0.2426  0.0094
  358loPI   GL1 5717  17.101  13.850   9.876 -0.2221  0.0002 -0.2123
  358loPI   GL2 5718  17.302  13.636   9.781  0.3108  0.0544  0.1806
  358loPI   C1A 5719  17.281  14.200   9.648  0.0091 -0.2190  0.0245
  358loPI   C2A 5720  17.386  14.426   9.281 -0.1920  0.0096  0.1571
  358loPI   C3A 5721  17.691  14.466   8.927 -0.2398  0.1243 -0.0660
  358loPI   C4A 5722  18.065  14.326   8.635  0.1041  0.2186  0.0808
  358loPI   C5A 5723  18.397  14.287   8.391 -0.1741 -0.0836 -0.0892
  358loPI   C6A 5724  18.704  14.093   7.994  0.3920  0.1488  0.3084
  358loPI   C1B 5725  17.497  13.839   9.455  0.2163  0.3977  0.4259
  358loPI   C2B 5726  17.513  13.968   9.098 -0.0540  0.0847  0.0148
  358loPI   C3B 5727  17.714  13.931   8.787  0.0157 -0.3200  0.0151
  358loPI   C4B 5728  18.034  13.836   8.478  0.1041  0.1387  0.2426
  359loPI    C1 5729   5.643  16.228  10.459 -0.2539  0.0672  0.0370
  359loPI    C2 5730   5.478  16.439  10.756 -0.0581  0.0347  0.1710
  359loPI    C3 5731   5.806  16.221  10.824 -0.1366 -0.1457 -0.0180
  359loPI   PO4 5732   5.507  16.175  10.375 -0.1053 -0.0436  0.1267
  359loPI   GL1 5733   5.287  16.373   9.897 -0.0541 -0.1813  0.4315
  359loPI   GL2 5734   5.329  16.714   9.881  0.2654  0.1549 -0.2210
  359loPI   C1A 5735   5.426  16.233   9.399  0.1618 -0.0157  0.0139
  359loPI   C2A 5736   5.345  16.177   8.947  0.2262 -0.1913 -0.0108
  359loPI   C3A 5737   5.444  16.186   8.527 -0.3586 -0.0710 -0.0114
  359loPI   C4A 5738   5.663  16.114   8.068  0.1763  0.0174  0.1523
  359loPI   C5A 5739   5.821  16.151   7.717 -0.2860 -0.2602 -0.1683
  359loPI   C6A 5740   5.597  16.360   7.346 -0.1601 -0.3742  0.1044
  359loPI   C1B 5741   5.354  16.754   9.459  0.0988  0.1200 -0.1201
  359loPI   C2B 5742   5.375  16.642   9.009 -0.2135 -0.2185 -0.0009
  359loPI   C3B 5743   5.423  16.831   8.580 -0.0758  0.0486 -0.2802
  359loPI   C4B 5744   5.318  16.723   8.227 -0.2034  0.1815  0.2337
  360loPI    C1 5745  16.672   6.164  10.338  0.0119  0.0658  0.0296
  360loPI    C2 5746  16.372   5.964  10.511  0.0173  0.0860  0.0624
  360loPI    C3 5747  16.721   6.004  10.702  0.0369  0.0727  0.0293
  360loPI   PO4 5748  16.605   6.095  10.099  0.0764 -0.1546 -0.1811
  360loPI   GL1 5749  16.886   6.040   9.724  0.1733  0.1529  0.0089
  360loPI   GL2 5750  17.176   5.913   9.845 -0.2012 -0.0334  0.1467
  360loPI   C1A 5751  17.029   5.840   9.343 -0.4489  0.2924  0.1070
  360loPI   C2A 5752  17.144   5.562   9.012  0.2494 -0.0960  0.0814
  360loPI   C3A 5753  17.444   5.429   8.814 -0.1361  0.2724 -0.0848
  360loPI   C4A 5754  17.692   5.609   8.609 -0.3405  0.1065 -0.0954
  360loPI   C5A 5755  18.015   5.955   8.779 -0.0006  0.1347 -0.0133
  360loPI   C6A 5756  18.405   6.046   8.956 -0.0523  0.1072  0.0028
  360loPI   C1B 5757  17.341   6.195   9.523  0.2975 -0.1905  0.0243
  360loPI   C2B 5758  17.487   6.504   9.129  0.1166  0.1794 -0.1032
  360loPI   C3B 5759  17.608   6.797   8.835  0.0291  0.1664  0.0749
  360loPI   C4B 5760  17.776   6.918   8.450 -0.2591  0.1952  0.0123
  361loPI    C1 5761   3.605   6.165   9.984  0.0874  0.3416 -0.2110
  361loPI    C2 5762   3.718   6.352  10.320  0.1002  0.3906 -0.2425
  361loPI    C3 5763   3.980   6.128  10.117  0.0120  0.1125 -0.0558
  361loPI   PO4 5764   3.335   6.162   9.977  0.4946  0.0249 -0.1030
  361loPI   GL1 5765   3.053   6.381   9.694  0.1195 -0.1055 -0.0377
  361loPI   GL2 5766   2.880   6.064   9.583  0.0333 -0.2637 -0.0942
  361loPI   C1A 5767   3.311   6.395   9.379 -0.2178  0.3117 -0.3148
  361loPI   C2A 5768   3.399   6.481   8.924 -0.0052  0.1262  0.0622
  361loPI   C3A 5769   3.595   6.712   8.702 -0.1336 -0.2768 -0.1230
  361loPI   C4A 5770   3.677   6.592   8.284 -0.0418 -0.3225 -0.0121
  361loPI   C5A 5771   3.778   6.442   7.844  0.0791 -0.4449 -0.1885
  361loPI   C6A 5772   3.974   6.421   7.483  0.0437 -0.1286  0.0754
  361loPI   C1B 5773   2.803   5.905   9.145 -0.1169 -0.0760  0.2676
  361loPI   C2B 5774   2.666   5.997   8.745  0.0129 -0.0511 -0.0760
  361loPI   C3B 5775   2.599   5.734   8.384 -0.0386  0.0367 -0.1264
  361loPI   C4B 5776   2.680   5.805   7.920  0.1542  0.1265  0.1275
  362loPI    C1 5777   3.624   8.660  10.168  0.1330  0.3627 -0.0736
  362loPI    C2 5778   3.275   8.738   9.988 -0.0572 -0.0715  0.0942
  362loPI    C3 5779   3.364   8.914  10.336 -0.0966  0.0599  0.0386
  362loPI   PO4 5780   3.836   8.639  10.000 -0.1411  0.0617  0.1614
  362loPI   GL1 5781   3.977   8.862   9.658  0.1806 -0.2922 -0.1440
  362loPI   GL2 5782   4.067   8.616   9.445 -0.0663 -0.0287  0.3044
  362loPI   C1A 5783   4.112   9.136   9.280  0.2626 -0.0295  0.0386
  362loPI   C2A 5784   3.983   9.147   8.882 -0.0033  0.2994  0.0026
  362loPI   C3A 5785   4.021   9.013   8.438 -0.0248 -0.0602 -0.3559
  362loPI   C4A 5786   4.076   9.128   8.091 -0.2511 -0.3727  0.2466
  362loPI   C5A 5787   3.782   9.365   7.767 -0.0856  0.0252 -0.1409
  362loPI   C6A 5788   3.371   9.510   7.658  0.3627 -0.3437 -0.2273
  362loPI   C1B 5789   4.496   8.663   9.223  0.2323  0.0223  0.0092
  362loPI   C2B 5790   4.811   8.594   8.865  0.1473 -0.2508  0.2473
  362loPI   C3B 5791   4.981   8.471   8.499  0.0717 -0.0929  0.2068
  362loPI   C4B 5792   5.316   8.152   8.391  0.0987 -0.0889  0.2668
  363loPI    C1 5793   3.159   9.879  10.587 -0.1074  0.1048 -0.1065
  363loPI    C2 5794   3.240  10.257  10.485 -0.2896  0.2043  0.1092
  363loPI    C3 5795   3.252  10.147  10.869 -0.0715 -0.0514  0.0319
  363loPI   PO4 5796   2.899   9.810  10.393 -0.0570 -0.1507  0.0120
  363loPI   GL1 5797   2.938   9.868  10.089  0.0281 -0.2494  0.0855
  363loPI   GL2 5798   3.122  10.118  10.024  0.0783 -0.1746  0.0298
  363loPI   C1A 5799   2.866   9.653   9.593 -0.0694 -0.0540  0.3027
  363loPI   C2A 5800   2.708   9.534   9.079 -0.0182 -0.1718  0.0343
  363loPI   C3A 5801   2.543   9.893   8.800 -0.2075  0.0504 -0.0625
  363loPI   C4A 5802   2.317  10.081   8.491 -0.1580 -0.1493 -0.2421
  363loPI   C5A 5803   2.214  10.347   8.119 -0.1052  0.1471 -0.1075
  363loPI   C6A 5804   2.044  10.673   7.904 -0.2044 -0.1238 -0.1693
  363loPI   C1B 5805   3.050  10.117   9.613 -0.1305  0.1257 -0.1706
  363loPI   C2B 5806   2.680  10.064   9.312 -0.0666 -0.4523  0.0433
  363loPI   C3B 5807   2.630  10.372   8.936  0.0417  0.1038 -0.0456
  363loPI   C4B 5808   2.690  10.583   8.546  0.0170  0.0623 -0.1160
  364loPI    C1 5809  11.393   6.665  10.402 -0.0413 -0.2050  0.0285
  364loPI    C2 5810  11.052   6.509  10.541 -0.0942 -0.1917 -0.0852
  364loPI    C3 5811  11.375   6.523  10.776 -0.1605 -0.2403  0.0100
  364loPI   PO4 5812  11.294   6.776  10.074 -0.0475  0.0648 -0.0172
  364loPI   GL1 5813  11.380   7.067   9.848 -0.1062  0.1913 -0.0250
  364loPI   GL2 5814  11.705   6.936   9.882  0.0328  0.2832 -0.1044
  364loPI   C1A 5815  11.316   7.047   9.396 -0.0144 -0.0474 -0.0722
  364loPI   C2A 5816  11.294   7.107   8.928 -0.1693  0.1385  0.0568
  364loPI   C3A 5817  11.072   6.791   8.676  0.0324 -0.2126  0.1452
  364loPI   C4A 5818  11.418   6.609   8.338  0.0812  0.0072 -0.4596
  364loPI   C5A 5819  11.462   6.438   7.938 -0.1245  0.1487 -0.0767
  364loPI   C6A 5820  11.201   6.397   7.669 -0.4200 -0.0251  0.0987
  364loPI   C1B 5821  11.752   6.842   9.387  0.2354  0.2345  0.0255
  364loPI   C2B 5822  11.679   6.764   8.914 -0.1418  0.0107  0.1392
  364loPI   C3B 5823  11.681   6.966   8.584 -0.1227 -0.1438 -0.2501
  364loPI   C4B 5824  11.301   7.071   8.314 -0.0160 -0.3716 -0.1022
  365loPI    C1 5825   3.203   8.041  10.311  0.1509 -0.0307  0.1882
  365loPI    C2 5826   2.998   8.306  10.092  0.1027 -0.1903  0.0379
  365loPI    C3 5827   3.223   8.431  10.398 -0.0470  0.0075  0.0692
  365loPI   PO4 5828   3.315   7.838  10.113 -0.1346  0.0319 -0.0564
  365loPI   GL1 5829   3.287   7.521   9.873 -0.0796 -0.0987 -0.0279
  365loPI   GL2 5830   3.421   7.835   9.624 -0.1859  0.0864  0.3488
  365loPI   C1A 5831   3.252   7.341   9.555 -0.0884  0.0215  0.3219
  365loPI   C2A 5832   3.459   7.434   9.120  0.0966  0.1708  0.1722
  365loPI   C3A 5833   3.690   7.579   8.877  0.0689 -0.0411 -0.1450
  365loPI   C4A 5834   3.546   7.672   8.411 -0.2399  0.1537 -0.0226
  365loPI   C5A 5835   3.268   7.460   8.151 -0.1113 -0.1833  0.0178
  365loPI   C6A 5836   2.809   7.301   8.035  0.2864  0.0168  0.2941
  365loPI   C1B 5837   3.408   8.012   9.231 -0.0962  0.0626  0.0640
  365loPI   C2B 5838   3.539   8.082   8.751  0.1141  0.0175  0.1195
  365loPI   C3B 5839   3.913   8.377   8.604 -0.1406  0.1821 -0.1597
  365loPI   C4B 5840   4.177   8.426   8.286  0.0147 -0.0358  0.1071
  366loPI    C1 5841   0.037   2.942  10.469 -0.0319  0.0146  0.1973
  366loPI    C2 5842  -0.359   2.958  10.413  0.0057  0.1800 -0.0331
  366loPI    C3 5843  -0.176   3.240  10.630 -0.0095  0.0697  0.1250
  366loPI   PO4 5844   0.115   2.886  10.233 -0.1046  0.2071 -0.2601
  366loPI   GL1 5845  -0.224   2.929   9.926  0.2865  0.2390  0.0295
  366loPI   GL2 5846  -0.541   2.652   9.818  0.0432 -0.1592  0.1899
  366loPI   C1A 5847  -0.370   3.075   9.553  0.2358  0.0284 -0.2437
  366loPI   C2A 5848  -0.372   3.358   9.207 -0.0188 -0.0023 -0.1045
  366loPI   C3A 5849  -0.396   3.581   8.800 -0.0064  0.2041 -0.2015
  366loPI   C4A 5850  -0.580   3.835   8.522  0.1619 -0.1062 -0.0457
  366loPI   C5A 5851  -0.493   3.886   8.097 -0.1865 -0.0496 -0.1048
  366loPI   C6A 5852  -0.619   4.057   7.673 -0.1342  0.1030  0.1137
  366loPI   C1B 5853  -0.605   2.642   9.309 -0.1151  0.0339 -0.0003
  366loPI   C2B 5854  -0.435   2.549   9.003  0.2704  0.3448 -0.1677
  366loPI   C3B 5855  -0.487   2.652   8.509  0.0888  0.0510  0.1092
  366loPI   C4B 5856  -0.839   2.623   8.425  0.1698 -0.2693  0.3019
  367loPI    C1 5857   1.648   5.378  10.111 -0.0211  0.1385  0.0630
  367loPI    C2 5858   1.802   5.650  10.360 -0.0684 -0.0084  0.2550
  367loPI    C3 5859   1.872   5.677   9.967 -0.0037  0.2321  0.2812
  367loPI   PO4 5860   1.353   5.385  10.209 -0.0037 -0.2570  0.1005
  367loPI   GL1 5861   1.141   5.495   9.839  0.3485 -0.0564  0.1861
  367loPI   GL2 5862   1.050   5.821   9.794 -0.1103 -0.3804 -0.1868
  367loPI   C1A 5863   0.907   5.361   9.447 -0.0631 -0.1066  0.0452
  367loPI   C2A 5864   0.931   5.479   9.050 -0.0177 -0.1363  0.0096
  367loPI   C3A 5865   0.990   5.491   8.596 -0.0249  0.2053  0.1963
  367loPI   C4A 5866   1.037   5.437   8.169 -0.2176  0.0338 -0.2368
  367loPI   C5A 5867   1.241   5.700   7.806  0.1493 -0.1742 -0.0114
  367loPI   C6A 5868   1.504   5.939   7.873 -0.0144 -0.2398  0.3092
  367loPI   C1B 5869   0.902   5.930   9.407 -0.0546 -0.1464  0.2227
  367loPI   C2B 5870   0.976   5.981   8.933  0.2056 -0.0010 -0.0945
  367loPI   C3B 5871   1.094   5.961   8.622 -0.0317 -0.1925 -0.2469
  367loPI   C4B 5872   1.219   5.884   8.289 -0.0543 -0.1666  0.1361
  368loPI    C1 5873   0.873   5.675  10.284 -0.1081  0.1288 -0.0001
  368loPI    C2 5874   0.854   6.068  10.209  0.1419  0.1044 -0.2066
  368loPI    C3 5875   0.972   5.938  10.569 -0.1501  0.2171 -0.0664
  368loPI   PO4 5876   0.634   5.559  10.233  0.0334 -0.2846  0.2726
  368loPI   GL1 5877   0.478   5.710   9.859 -0.2979 -0.0028  0.0299
  368loPI   GL2 5878   0.403   5.960   9.950 -0.2369 -0.2071  0.1523
  368loPI   C1A 5879   0.426   5.298   9.431  0.0028  0.0283 -0.0412
  368loPI   C2A 5880   0.410   5.299   8.995  0.0838 -0.1690 -0.1342
  368loPI   C3A 5881   0.562   5.639   8.738 -0.0251  0.0393 -0.0021
  368loPI   C4A 5882   0.640   5.754   8.408  0.1156  0.1764 -0.0981
  368loPI   C5A 5883   0.402   6.003   8.217 -0.1532  0.1516  0.0592
  368loPI   C6A 5884   0.137   6.286   8.069 -0.2097 -0.0140 -0.0292
  368loPI   C1B 5885   0.381   5.919   9.441  0.1149  0.0493  0.3955
  368loPI   C2B 5886   0.404   6.080   9.035  0.1975 -0.1871  0.1305
  368loPI   C3B 5887   0.570   6.175   8.624  0.0472  0.3878  0.1807
  368loPI   C4B 5888   0.859   6.248   8.328  0.1515 -0.0459 -0.2821
  369loPI    C1 5889  11.507   4.814  10.290 -0.0534  0.0099 -0.2023
  369loPI    C2 5890  11.184   5.037  10.366 -0.2119 -0.3511  0.2285
  369loPI    C3 5891  11.480   5.018  10.634  0.0496 -0.2347 -0.0466
  369loPI   PO4 5892  11.488   4.818  10.051 -0.1404  0.1648  0.1230
  369loPI   GL1 5893  11.392   4.758   9.680  0.2922  0.4221  0.0378
  369loPI   GL2 5894  11.305   4.659   9.333 -0.1441 -0.3936  0.1117
  369loPI   C1A 5895  11.760   4.574   9.468 -0.0548  0.1958 -0.3513
  369loPI   C2A 5896  11.843   4.625   9.001  0.2671 -0.0334 -0.1967
  369loPI   C3A 5897  11.944   4.508   8.601  0.0421  0.1293 -0.1023
  369loPI   C4A 5898  11.850   4.417   8.238 -0.1106  0.1403 -0.1323
  369loPI   C5A 5899  11.809   4.356   7.940 -0.1452  0.2097  0.0964
  369loPI   C6A 5900  11.984   4.039   7.802 -0.0431 -0.1078  0.1275
  369loPI   C1B 5901  11.158   4.406   9.114 -0.1340  0.1032  0.3592
  369loPI   C2B 5902  10.985   4.346   8.659 -0.0331  0.1840 -0.0233
  369loPI   C3B 5903  10.846   4.200   8.349  0.0863  0.2778 -0.1268
  369loPI   C4B 5904  10.959   4.140   7.992  0.1021  0.2085 -0.4907
  370loPI    C1 5905   3.369  16.988  10.345  0.1762 -0.0100 -0.0476
  370loPI    C2 5906   3.393  16.748  10.664 -0.0057 -0.2230 -0.1918
  370loPI    C3 5907   3.237  16.611  10.322 -0.1417  0.1109 -0.2670
  370loPI   PO4 5908   3.597  17.023  10.228 -0.4067  0.1704 -0.2384
  370loPI   GL1 5909   3.778  16.777  10.002 -0.0708 -0.2416  0.0724
  370loPI   GL2 5910   4.047  16.935   9.882  0.1626  0.3072  0.3130
  370loPI   C1A 5911   3.463  16.801   9.479  0.0146 -0.1805  0.2412
  370loPI   C2A 5912   3.009  16.701   9.229  0.2833 -0.0704  0.2987
  370loPI   C3A 5913   2.708  16.367   8.963 -0.0680  0.1025  0.1903
  370loPI   C4A 5914   2.552  16.083   8.667 -0.1508 -0.2583  0.1539
  370loPI   C5A 5915   2.368  15.964   8.317 -0.2783 -0.0987 -0.2403
  370loPI   C6A 5916   2.291  15.498   8.132 -0.1806 -0.2710  0.1270
  370loPI   C1B 5917   4.037  16.967   9.443  0.0294  0.3771  0.1860
  370loPI   C2B 5918   4.089  16.991   9.015  0.0527  0.1612 -0.2924
  370loPI   C3B 5919   4.187  17.058   8.601 -0.3121 -0.2727 -0.0621
  370loPI   C4B 5920   4.311  17.169   8.281 -0.1401 -0.2247  0.2679
  371loPI    C1 5921  16.670   5.160  10.354 -0.0080  0.0525  0.0282
  371loPI    C2 5922  16.639   5.511  10.542 -0.1972 -0.0943  0.2770
  371loPI    C3 5923  16.967   5.287  10.588 -0.0517  0.0732  0.0725
  371loPI   PO4 5924  16.570   5.188  10.127  0.0788 -0.1743  0.0920
  371loPI   GL1 5925  16.746   5.212   9.752  0.1117  0.1531 -0.2509
  371loPI   GL2 5926  16.390   5.254   9.664  0.0760  0.1903 -0.3194
  371loPI   C1A 5927  16.833   5.272   9.275 -0.1356  0.0247  0.0857
  371loPI   C2A 5928  16.815   5.182   8.871  0.0714  0.0554  0.0001
  371loPI   C3A 5929  16.830   5.368   8.480 -0.2457  0.0522  0.1741
  371loPI   C4A 5930  16.592   5.474   8.036 -0.1671 -0.3244  0.5191
  371loPI   C5A 5931  16.519   5.864   7.775  0.0325 -0.0477  0.1003
  371loPI   C6A 5932  16.424   5.895   7.337  0.0842  0.0710  0.0693
  371loPI   C1B 5933  16.377   5.169   9.123  0.2918  0.2111 -0.0696
  371loPI   C2B 5934  16.368   5.374   8.708  0.0959 -0.0808  0.1557
  371loPI   C3B 5935  16.307   5.654   8.349  0.1717  0.3762  0.0431
  371loPI   C4B 5936  16.113   5.546   7.883 -0.0013 -0.1451 -0.2055
  372loPI    C1 5937   9.046  12.261  10.582 -0.2032  0.1034  0.0914
  372loPI    C2 5938   8.672  12.395  10.535 -0.2721 -0.1194 -0.0089
  372loPI    C3 5939   8.905  12.548  10.822 -0.3900  0.1241 -0.0411
  372loPI   PO4 5940   9.132  12.264  10.315 -0.1237  0.2984  0.2813
  372loPI   GL1 5941   9.151  11.933   9.945  0.0040 -0.1568  0.0300
  372loPI   GL2 5942   8.937  11.648   9.888 -0.2682 -0.3312  0.2837
  372loPI   C1A 5943   9.286  12.097   9.565  0.0528  0.2293 -0.0963
  372loPI   C2A 5944   9.264  12.362   9.324  0.1029  0.0079  0.2383
  372loPI   C3A 5945   9.247  12.379   8.942 -0.0852  0.1089 -0.1795
  372loPI   C4A 5946   9.107  12.503   8.558 -0.0065  0.1075 -0.0808
  372loPI   C5A 5947   8.997  12.664   8.162  0.1043 -0.0807  0.0768
  372loPI   C6A 5948   8.631  12.785   7.945  0.0761  0.0112 -0.1892
  372loPI   C1B 5949   8.866  11.735   9.411 -0.3442  0.2020 -0.0105
  372loPI   C2B 5950   8.979  11.964   8.996  0.1445 -0.2804 -0.0344
  372loPI   C3B 5951   8.996  11.991   8.566 -0.0222  0.1508 -0.2334
  372loPI   C4B 5952   8.764  12.174   8.289 -0.4609  0.1348  0.1463
  373loPI    C1 5953  13.704   9.830  10.259  0.1104  0.0886  0.1636
  373loPI    C2 5954  13.732   9.432  10.278  0.3182  0.0964  0.0471
  373loPI    C3 5955  13.606   9.639  10.596  0.0616 -0.0736  0.0586
  373loPI   PO4 5956  13.588   9.868  10.073  0.1989  0.1555  0.0923
  373loPI   GL1 5957  13.573   9.927   9.644 -0.1231 -0.0072  0.1144
  373loPI   GL2 5958  13.752   9.708   9.477 -0.1488 -0.1690 -0.1103
  373loPI   C1A 5959  13.499  10.214   9.234  0.1745  0.0916  0.0544
  373loPI   C2A 5960  13.481  10.281   8.753  0.4313  0.2696 -0.4915
  373loPI   C3A 5961  13.666  10.051   8.452  0.2058 -0.1642  0.0168
  373loPI   C4A 5962  13.721   9.782   8.101 -0.3617 -0.0629 -0.0545
  373loPI   C5A 5963  13.647   9.774   7.716  0.1766 -0.1288 -0.0572
  373loPI   C6A 5964  13.705   9.527   7.373 -0.0519 -0.1366  0.0597
  373loPI   C1B 5965  13.454   9.699   9.071  0.0390  0.0729  0.1842
  373loPI   C2B 5966  13.259   9.786   8.696 -0.0092 -0.1208  0.1397
  373loPI   C3B 5967  13.207   9.843   8.217  0.1560 -0.1554  0.0503
  373loPI   C4B 5968  13.229   9.917   7.875  0.0137 -0.0237  0.1255
  374loPI    C1 5969   7.886  16.844  10.350 -0.0946  0.1334 -0.0691
  374loPI    C2 5970   7.728  17.080  10.632  0.0468 -0.0718  0.1867
  374loPI    C3 5971   7.746  16.684  10.689 -0.1664 -0.1468 -0.2271
  374loPI   PO4 5972   7.810  16.874  10.103  0.0174 -0.4141 -0.1897
  374loPI   GL1 5973   8.089  16.754   9.892 -0.1212 -0.0347 -0.0737
  374loPI   GL2 5974   8.051  17.007   9.715 -0.2669  0.2002 -0.1998
  374loPI   C1A 5975   8.310  16.755   9.392  0.0905 -0.2587  0.1610
  374loPI   C2A 5976   8.369  16.699   8.970  0.3047 -0.2670 -0.2802
  374loPI   C3A 5977   8.302  16.701   8.545 -0.0989 -0.0611  0.0385
  374loPI   C4A 5978   8.464  16.671   8.129 -0.0179  0.1412  0.1568
  374loPI   C5A 5979   8.682  16.379   7.878  0.1462 -0.0126 -0.0847
  374loPI   C6A 5980   8.942  16.338   7.458  0.1641  0.4133  0.2741
  374loPI   C1B 5981   7.926  17.096   9.211  0.2939 -0.0102 -0.1149
  374loPI   C2B 5982   7.866  17.127   8.821 -0.2592 -0.1483 -0.2256
  374loPI   C3B 5983   7.860  16.919   8.446 -0.2378 -0.0776  0.0585
  374loPI   C4B 5984   7.619  16.904   8.061 -0.1832 -0.0843  0.0313
  375loPI    C1 5985  13.992  10.260  10.338 -0.1659 -0.0545  0.1934
  375loPI    C2 5986  13.648  10.406  10.480 -0.1782  0.2048 -0.0940
  375loPI    C3 5987  13.989  10.608  10.535 -0.0732 -0.0372  0.1648
  375loPI   PO4 5988  13.931  10.215  10.050 -0.0009  0.0468  0.0947
  375loPI   GL1 5989  13.958  10.241   9.657  0.0625 -0.2906 -0.0160
  375loPI   GL2 5990  13.973  10.521   9.416 -0.0101 -0.0977  0.0477
  375loPI   C1A 5991  14.006  10.015   9.180 -0.0911  0.1413  0.1624
  375loPI   C2A 5992  13.864   9.685   8.833 -0.0274  0.0047 -0.1636
  375loPI   C3A 5993  13.619   9.522   8.542 -0.3486 -0.0067  0.4140
  375loPI   C4A 5994  13.625   9.304   8.025  0.0727 -0.0975 -0.1746
  375loPI   C5A 5995  13.928   9.295   7.787 -0.1057 -0.1308  0.1112
  375loPI   C6A 5996  14.152   9.598   7.844  0.2703 -0.2944 -0.0563
  375loPI   C1B 5997  13.869  10.472   9.061  0.0709  0.3878  0.3088
  375loPI   C2B 5998  13.692  10.778   8.769  0.1037  0.1543  0.2192
  375loPI   C3B 5999  13.485  10.596   8.274 -0.0207 -0.1871 -0.0029
  375loPI   C4B 6000  13.290  10.489   7.882  0.0804 -0.0689  0.0242
  376loPI    C1 6001  15.508   8.078  10.415  0.0645  0.0436  0.0026
  376loPI    C2 6002  15.360   8.136  10.782 -0.2310 -0.1363 -0.0845
  376loPI    C3 6003  15.571   7.806  10.701  0.3145  0.1637  0.0643
  376loPI   PO4 6004  15.259   8.063  10.273  0.2579 -0.0479 -0.2816
  376loPI   GL1 6005  15.047   8.411  10.022  0.0339 -0.0006 -0.0608
  376loPI   GL2 6006  14.987   8.258   9.827  0.2195  0.1519 -0.0450
  376loPI   C1A 6007  15.234   8.685   9.788 -0.3813  0.0894 -0.2442
  376loPI   C2A 6008  15.136   9.015   9.515  0.0446  0.1463 -0.0940
  376loPI   C3A 6009  14.951   9.051   9.154 -0.3173  0.0735 -0.3406
  376loPI   C4A 6010  14.828   9.064   8.785 -0.0524 -0.2869 -0.0543
  376loPI   C5A 6011  14.760   8.902   8.299 -0.0549 -0.0042 -0.1840
  376loPI   C6A 6012  14.800   8.930   7.792 -0.0240 -0.4269 -0.0981
  376loPI   C1B 6013  14.831   8.168   9.501  0.1190  0.0191 -0.0525
  376loPI   C2B 6014  14.792   8.069   9.052 -0.0351  0.1343 -0.1534
  376loPI   C3B 6015  14.648   7.871   8.700  0.1954 -0.1248 -0.1011
  376loPI   C4B 6016  14.640   7.619   8.421 -0.2451 -0.1750  0.2225
  377loPI    C1 6017   5.346  11.760  10.258  0.2236 -0.3670  0.1940
  377loPI    C2 6018   5.082  11.772  10.558 -0.1494 -0.0534 -0.1357
  377loPI    C3 6019   5.317  12.088  10.485  0.0952 -0.2108 -0.0449
  377loPI   PO4 6020   5.216  11.656  10.076 -0.1211  0.0985 -0.1298
  377loPI   GL1 6021   5.198  11.731   9.650  0.2896  0.0771  0.3822
  377loPI   GL2 6022   4.929  11.866   9.668 -0.0372 -0.0791 -0.3052
  377loPI   C1A 6023   5.372  11.811   9.273 -0.2473  0.2507  0.3542
  377loPI   C2A 6024   5.761  11.965   9.113  0.1056  0.2106 -0.0314
  377loPI   C3A 6025   5.894  11.827   8.768  0.0389  0.1722  0.1274
  377loPI   C4A 6026   5.742  11.669   8.369 -0.1741  0.2051 -0.0349
  377loPI   C5A 6027   5.586  11.429   8.099 -0.0464 -0.1685 -0.2158
  377loPI   C6A 6028   5.425  11.144   7.797  0.3008  0.0345  0.0507
  377loPI   C1B 6029   4.881  11.809   9.224  0.1403 -0.0104  0.4527
  377loPI   C2B 6030   4.725  11.946   8.758 -0.2169  0.0127 -0.2658
  377loPI   C3B 6031   4.845  11.957   8.318  0.3361 -0.1262  0.1156
  377loPI   C4B 6032   4.582  11.743   8.006 -0.0268 -0.0946 -0.1375
  378loPI    C1 6033   8.200   2.342  10.398  0.1564  0.0305 -0.1583
  378loPI    C2 6034   8.314   2.622  10.660  0.0444 -0.0927  0.0241
  378loPI    C3 6035   8.568   2.332  10.554  0.1029 -0.0205 -0.0341
  378loPI   PO4 6036   7.977   2.445  10.258 -0.1787  0.1301  0.0769
  378loPI   GL1 6037   7.793   2.681   9.906  0.2831 -0.0269  0.1399
  378loPI   GL2 6038   8.017   2.916   9.932  0.0193 -0.2557 -0.3587
  378loPI   C1A 6039   7.786   2.552   9.483  0.0934 -0.2497 -0.2036
  378loPI   C2A 6040   7.800   2.562   9.067 -0.0303 -0.0595 -0.0558
  378loPI   C3A 6041   8.130   2.377   8.712 -0.0621 -0.1048  0.1653
  378loPI   C4A 6042   8.232   2.266   8.241 -0.2449  0.1780 -0.2164
  378loPI   C5A 6043   8.477   2.260   7.851  0.1055  0.3280 -0.1358
  378loPI   C6A 6044   8.611   2.232   7.470 -0.2049 -0.0322 -0.2024
  378loPI   C1B 6045   7.895   3.203   9.584 -0.1455  0.3172  0.1659
  378loPI   C2B 6046   7.790   3.242   9.119  0.4744  0.1536 -0.0662
  378loPI   C3B 6047   7.786   3.290   8.629 -0.1753 -0.0037 -0.0384
  378loPI   C4B 6048   7.918   3.168   8.241  0.0114  0.1555 -0.1266
  379loPI    C1 6049   6.941   1.479  10.499 -0.0925  0.2495 -0.1937
  379loPI    C2 6050   6.690   1.310  10.760  0.0245 -0.0678 -0.2821
  379loPI    C3 6051   6.755   1.704  10.772 -0.2062 -0.0345 -0.0325
  379loPI   PO4 6052   6.944   1.421  10.255 -0.2686  0.0830 -0.1212
  379loPI   GL1 6053   6.988   1.254   9.875 -0.4461 -0.1546 -0.3374
  379loPI   GL2 6054   7.395   1.422   9.853 -0.0600  0.2047  0.1456
  379loPI   C1A 6055   7.000   1.239   9.455  0.2429  0.3344 -0.0246
  379loPI   C2A 6056   6.946   1.219   8.949  0.3536  0.1521 -0.1032
  379loPI   C3A 6057   6.737   1.164   8.594 -0.2657 -0.0552 -0.1898
  379loPI   C4A 6058   6.261   1.149   8.522 -0.1365 -0.0336  0.2129
  379loPI   C5A 6059   6.135   1.368   8.183  0.2069  0.0493 -0.0611
  379loPI   C6A 6060   6.378   1.770   7.897  0.2974  0.1391 -0.1370
  379loPI   C1B 6061   7.419   1.522   9.426  0.2427 -0.0927 -0.2601
  379loPI   C2B 6062   7.404   1.546   9.020 -0.1423 -0.0820 -0.0793
  379loPI   C3B 6063   7.614   1.541   8.661  0.3466 -0.0749  0.2225
  379loPI   C4B 6064   7.599   1.268   8.349 -0.1610  0.1292 -0.2114
  380loPI    C1 6065  11.884   8.668  10.483 -0.4040  0.0103 -0.1233
  380loPI    C2 6066  11.693   8.969  10.665  0.1650  0.1342  0.2967
  380loPI    C3 6067  12.045   9.035  10.486  0.1249 -0.2138  0.0805
  380loPI   PO4 6068  11.677   8.559  10.294  0.2038 -0.0674  0.2729
  380loPI   GL1 6069  11.843   8.644   9.860 -0.3953 -0.0597  0.1786
  380loPI   GL2 6070  11.972   8.941  10.000 -0.1831 -0.1534 -0.1098
  380loPI   C1A 6071  11.846   8.582   9.316 -0.2839 -0.2068  0.4918
  380loPI   C2A 6072  11.809   8.661   8.861 -0.2584 -0.0699 -0.3406
  380loPI   C3A 6073  11.703   8.719   8.458 -0.0607  0.2005  0.3785
  380loPI   C4A 6074  11.754   8.706   7.973  0.0654  0.1431 -0.1993
  380loPI   C5A 6075  11.995   8.570   7.689 -0.3780 -0.0234 -0.1262
  380loPI   C6A 6076  12.116   8.345   7.214 -0.1087 -0.0600 -0.1703
  380loPI   C1B 6077  11.997   9.083   9.527 -0.2001  0.1096 -0.0318
  380loPI   C2B 6078  11.993   9.149   8.999  0.0104 -0.1632 -0.1055
  380loPI   C3B 6079  11.867   9.141   8.542  0.2378  0.2448 -0.1042
  380loPI   C4B 6080  11.492   9.181   8.249 -0.1660  0.1315 -0.0171
  381loPI    C1 6081  17.410   4.135  10.242 -0.0529 -0.0602  0.1966
  381loPI    C2 6082  17.372   3.788  10.437 -0.1085 -0.2428 -0.1323
  381loPI    C3 6083  17.065   3.932  10.224 -0.0698 -0.0141 -0.0356
  381loPI   PO4 6084  17.532   4.179  10.020  0.3702 -0.0552 -0.3251
  381loPI   GL1 6085  17.672   4.051   9.606 -0.1481  0.1427 -0.0271
  381loPI   GL2 6086  17.407   3.852   9.575  0.1293 -0.0164  0.0629
  381loPI   C1A 6087  17.962   4.209   9.296 -0.0980 -0.0425  0.2069
  381loPI   C2A 6088  18.142   4.095   8.946  0.4932  0.1014 -0.2625
  381loPI   C3A 6089  18.420   3.940   8.548 -0.1540  0.1367 -0.0485
  381loPI   C4A 6090  18.510   4.002   8.125  0.2494  0.1642  0.1134
  381loPI   C5A 6091  18.370   3.870   7.740 -0.0275 -0.2550  0.3244
  381loPI   C6A 6092  18.221   3.906   7.260  0.1011  0.1049 -0.2830
  381loPI   C1B 6093  17.261   4.153   9.289 -0.0010  0.1650 -0.1163
  381loPI   C2B 6094  17.224   4.297   8.859 -0.1372 -0.1566  0.4332
  381loPI   C3B 6095  17.312   4.571   8.515  0.2052 -0.1234  0.0257
  381loPI   C4B 6096  17.189   4.682   8.109  0.2546 -0.0033  0.1401
  382loPI    C1 6097   2.333  13.145  10.132  0.0204 -0.0105 -0.0001
  382loPI    C2 6098   1.975  13.071  10.294  0.0198 -0.1004 -0.0420
  382loPI    C3 6099   2.262  13.242  10.513 -0.0251 -0.0957  0.0133
  382loPI   PO4 6100   2.294  13.045   9.905  0.4478 -0.2495  0.0150
  382loPI   GL1 6101   2.269  12.690   9.807 -0.4204  0.0027  0.0563
  382loPI   GL2 6102   1.972  12.921   9.620 -0.0519 -0.0793 -0.0004
  382loPI   C1A 6103   2.430  12.700   9.321 -0.1125  0.2458 -0.1417
  382loPI   C2A 6104   2.467  12.545   8.876 -0.0294  0.0514  0.0673
  382loPI   C3A 6105   2.592  12.500   8.517  0.1196  0.1538 -0.0908
  382loPI   C4A 6106   2.409  12.498   8.165  0.1644  0.0926 -0.3411
  382loPI   C5A 6107   2.291  12.293   7.807 -0.1487  0.3233 -0.1630
  382loPI   C6A 6108   2.225  12.139   7.438 -0.0945  0.1877  0.2337
  382loPI   C1B 6109   1.990  12.948   9.164 -0.1468 -0.2605  0.2631
  382loPI   C2B 6110   2.107  12.887   8.704 -0.0608 -0.1003 -0.1271
  382loPI   C3B 6111   2.457  12.971   8.500 -0.3394 -0.1404  0.1082
  382loPI   C4B 6112   2.778  12.842   8.184 -0.3024 -0.0131 -0.0399
  383loPI    C1 6113   6.825   5.499  10.084 -0.1589  0.0583 -0.1392
  383loPI    C2 6114   6.527   5.239  10.023 -0.1714  0.0398 -0.0019
  383loPI    C3 6115   6.655   5.314  10.395 -0.0774  0.1295 -0.0517
  383loPI   PO4 6116   6.793   5.694   9.872 -0.0320  0.0999 -0.0798
  383loPI   GL1 6117   6.914   6.053   9.670 -0.2275 -0.2257 -0.4207
  383loPI   GL2 6118   6.687   6.301   9.504  0.1334  0.0012 -0.3663
  383loPI   C1A 6119   7.119   5.843   9.326  0.3951 -0.1601 -0.0902
  383loPI   C2A 6120   7.084   5.811   8.856 -0.0476 -0.3147 -0.1792
  383loPI   C3A 6121   6.967   5.748   8.353 -0.0283 -0.1790 -0.0073
  383loPI   C4A 6122   6.898   5.597   7.934  0.1472  0.0454 -0.1260
  383loPI   C5A 6123   6.451   5.617   7.684  0.1072  0.0055  0.1183
  383loPI   C6A 6124   6.227   5.455   7.372  0.0761  0.1098  0.2317
  383loPI   C1B 6125   6.668   5.923   9.075  0.0575  0.2884 -0.0206
  383loPI   C2B 6126   6.574   5.941   8.684  0.0386  0.1984  0.1985
  383loPI   C3B 6127   6.484   5.880   8.198 -0.1304 -0.0311 -0.0199
  383loPI   C4B 6128   6.483   6.101   7.779  0.1006  0.0718 -0.0833
  384loPI    C1 6129  10.321  11.454  10.410  0.0676 -0.1836 -0.1196
  384loPI    C2 6130  10.211  11.237  10.728 -0.0924  0.0310 -0.0262
  384loPI    C3 6131  10.297  11.625  10.771  0.3175 -0.0392 -0.1691
  384loPI   PO4 6132  10.351  11.310  10.239  0.1923 -0.1810 -0.1251
  384loPI   GL1 6133  10.269  11.029   9.898 -0.0122  0.0554 -0.0025
  384loPI   GL2 6134  10.533  10.795  10.000  0.0254 -0.1547  0.1947
  384loPI   C1A 6135  10.217  10.918   9.403 -0.0645  0.0263 -0.2551
  384loPI   C2A 6136   9.947  11.152   8.980  0.0828 -0.1101  0.1484
  384loPI   C3A 6137   9.765  11.404   8.640  0.0955 -0.1241  0.1912
  384loPI   C4A 6138   9.415  11.237   8.366 -0.0278  0.3842 -0.1126
  384loPI   C5A 6139   9.000  11.229   8.180  0.1715 -0.1094 -0.1347
  384loPI   C6A 6140   8.797  11.177   8.506  0.0502  0.2186  0.0824
  384loPI   C1B 6141  10.783  10.753   9.678 -0.2442 -0.3081 -0.1430
  384loPI   C2B 6142  10.925  10.891   9.254  0.0561 -0.0516 -0.4202
  384loPI   C3B 6143  11.160  10.841   8.824  0.1534  0.0057 -0.1775
  384loPI   C4B 6144  11.251  10.991   8.350 -0.0294  0.0263 -0.2789
  385loPI    C1 6145  11.122  10.207  10.585  0.3349 -0.1592  0.1093
  385loPI    C2 6146  11.123   9.826  10.709 -0.1623 -0.1606  0.1284
  385loPI    C3 6147  10.904  10.099  10.902 -0.0423  0.0760 -0.0638
  385loPI   PO4 6148  11.234  10.240  10.308  0.2693  0.0813  0.1429
  385loPI   GL1 6149  11.029  10.493   9.922  0.0313 -0.0121 -0.4231
  385loPI   GL2 6150  11.242  10.641   9.883 -0.2891 -0.0984  0.4433
  385loPI   C1A 6151  11.077  10.296   9.457 -0.1051 -0.0990  0.4261
  385loPI   C2A 6152  11.037  10.394   8.938 -0.3545 -0.0753 -0.0766
  385loPI   C3A 6153  10.810  10.349   8.589  0.1537 -0.0211  0.1672
  385loPI   C4A 6154  10.485  10.561   8.414  0.1308 -0.3558 -0.0721
  385loPI   C5A 6155  10.127  10.829   8.362 -0.5302  0.0748 -0.2245
  385loPI   C6A 6156  10.087  11.133   8.318  0.1023 -0.1456  0.0461
  385loPI   C1B 6157  11.387  10.939   9.614  0.5297 -0.1271  0.3160
  385loPI   C2B 6158  11.337  11.176   9.185  0.3517  0.4587 -0.0163
  385loPI   C3B 6159  11.340  11.388   8.805  0.1478 -0.1840  0.0648
  385loPI   C4B 6160  11.500  11.427   8.448  0.0695  0.0066  0.1839
  386loPI    C1 6161   2.373  16.264  10.584 -0.0731  0.0341  0.0683
  386loPI    C2 6162   2.384  16.254  10.984 -0.1779  0.0616  0.0721
  386loPI    C3 6163   2.445  16.599  10.791 -0.0087  0.0258  0.0597
  386loPI   PO4 6164   2.567  16.142  10.465  0.2178 -0.2897  0.4217
  386loPI   GL1 6165   2.680  15.750  10.064  0.2949  0.1166 -0.1945
  386loPI   GL2 6166   2.566  15.978   9.901  0.0967 -0.0100 -0.2191
  386loPI   C1A 6167   2.892  15.557   9.719 -0.2880  0.1037  0.0377
  386loPI   C2A 6168   2.882  15.220   9.372 -0.1451  0.1799  0.0925
  386loPI   C3A 6169   2.813  14.939   8.949 -0.2133 -0.1864  0.3812
  386loPI   C4A 6170   2.608  15.125   8.648  0.1212  0.3581  0.1284
  386loPI   C5A 6171   2.226  15.115   8.478  0.1199 -0.1890  0.0177
  386loPI   C6A 6172   2.069  15.092   8.128 -0.1208  0.2572 -0.0933
  386loPI   C1B 6173   2.447  15.751   9.620 -0.0045 -0.3057  0.1656
  386loPI   C2B 6174   2.490  15.577   9.248 -0.0187 -0.0829  0.0524
  386loPI   C3B 6175   2.410  15.190   9.088 -0.1692  0.0542 -0.1481
  386loPI   C4B 6176   2.055  14.941   8.931  0.1084  0.0221  0.1028
  387loPI    C1 6177   4.043  10.028  10.371 -0.0523  0.0822 -0.1951
  387loPI    C2 6178   3.781  10.215  10.608  0.1703  0.0013  0.1214
  387loPI    C3 6179   3.683   9.867  10.438  0.0957 -0.0625  0.2925
  387loPI   PO4 6180   4.090  10.254  10.202 -0.1045  0.0340  0.2170
  387loPI   GL1 6181   4.279  10.244   9.919 -0.0008  0.2858 -0.0057
  387loPI   GL2 6182   4.529  10.378   9.808 -0.2007  0.4645  0.0278
  387loPI   C1A 6183   4.176  10.069   9.513 -0.0310 -0.0544  0.3035
  387loPI   C2A 6184   4.382  10.107   9.216  0.1488  0.1866  0.3273
  387loPI   C3A 6185   4.400   9.980   8.839 -0.1240 -0.1045 -0.1014
  387loPI   C4A 6186   4.697   9.751   8.563  0.0091 -0.5518 -0.1378
  387loPI   C5A 6187   4.844   9.837   8.165  0.1465 -0.0912  0.0506
  387loPI   C6A 6188   4.842   9.672   7.777 -0.0047  0.1196 -0.0324
  387loPI   C1B 6189   4.617  10.474   9.491  0.0238  0.1200  0.0492
  387loPI   C2B 6190   4.387  10.632   9.116  0.0266 -0.1534  0.0588
  387loPI   C3B 6191   4.290  10.587   8.568  0.2505  0.0751 -0.1299
  387loPI   C4B 6192   4.070  10.647   8.245  0.0565 -0.1503  0.0489
  388loPI    C1 6193   8.120  16.070  10.473 -0.1623 -0.0033 -0.0675
  388loPI    C2 6194   8.382  16.321  10.641 -0.0519 -0.0344 -0.1918
  388loPI    C3 6195   8.356  15.943  10.770 -0.2666  0.0577  0.0423
  388loPI   PO4 6196   8.004  16.391  10.256 -0.1126  0.0518 -0.1829
  388loPI   GL1 6197   7.816  16.309   9.897  0.0624  0.0993 -0.3319
  388loPI   GL2 6198   7.679  16.459   9.757  0.1056  0.0332 -0.2281
  388loPI   C1A 6199   7.853  15.929   9.613  0.0939  0.0120  0.1566
  388loPI   C2A 6200   7.795  15.834   9.206  0.2363 -0.0597  0.0195
  388loPI   C3A 6201   7.812  15.876   8.822 -0.0818  0.1478  0.0217
  388loPI   C4A 6202   7.936  15.954   8.377  0.5717  0.2366  0.1451
  388loPI   C5A 6203   7.866  15.744   8.111  0.1698  0.1244  0.3464
  388loPI   C6A 6204   7.453  15.625   7.882  0.0430 -0.0037  0.0058
  388loPI   C1B 6205   7.775  16.671   9.424 -0.1348 -0.2961 -0.0195
  388loPI   C2B 6206   7.819  16.649   8.949  0.0073  0.1565  0.2997
  388loPI   C3B 6207   7.864  16.441   8.570  0.0274  0.4472  0.0711
  388loPI   C4B 6208   7.953  16.492   8.131 -0.1790  0.1447  0.1784
  389loPI    C1 6209  13.953  16.205  11.100 -0.0487 -0.1752  0.1475
  389loPI    C2 6210  13.678  16.326  11.364 -0.0473 -0.3101  0.2118
  389loPI    C3 6211  14.064  16.315  11.468  0.0270  0.1954  0.0182
  389loPI   PO4 6212  13.735  16.226  10.875  0.0138 -0.1564  0.4908
  389loPI   GL1 6213  13.730  16.262  10.473 -0.0652 -0.0318 -0.1678
  389loPI   GL2 6214  14.020  15.979  10.383 -0.2883  0.1816  0.0384
  389loPI   C1A 6215  13.735  16.582  10.219 -0.1142 -0.2162  0.1174
  389loPI   C2A 6216  13.775  16.949   9.986  0.3135 -0.0948  0.0845
  389loPI   C3A 6217  13.737  17.027   9.516  0.1371  0.1074 -0.0271
  389loPI   C4A 6218  13.854  17.341   9.254 -0.1463 -0.3175  0.0890
  389loPI   C5A 6219  14.161  17.415   8.910  0.0060 -0.0617  0.2756
  389loPI   C6A 6220  14.535  17.498   8.563 -0.3021  0.2063  0.0565
  389loPI   C1B 6221  14.100  16.232  10.065  0.0179 -0.1886  0.0870
  389loPI   C2B 6222  13.960  16.621   9.726 -0.1390  0.2066  0.1693
  389loPI   C3B 6223  14.059  16.731   9.334 -0.1379  0.0040 -0.2386
  389loPI   C4B 6224  13.855  16.868   9.031  0.0871 -0.3938  0.0485
  390loPI    C1 6225  10.690  11.899  10.751 -0.0744  0.0224 -0.0539
  390loPI    C2 6226  10.705  11.765  11.128 -0.1380  0.2163  0.0190
  390loPI    C3 6227  10.925  12.081  11.018 -0.0245  0.0842 -0.1395
  390loPI   PO4 6228  10.735  11.785  10.508 -0.0267 -0.2430 -0.5712
  390loPI   GL1 6229  10.913  11.733  10.081  0.1757  0.2099  0.1344
  390loPI   GL2 6230  10.578  11.748  10.003 -0.0374 -0.1669 -0.0292
  390loPI   C1A 6231  11.060  11.882   9.706 -0.0514 -0.1228 -0.0745
  390loPI   C2A 6232  11.365  11.788   9.275  0.1618 -0.1626 -0.4142
  390loPI   C3A 6233  11.546  11.814   8.816 -0.1387 -0.2354 -0.3844
  390loPI   C4A 6234  11.647  11.972   8.387 -0.3270 -0.3644 -0.0034
  390loPI   C5A 6235  11.347  11.734   8.054  0.0944 -0.3744  0.3753
  390loPI   C6A 6236  11.111  11.383   7.848 -0.0052 -0.1710 -0.0692
  390loPI   C1B 6237  10.279  12.066   9.816 -0.0015 -0.0303 -0.0907
  390loPI   C2B 6238  10.317  12.160   9.358  0.3954 -0.1897  0.2307
  390loPI   C3B 6239  10.175  12.284   8.958 -0.1818  0.2055  0.1403
  390loPI   C4B 6240  10.410  12.350   8.676  0.4018 -0.1103 -0.1648
  391loPI    C1 6241  18.242   6.657  10.156  0.0374 -0.3198  0.0397
  391loPI    C2 6242  17.895   6.808  10.025  0.2413  0.0505 -0.0913
  391loPI    C3 6243  17.905   6.588  10.360 -0.0997  0.1370 -0.0206
  391loPI   PO4 6244  18.407   6.795  10.160 -0.2133  0.0074 -0.1274
  391loPI   GL1 6245  18.289   7.093   9.819  0.3473 -0.2301 -0.0614
  391loPI   GL2 6246  18.276   6.747   9.655 -0.2352 -0.0601 -0.1034
  391loPI   C1A 6247  18.624   7.348   9.783  0.1253 -0.0283  0.2157
  391loPI   C2A 6248  18.850   7.692   9.499  0.0192  0.1554  0.1142
  391loPI   C3A 6249  19.075   7.906   9.224 -0.0366 -0.0679  0.0688
  391loPI   C4A 6250  19.076   7.795   8.797  0.0309 -0.2141  0.0796
  391loPI   C5A 6251  18.810   7.668   8.431 -0.1638 -0.2925  0.1258
  391loPI   C6A 6252  18.490   7.549   8.172 -0.0534  0.1560  0.0577
  391loPI   C1B 6253  18.156   6.921   9.254  0.1744  0.3448 -0.1300
  391loPI   C2B 6254  18.056   6.964   8.824 -0.3278 -0.2936  0.1155
  391loPI   C3B 6255  18.310   6.850   8.375  0.0156  0.2121 -0.0399
  391loPI   C4B 6256  18.648   6.810   8.076  0.1560 -0.1302  0.0320
  392loPI    C1 6257  17.703   5.894   9.997  0.0908  0.0578  0.3734
  392loPI    C2 6258  17.478   6.076  10.272 -0.3096  0.1163  0.0173
  392loPI    C3 6259  17.682   6.293  10.006  0.2354  0.0660  0.3780
  392loPI   PO4 6260  17.557   5.659   9.946  0.2322 -0.1876  0.1766
  392loPI   GL1 6261  17.205   5.454   9.661  0.2534 -0.2838 -0.1026
  392loPI   GL2 6262  17.420   5.190   9.626  0.2130 -0.0172 -0.0207
  392loPI   C1A 6263  17.508   5.695   9.364  0.0782 -0.0594 -0.2630
  392loPI   C2A 6264  17.490   5.999   9.021  0.3689  0.0749  0.0745
  392loPI   C3A 6265  17.649   6.230   8.577  0.1587  0.2105  0.0601
  392loPI   C4A 6266  17.730   6.132   8.102  0.2969 -0.0275  0.0680
  392loPI   C5A 6267  18.072   6.249   7.903  0.0591  0.0934 -0.1340
  392loPI   C6A 6268  18.518   6.301   7.584 -0.3235  0.2809 -0.0028
  392loPI   C1B 6269  17.268   5.016   9.284 -0.2180  0.0373 -0.4660
  392loPI   C2B 6270  17.277   4.951   8.895 -0.3558  0.0402  0.4888
  392loPI   C3B 6271  17.289   5.108   8.361  0.0743  0.1044 -0.1636
  392loPI   C4B 6272  17.453   5.119   8.012  0.0332  0.1288 -0.0815
  393loPI    C1 6273   1.263   1.297  10.811 -0.2591  0.1908 -0.0438
  393loPI    C2 6274   1.221   1.660  10.974 -0.1312  0.1767  0.0209
  393loPI    C3 6275   1.472   1.394  11.137 -0.3750 -0.0126  0.0929
  393loPI   PO4 6276   1.357   1.311  10.592  0.0724  0.1420  0.1597
  393loPI   GL1 6277   1.449   1.134  10.199 -0.0124  0.3882  0.1653
  393loPI   GL2 6278   1.278   0.848  10.124 -0.4928 -0.1473 -0.1505
  393loPI   C1A 6279   1.413   1.276   9.792 -0.0611  0.0530 -0.3014
  393loPI   C2A 6280   1.356   1.271   9.373 -0.0163 -0.1400  0.1075
  393loPI   C3A 6281   1.303   1.185   8.947  0.2463  0.0387  0.3112
  393loPI   C4A 6282   1.481   1.017   8.655 -0.1733  0.3488  0.3433
  393loPI   C5A 6283   1.399   1.126   8.150  0.0064  0.0726  0.1665
  393loPI   C6A 6284   1.004   1.166   7.945  0.2705  0.4104  0.1544
  393loPI   C1B 6285   1.321   0.842   9.562  0.0002 -0.2875  0.1053
  393loPI   C2B 6286   1.330   0.791   9.219  0.0246  0.2374  0.1034
  393loPI   C3B 6287   1.221   0.623   8.842  0.1117  0.0415 -0.0495
  393loPI   C4B 6288   1.214   0.289   8.646 -0.3003 -0.4911 -0.1125
  394loPI    C1 6289   7.605  15.090  10.467  0.2733  0.1733  0.1709
  394loPI    C2 6290   7.719  15.000  10.840  0.0627  0.0373  0.2046
  394loPI    C3 6291   7.357  15.158  10.774 -0.0066 -0.1881  0.0324
  394loPI   PO4 6292   7.666  14.842  10.333 -0.1431  0.0431  0.1121
  394loPI   GL1 6293   7.684  14.618   9.968 -0.0764  0.1150  0.0059
  394loPI   GL2 6294   7.574  14.429   9.860 -0.0700 -0.1980  0.3269
  394loPI   C1A 6295   7.971  14.621   9.629 -0.3312  0.1420 -0.0135
  394loPI   C2A 6296   8.017  14.642   9.251  0.1406  0.3395 -0.0524
  394loPI   C3A 6297   8.171  14.694   8.806 -0.2060  0.1602  0.0906
  394loPI   C4A 6298   8.312  14.781   8.491  0.1543 -0.2468 -0.1151
  394loPI   C5A 6299   8.637  14.609   8.204  0.0061  0.2697  0.1994
  394loPI   C6A 6300   9.048  14.838   8.239 -0.2280 -0.0320  0.1898
  394loPI   C1B 6301   7.401  14.614   9.518  0.1370  0.0393 -0.2417
  394loPI   C2B 6302   7.245  14.540   9.087  0.2056 -0.2329 -0.0194
  394loPI   C3B 6303   7.201  14.645   8.643 -0.0139  0.0614 -0.2997
  394loPI   C4B 6304   7.306  14.850   8.288  0.1821 -0.1455 -0.4109
  395loPI    C1 6305  14.835   1.367  10.437  0.1042  0.1099  0.0993
  395loPI    C2 6306  15.110   1.651  10.502  0.1931  0.0546 -0.0311
  395loPI    C3 6307  14.890   1.658  10.168  0.3106 -0.1218 -0.1131
  395loPI   PO4 6308  14.832   1.014  10.412  0.1346 -0.1626  0.1172
  395loPI   GL1 6309  14.846   0.679  10.021 -0.1279  0.0216 -0.0797
  395loPI   GL2 6310  15.036   0.935   9.844  0.1443  0.0183 -0.2045
  395loPI   C1A 6311  14.973   0.447   9.625  0.2904 -0.1714  0.0976
  395loPI   C2A 6312  14.938   0.351   9.197 -0.1490 -0.0054 -0.0127
  395loPI   C3A 6313  14.849   0.391   8.809  0.0516  0.1816  0.2408
  395loPI   C4A 6314  14.887   0.490   8.347  0.6360 -0.1128  0.2360
  395loPI   C5A 6315  15.173   0.792   8.031 -0.1819 -0.2294 -0.1643
  395loPI   C6A 6316  15.372   1.198   7.818 -0.1112 -0.0434  0.0070
  395loPI   C1B 6317  15.133   0.910   9.493 -0.1045  0.1767 -0.1234
  395loPI   C2B 6318  15.338   1.131   9.108 -0.0319 -0.0870 -0.0458
  395loPI   C3B 6319  15.539   1.329   8.807  0.1653  0.0700 -0.2907
  395loPI   C4B 6320  15.768   1.652   8.967 -0.4717 -0.3239  0.1187
  396loPI    C1 6321  12.939   1.627  10.549  0.2158 -0.4014 -0.0314
  396loPI    C2 6322  13.067   1.799  10.887 -0.2315 -0.0713 -0.0213
  396loPI    C3 6323  12.823   1.484  10.904  0.0099 -0.2626 -0.0415
  396loPI   PO4 6324  13.126   1.585  10.397 -0.2615  0.0443  0.1359
  396loPI   GL1 6325  13.124   1.502   9.924 -0.3290  0.0240  0.1397
  396loPI   GL2 6326  13.002   1.293   9.660 -0.3776 -0.1196  0.0980
  396loPI   C1A 6327  13.010   1.860   9.629 -0.2144  0.1104  0.1149
  396loPI   C2A 6328  13.064   1.939   9.233 -0.0851  0.0171  0.1721
  396loPI   C3A 6329  12.952   2.024   8.834  0.0875  0.2009  0.0328
  396loPI   C4A 6330  13.147   2.085   8.470 -0.0300  0.1341  0.2496
  396loPI   C5A 6331  13.194   1.875   8.085 -0.2114 -0.1546  0.3032
  396loPI   C6A 6332  13.366   1.724   7.711 -0.1345 -0.5037  0.2041
  396loPI   C1B 6333  13.113   1.449   9.342 -0.1722 -0.2288 -0.0209
  396loPI   C2B 6334  13.199   1.495   8.973  0.1117 -0.2934 -0.0544
  396loPI   C3B 6335  13.481   1.787   8.775  0.0298 -0.2192 -0.1122
  396loPI   C4B 6336  13.653   1.983   8.474  0.2409 -0.0877 -0.1872
  397loPI    C1 6337  15.135   5.827   9.887  0.0499  0.2086  0.0840
  397loPI    C2 6338  14.976   5.933  10.239  0.2151  0.1697  0.1710
  397loPI    C3 6339  15.177   6.202  10.021 -0.0365  0.2405  0.0229
  397loPI   PO4 6340  15.315   5.608   9.843  0.1850 -0.0602 -0.0907
  397loPI   GL1 6341  15.275   5.270   9.598 -0.1135 -0.0506  0.0734
  397loPI   GL2 6342  15.241   4.917   9.614 -0.1146 -0.0522 -0.1109
  397loPI   C1A 6343  15.000   5.242   9.284 -0.0146  0.0213 -0.0006
  397loPI   C2A 6344  14.928   4.971   8.959  0.0999 -0.2504  0.0788
  397loPI   C3A 6345  14.935   4.971   8.579 -0.0735  0.3346 -0.1517
  397loPI   C4A 6346  14.987   4.948   8.255 -0.1625 -0.0932 -0.0730
  397loPI   C5A 6347  14.650   5.022   7.962  0.1910 -0.0341 -0.0069
  397loPI   C6A 6348  14.513   4.971   7.477  0.1946  0.4141 -0.1410
  397loPI   C1B 6349  15.386   4.926   9.250 -0.1345 -0.0805  0.1750
  397loPI   C2B 6350  15.409   5.026   8.834 -0.0002  0.0882 -0.0238
  397loPI   C3B 6351  15.493   5.079   8.459  0.2767 -0.0385  0.4564
  397loPI   C4B 6352  15.369   5.204   8.006  0.1978 -0.0430  0.1066
  398loPI    C1 6353   3.513  10.689  10.265 -0.2043 -0.0752  0.0396
  398loPI    C2 6354   3.295  10.987  10.110  0.0626  0.0467 -0.1088
  398loPI    C3 6355   3.127  10.630  10.178 -0.1919  0.1510 -0.1802
  398loPI   PO4 6356   3.733  10.734  10.171 -0.0181  0.0382  0.0846
  398loPI   GL1 6357   3.853  10.482   9.726  0.1897 -0.1471 -0.0431
  398loPI   GL2 6358   3.569  10.651   9.705  0.1848 -0.2130  0.0353
  398loPI   C1A 6359   3.918  10.436   9.265  0.0623 -0.1987  0.1816
  398loPI   C2A 6360   4.009  10.363   8.889 -0.3640  0.0775  0.0613
  398loPI   C3A 6361   4.162  10.095   8.426  0.1298 -0.1790  0.0864
  398loPI   C4A 6362   4.111  10.188   7.989 -0.3087  0.1093  0.1014
  398loPI   C5A 6363   4.203  10.503   7.627  0.0942  0.1372  0.2685
  398loPI   C6A 6364   4.589  10.667   7.586  0.1254  0.0596 -0.1838
  398loPI   C1B 6365   3.424  10.428   9.375 -0.1541  0.0144 -0.1967
  398loPI   C2B 6366   3.491  10.147   9.052  0.2543 -0.1068 -0.3741
  398loPI   C3B 6367   3.644  10.029   8.648 -0.0131 -0.0749 -0.1045
  398loPI   C4B 6368   3.641  10.361   8.392  0.2823 -0.0627  0.0951
  399loPI    C1 6369   6.523  18.444  10.370 -0.1518  0.0549 -0.0075
  399loPI    C2 6370   6.454  18.791  10.557  0.0823  0.0197  0.1486
  399loPI    C3 6371   6.633  18.491  10.752 -0.0544 -0.1654 -0.0073
  399loPI   PO4 6372   6.432  18.434  10.175  0.4541 -0.1151  0.1585
  399loPI   GL1 6373   6.542  18.659   9.875  0.3193 -0.1636  0.0944
  399loPI   GL2 6374   6.524  18.984   9.809 -0.3363 -0.1017 -0.2335
  399loPI   C1A 6375   6.517  18.405   9.503 -0.1204 -0.5242  0.2076
  399loPI   C2A 6376   6.207  18.474   9.220  0.1499  0.0728 -0.1351
  399loPI   C3A 6377   5.856  18.646   9.059 -0.0237 -0.2092  0.1229
  399loPI   C4A 6378   5.449  18.451   8.748  0.1800  0.1641 -0.1859
  399loPI   C5A 6379   5.018  18.318   8.511  0.1666  0.1610  0.0620
  399loPI   C6A 6380   4.746  18.012   8.268 -0.1228  0.0945  0.0871
  399loPI   C1B 6381   6.430  18.920   9.396  0.1289  0.1306 -0.0056
  399loPI   C2B 6382   6.623  18.754   9.040 -0.0016  0.0220  0.0042
  399loPI   C3B 6383   6.679  18.634   8.580  0.3217  0.0982 -0.1205
  399loPI   C4B 6384   6.670  18.544   8.156 -0.1270  0.1048  0.0035
  400loPI    C1 6385   5.507  15.535  10.909  0.0921  0.0550 -0.0293
  400loPI    C2 6386   5.369  15.880  10.760 -0.0800  0.1159  0.2649
  400loPI    C3 6387   5.136  15.554  10.761  0.1277 -0.0412 -0.1332
  400loPI   PO4 6388   5.741  15.415  10.738 -0.3619 -0.1190 -0.1429
  400loPI   GL1 6389   5.898  15.356  10.275  0.0208 -0.0407  0.3374
  400loPI   GL2 6390   5.991  15.111  10.056  0.1656 -0.0725  0.0027
  400loPI   C1A 6391   5.656  15.465   9.915  0.2278  0.2351  0.0029
  400loPI   C2A 6392   5.547  15.288   9.414 -0.3113  0.0610  0.0882
  400loPI   C3A 6393   5.327  15.117   9.145  0.3184  0.0154 -0.2372
  400loPI   C4A 6394   5.347  15.037   8.677  0.2375  0.0856  0.0673
  400loPI   C5A 6395   5.513  15.205   8.178 -0.2098  0.2743  0.0640
  400loPI   C6A 6396   5.398  14.969   7.902  0.0989  0.0689  0.1362
  400loPI   C1B 6397   5.985  15.205   9.698  0.0778  0.1448 -0.0608
  400loPI   C2B 6398   5.965  15.488   9.366  0.2532  0.0045 -0.1251
  400loPI   C3B 6399   6.020  15.613   8.992 -0.0096 -0.3931  0.2245
  400loPI   C4B 6400   5.832  15.424   8.549 -0.0573 -0.0365 -0.0506
  401loPI    C1 6401   1.060  17.285  10.905  0.1880  0.1141  0.1026
  401loPI    C2 6402   0.794  16.998  10.987  0.1831  0.1350  0.1597
  401loPI    C3 6403   1.185  16.928  11.034  0.2004  0.0409 -0.1072
  401loPI   PO4 6404   0.966  17.313  10.641  0.1371 -0.2467 -0.0124
  401loPI   GL1 6405   0.986  17.207  10.277 -0.1303  0.2302  0.1850
  401loPI   GL2 6406   0.915  16.884  10.092 -0.1488  0.1503  0.2781
  401loPI   C1A 6407   0.877  17.586   9.968 -0.1542 -0.2134 -0.0689
  401loPI   C2A 6408   0.825  17.685   9.606 -0.0049  0.0424  0.1962
  401loPI   C3A 6409   0.813  17.584   9.220  0.0728  0.0740 -0.0677
  401loPI   C4A 6410   0.984  17.708   8.764 -0.1964 -0.2415  0.0723
  401loPI   C5A 6411   1.299  17.687   8.428 -0.0753  0.1019  0.2010
  401loPI   C6A 6412   1.304  17.483   8.029  0.1744 -0.0100  0.0494
  401loPI   C1B 6413   1.097  16.849   9.695 -0.1830 -0.0181 -0.1543
  401loPI   C2B 6414   1.150  16.954   9.295  0.0630 -0.3122 -0.0501
  401loPI   C3B 6415   1.020  17.250   8.950 -0.2116  0.1655  0.0316
  401loPI   C4B 6416   1.030  17.202   8.531  0.0793 -0.1476  0.1370
  402loPI    C1 6417   1.378   8.933  10.237  0.0556 -0.0711  0.0910
  402loPI    C2 6418   1.707   8.999  10.455  0.0104  0.0516  0.1235
  402loPI    C3 6419   1.347   9.077  10.609 -0.0200  0.1816 -0.0105
  402loPI   PO4 6420   1.513   8.692  10.118 -0.0719 -0.3449  0.2880
  402loPI   GL1 6421   1.685   8.576   9.774  0.1356 -0.0816  0.2466
  402loPI   GL2 6422   1.662   8.821   9.474 -0.1753  0.0440  0.1709
  402loPI   C1A 6423   1.472   8.344   9.439  0.1343  0.1370  0.1224
  402loPI   C2A 6424   1.380   8.406   9.028  0.0312  0.3065  0.1676
  402loPI   C3A 6425   1.248   8.396   8.616  0.2302  0.1298  0.3475
  402loPI   C4A 6426   1.217   8.235   8.165 -0.1576 -0.0213 -0.1858
  402loPI   C5A 6427   1.504   8.361   7.870  0.2076 -0.1533 -0.1904
  402loPI   C6A 6428   1.808   8.522   7.634 -0.1092  0.1888 -0.2600
  402loPI   C1B 6429   1.595   8.790   9.094  0.0401 -0.2060  0.0053
  402loPI   C2B 6430   1.512   8.828   8.695 -0.2118 -0.0770  0.1444
  402loPI   C3B 6431   1.683   8.818   8.274  0.0843  0.0419  0.1518
  402loPI   C4B 6432   1.528   8.981   7.859 -0.0115  0.5379  0.0831
  403loPI    C1 6433  18.032   3.728  10.164  0.1659  0.1308 -0.1875
  403loPI    C2 6434  17.886   3.981  10.436 -0.0223 -0.1094 -0.0613
  403loPI    C3 6435  18.151   3.703  10.545  0.1486  0.0013 -0.1900
  403loPI   PO4 6436  18.021   3.887   9.962  0.1200  0.2350 -0.0050
  403loPI   GL1 6437  17.985   3.674   9.553 -0.1137  0.0995 -0.0924
  403loPI   GL2 6438  18.347   3.495   9.720  0.2325  0.2095  0.2206
  403loPI   C1A 6439  17.754   3.730   9.132  0.1198  0.0933 -0.3135
  403loPI   C2A 6440  17.480   3.871   8.807  0.2768 -0.1135  0.1972
  403loPI   C3A 6441  17.361   4.021   8.447 -0.0037  0.1825  0.3178
  403loPI   C4A 6442  17.525   4.202   8.218 -0.0664  0.3853 -0.0416
  403loPI   C5A 6443  17.640   4.497   7.942  0.2750 -0.0516  0.0356
  403loPI   C6A 6444  17.439   4.746   7.672 -0.0169  0.0375 -0.1490
  403loPI   C1B 6445  18.739   3.469   9.501  0.0010 -0.1525 -0.1763
  403loPI   C2B 6446  18.869   3.147   9.219 -0.0545 -0.1443  0.0857
  403loPI   C3B 6447  18.970   2.711   9.187  0.1237  0.1436  0.1051
  403loPI   C4B 6448  19.061   2.470   8.923  0.1615 -0.0262 -0.0346
  404loPI    C1 6449   2.588   8.110  10.385  0.1230 -0.0771  0.0334
  404loPI    C2 6450   2.825   8.218  10.688 -0.0909  0.0624  0.1546
  404loPI    C3 6451   2.435   8.156  10.752 -0.1338  0.0717 -0.0887
  404loPI   PO4 6452   2.689   7.949  10.237  0.2092 -0.2873  0.0741
  404loPI   GL1 6453   2.911   7.787   9.822  0.0200 -0.0173  0.0895
  404loPI   GL2 6454   2.666   8.046   9.691  0.2581  0.0755  0.1064
  404loPI   C1A 6455   3.011   7.789   9.385  0.1500 -0.1277 -0.1594
  404loPI   C2A 6456   3.124   7.740   8.931 -0.0519  0.0064 -0.1183
  404loPI   C3A 6457   3.064   7.860   8.487 -0.1320 -0.2061  0.2013
  404loPI   C4A 6458   3.091   7.906   8.011 -0.0229 -0.3033  0.1563
  404loPI   C5A 6459   2.814   8.209   7.730 -0.1983  0.1198 -0.1569
  404loPI   C6A 6460   2.661   8.554   7.601 -0.0994 -0.0582  0.3083
  404loPI   C1B 6461   2.760   8.166   9.200 -0.5341  0.0311  0.1091
  404loPI   C2B 6462   3.094   8.236   8.882 -0.0069 -0.1170 -0.1513
  404loPI   C3B 6463   3.210   8.386   8.466  0.1748 -0.1200  0.0178
  404loPI   C4B 6464   3.115   8.437   8.034 -0.0128 -0.2074 -0.2037
  405loPI    C1 6465   8.329   5.971  10.268 -0.0256  0.1696 -0.4127
  405loPI    C2 6466   8.258   6.028  10.658 -0.3031 -0.0332 -0.4303
  405loPI    C3 6467   8.566   6.213  10.481 -0.0723 -0.0718 -0.0786
  405loPI   PO4 6468   8.030   5.895  10.151 -0.1657 -0.2589 -0.0488
  405loPI   GL1 6469   7.626   5.850   9.897 -0.1617  0.1427  0.0353
  405loPI   GL2 6470   7.405   6.120   9.880 -0.0244 -0.0888  0.2642
  405loPI   C1A 6471   7.614   5.768   9.465  0.0396 -0.0097  0.0308
  405loPI   C2A 6472   7.580   5.747   9.024 -0.1437 -0.1954 -0.0878
  405loPI   C3A 6473   7.604   5.915   8.499 -0.0173 -0.1110 -0.0141
  405loPI   C4A 6474   7.490   6.161   8.163 -0.4717 -0.1880  0.2240
  405loPI   C5A 6475   7.353   6.396   7.803  0.1958  0.1596  0.2908
  405loPI   C6A 6476   7.674   6.501   7.442 -0.2210 -0.0722  0.0293
  405loPI   C1B 6477   7.410   6.210   9.377 -0.1685  0.2513 -0.2400
  405loPI   C2B 6478   7.440   6.343   8.950  0.0247 -0.0038  0.2611
  405loPI   C3B 6479   7.487   6.511   8.549  0.3045  0.0310  0.3670
  405loPI   C4B 6480   7.235   6.644   8.223  0.1877  0.1547  0.1574
  406POPI    C1 6481   2.219   8.953  10.330 -0.2214 -0.0911 -0.0423
  406POPI    C2 6482   2.096   9.333  10.360 -0.0571 -0.0496  0.1267
  406POPI    C3 6483   2.205   9.132  10.688 -0.0512 -0.2125  0.0260
  406POPI   PO4 6484   2.340   8.947  10.127  0.1809 -0.1229  0.1086
  406POPI   GL1 6485   2.381   9.230   9.803 -0.0460 -0.1639  0.0742
  406POPI   GL2 6486   2.666   9.198   9.816 -0.1164  0.2363  0.3788
  406POPI   C1A 6487   2.397   9.503   9.445 -0.1557  0.2880  0.1010
  406POPI   D2A 6488   2.217   9.560   9.170  0.0752 -0.0198  0.0714
  406POPI   C3A 6489   2.292   9.470   8.814  0.3509  0.0200  0.3628
  406POPI   C4A 6490   2.286   9.564   8.306 -0.0862  0.2991 -0.0818
  406POPI   C1B 6491   2.606   9.039   9.369  0.0281 -0.0578 -0.0673
  406POPI   C2B 6492   2.582   9.056   8.930 -0.1688  0.0931  0.0632
  406POPI   C3B 6493   2.743   9.323   8.607 -0.0997  0.2096 -0.0343
  406POPI   C4B 6494   2.740   9.641   8.284  0.0728 -0.3324 -0.5302
  407POPI    C1 6495  13.407  11.265  10.161  0.1185  0.0007  0.0750
  407POPI    C2 6496  13.374  11.662  10.191 -0.1080 -0.0163  0.0706
  407POPI    C3 6497  13.572  11.456  10.472 -0.0185  0.0953  0.0904
  407POPI   PO4 6498  13.567  11.215   9.874 -0.0342 -0.1713 -0.1202
  407POPI   GL1 6499  13.857  11.344   9.581 -0.1362  0.0252  0.3524
  407POPI   GL2 6500  13.989  11.050   9.618 -0.0030 -0.2357 -0.2148
  407POPI   C1A 6501  13.745  11.550   9.277  0.1085 -0.0630  0.1138
  407POPI   D2A 6502  13.535  11.815   8.867  0.3232  0.0985  0.0562
  407POPI   C3A 6503  13.469  11.584   8.441 -0.0097  0.0772  0.2294
  407POPI   C4A 6504  13.543  11.391   8.087 -0.2273  0.0803  0.2211
  407POPI   C1B 6505  14.266  10.874   9.105  0.1427 -0.0819 -0.0536
  407POPI   C2B 6506  14.310  10.803   8.615 -0.1103 -0.2034  0.3623
  407POPI   C3B 6507  14.419  10.402   8.290  0.0809 -0.1552 -0.0239
  407POPI   C4B 6508  14.462  10.349   7.918  0.0328  0.1309  0.2084
  408POPI    C1 6509  13.969   7.319  10.402 -0.3969 -0.1770  0.1782
  408POPI    C2 6510  14.339   7.201  10.306 -0.1749  0.1058  0.6508
  408POPI    C3 6511  14.035   6.941  10.289 -0.0108 -0.0618  0.0009
  408POPI   PO4 6512  13.784   7.550  10.249 -0.1008  0.1060 -0.0144
  408POPI   GL1 6513  13.751   7.745   9.972 -0.2281  0.2961  0.0920
  408POPI   GL2 6514  13.849   7.944   9.850 -0.0631 -0.1571  0.1998
  408POPI   C1A 6515  13.560   7.714   9.541 -0.1360 -0.0756 -0.4563
  408POPI   D2A 6516  13.348   7.824   9.233  0.0521 -0.3405 -0.0033
  408POPI   C3A 6517  13.330   7.649   8.821 -0.0223  0.1657  0.0882
  408POPI   C4A 6518  13.366   7.609   8.355 -0.1251  0.1332  0.0540
  408POPI   C1B 6519  14.177   7.768   9.503  0.3118  0.0711  0.2541
  408POPI   C2B 6520  14.299   7.718   9.120  0.0142 -0.2377  0.3749
  408POPI   C3B 6521  14.256   7.395   8.729 -0.0899  0.0532 -0.3633
  408POPI   C4B 6522  13.998   7.093   8.621 -0.0866 -0.0900  0.1102
  409POPI    C1 6523   6.240   6.403  10.009  0.0352 -0.0937  0.2395
  409POPI    C2 6524   6.592   6.588   9.968  0.0347 -0.1145  0.1367
  409POPI    C3 6525   6.369   6.652  10.294  0.1253 -0.0877  0.1940
  409POPI   PO4 6526   6.103   6.472   9.807 -0.5433  0.1145  0.1050
  409POPI   GL1 6527   6.299   6.586   9.507  0.1369  0.1403  0.2772
  409POPI   GL2 6528   6.333   6.829   9.482 -0.0670 -0.1122 -0.0344
  409POPI   C1A 6529   6.422   6.528   9.033  0.0959  0.2997 -0.3148
  409POPI   D2A 6530   6.517   6.416   8.546  0.2317  0.0371  0.0084
  409POPI   C3A 6531   6.751   6.734   8.290  0.1425 -0.1511  0.1691
  409POPI   C4A 6532   6.966   7.088   8.271 -0.1638  0.0043  0.0423
  409POPI   C1B 6533   6.691   6.953   9.135 -0.1755  0.2117  0.1266
  409POPI   C2B 6534   6.803   7.012   8.790  0.0710  0.4416  0.1136
  409POPI   C3B 6535   7.142   6.775   8.723 -0.3334  0.1243 -0.3481
  409POPI   C4B 6536   7.418   7.010   8.497 -0.0755 -0.1195 -0.1164
  410POPI    C1 6537  14.648  15.369  10.893 -0.1955 -0.1841  0.1439
  410POPI    C2 6538  14.694  15.732  11.054 -0.0908 -0.0332 -0.2160
  410POPI    C3 6539  14.978  15.455  11.102 -0.2134 -0.1023  0.1393
  410POPI   PO4 6540  14.573  15.358  10.734  0.1453  0.1150 -0.0900
  410POPI   GL1 6541  14.519  15.292  10.269  0.0790 -0.0209 -0.3940
  410POPI   GL2 6542  14.315  15.093  10.188  0.4038  0.0836  0.1603
  410POPI   C1A 6543  14.404  15.625   9.969 -0.0941  0.0511 -0.1208
  410POPI   D2A 6544  14.419  15.799   9.536 -0.2245 -0.1926 -0.0606
  410POPI   C3A 6545  14.419  15.652   9.131  0.0680 -0.0641  0.1232
  410POPI   C4A 6546  14.265  15.402   8.718 -0.1441  0.1106  0.0426
  410POPI   C1B 6547  14.331  15.122   9.735 -0.3175  0.3291  0.1924
  410POPI   C2B 6548  14.344  15.187   9.338  0.2780  0.3778 -0.4333
  410POPI   C3B 6549  14.571  15.148   9.061 -0.0447 -0.1438 -0.0719
  410POPI   C4B 6550  14.766  15.175   8.641 -0.1588 -0.5067  0.1726
  411POPI    C1 6551   5.117   3.907  10.232 -0.1753  0.2441 -0.0446
  411POPI    C2 6552   5.278   4.225  10.413  0.0829  0.0889  0.0043
  411POPI    C3 6553   5.355   3.858  10.550  0.1425 -0.0211 -0.3168
  411POPI   PO4 6554   4.983   4.064  10.052  0.1882  0.0115 -0.3872
  411POPI   GL1 6555   4.981   4.205   9.644 -0.0850 -0.1100 -0.0731
  411POPI   GL2 6556   5.158   4.149   9.313 -0.1394  0.1859  0.0779
  411POPI   C1A 6557   4.646   3.934   9.426 -0.0386  0.0777 -0.0378
  411POPI   D2A 6558   4.333   4.061   9.200  0.0148 -0.0105  0.0257
  411POPI   C3A 6559   4.145   4.050   8.747 -0.2051 -0.1103 -0.1849
  411POPI   C4A 6560   4.190   4.062   8.285 -0.0736 -0.1382 -0.0459
  411POPI   C1B 6561   5.117   4.088   8.929  0.0826 -0.1125 -0.0772
  411POPI   C2B 6562   5.321   3.836   8.585 -0.1129  0.2313  0.0482
  411POPI   C3B 6563   5.409   3.407   8.448  0.0191 -0.2696  0.2253
  411POPI   C4B 6564   5.291   2.946   8.369 -0.0376 -0.2444  0.1996
  412POPI    C1 6565   7.863  12.104  10.311 -0.0528 -0.2616 -0.3339
  412POPI    C2 6566   7.518  11.937  10.427 -0.0096  0.0644  0.3100
  412POPI    C3 6567   7.846  11.711  10.384 -0.2474 -0.2148 -0.1166
  412POPI   PO4 6568   7.860  12.204   9.991 -0.0689 -0.2735 -0.0735
  412POPI   GL1 6569   7.688  12.288   9.592  0.2029  0.2556  0.0067
  412POPI   GL2 6570   7.459  12.008   9.556  0.1634 -0.0685 -0.3827
  412POPI   C1A 6571   7.863  12.204   9.187 -0.0981 -0.0188 -0.2653
  412POPI   D2A 6572   8.119  12.213   8.906 -0.2614 -0.0530 -0.2017
  412POPI   C3A 6573   8.217  12.151   8.445 -0.1866  0.0683 -0.2722
  412POPI   C4A 6574   8.305  12.492   8.143  0.2242  0.1127  0.0876
  412POPI   C1B 6575   7.445  12.046   9.045  0.0789 -0.2789 -0.1956
  412POPI   C2B 6576   7.685  12.319   8.738 -0.1300  0.1372  0.1152
  412POPI   C3B 6577   7.531  12.544   8.454  0.1526 -0.0475  0.1096
  412POPI   C4B 6578   7.289  12.527   8.144  0.0452 -0.1079  0.0749
  413POPI    C1 6579  15.568  17.092  11.117  0.0069  0.0414 -0.0968
  413POPI    C2 6580  15.391  17.359  10.878 -0.2334  0.0948  0.1369
  413POPI    C3 6581  15.635  17.482  11.171 -0.0245  0.0350 -0.0097
  413POPI   PO4 6582  15.484  16.869  10.852 -0.3622 -0.2859 -0.2111
  413POPI   GL1 6583  15.282  17.006  10.450 -0.3361 -0.0064 -0.1840
  413POPI   GL2 6584  14.967  17.183  10.530  0.5379 -0.2453  0.1372
  413POPI   C1A 6585  15.415  16.656  10.082  0.1869  0.2213  0.0556
  413POPI   D2A 6586  15.498  16.318   9.854  0.0433 -0.1030 -0.2878
  413POPI   C3A 6587  15.347  16.282   9.468 -0.0753  0.0487  0.0907
  413POPI   C4A 6588  15.355  16.018   9.112 -0.0833  0.1034  0.0252
  413POPI   C1B 6589  14.974  17.349  10.200  0.1059  0.1244 -0.1293
  413POPI   C2B 6590  14.823  17.631   9.898 -0.0128 -0.0418 -0.2138
  413POPI   C3B 6591  14.524  17.575   9.596 -0.1300  0.0171  0.2042
  413POPI   C4B 6592  14.191  17.745   9.311  0.1066  0.3220 -0.2741
  414POPI    C1 6593   5.505   5.870  10.057  0.2195  0.0127 -0.1384
  414POPI    C2 6594   5.716   6.210  10.056  0.0043  0.1488  0.0047
  414POPI    C3 6595   5.659   6.011  10.398 -0.0192  0.0626 -0.0492
  414POPI   PO4 6596   5.399   5.868   9.889 -0.0296  0.0822 -0.1719
  414POPI   GL1 6597   5.067   5.532   9.707  0.1451 -0.2936 -0.0679
  414POPI   GL2 6598   4.907   5.495   9.498 -0.0623  0.1001  0.5248
  414POPI   C1A 6599   5.151   5.726   9.179 -0.4310 -0.0031 -0.1758
  414POPI   D2A 6600   5.141   5.592   8.781 -0.1077 -0.1179 -0.1352
  414POPI   C3A 6601   5.401   5.766   8.419 -0.1438  0.1131  0.0363
  414POPI   C4A 6602   5.525   6.109   8.141 -0.2300  0.0071  0.0968
  414POPI   C1B 6603   4.729   5.357   9.072  0.1404 -0.0695 -0.1707
  414POPI   C2B 6604   4.796   5.244   8.618  0.3017 -0.0649 -0.0251
  414POPI   C3B 6605   4.732   5.255   8.188 -0.0284 -0.4414 -0.0079
  414POPI   C4B 6606   4.694   5.409   7.757 -0.1603  0.0438  0.3028
  415POPI    C1 6607   9.588  11.625  10.721  0.2571  0.1818 -0.1587
  415POPI    C2 6608   9.489  12.012  10.718  0.0740  0.1372 -0.0789
  415POPI    C3 6609   9.517  11.816  11.065  0.3045  0.1123 -0.1098
  415POPI   PO4 6610   9.834  11.607  10.512 -0.2264  0.1945  0.2292
  415POPI   GL1 6611   9.960  11.683  10.071  0.2843  0.3923 -0.2132
  415POPI   GL2 6612  10.128  11.531   9.807 -0.0359 -0.0341 -0.3699
  415POPI   C1A 6613   9.778  11.883   9.810  0.2674 -0.0175  0.1130
  415POPI   D2A 6614   9.824  12.047   9.328  0.3042 -0.0589  0.0098
  415POPI   C3A 6615   9.702  12.319   9.133 -0.0541  0.2399  0.1581
  415POPI   C4A 6616   9.700  12.499   8.685  0.0521 -0.1336 -0.3207
  415POPI   C1B 6617  10.451  11.690   9.545 -0.3742 -0.0505 -0.1354
  415POPI   C2B 6618  10.510  11.816   9.046  0.0179  0.2480 -0.0152
  415POPI   C3B 6619  10.615  11.882   8.632  0.1210  0.0035 -0.1064
  415POPI   C4B 6620  10.797  11.621   8.210  0.0206 -0.1500 -0.0352
  416POPI    C1 6621   9.746   3.666  10.499 -0.0831  0.1090  0.0622
  416POPI    C2 6622   9.832   4.057  10.510  0.0869  0.0702  0.1432
  416POPI    C3 6623   9.972   3.813  10.795 -0.1007 -0.0340  0.1475
  416POPI   PO4 6624   9.766   3.576  10.193 -0.0907 -0.2210  0.1035
  416POPI   GL1 6625   9.740   3.175   9.971 -0.3140  0.5144 -0.1369
  416POPI   GL2 6626   9.801   2.914   9.805  0.1202 -0.1863 -0.2405
  416POPI   C1A 6627   9.742   3.445   9.530 -0.1598 -0.0151 -0.0153
  416POPI   D2A 6628   9.756   3.352   9.185 -0.1768 -0.4304  0.0703
  416POPI   C3A 6629   9.943   3.492   8.808 -0.2087  0.2707  0.0850
  416POPI   C4A 6630   9.885   3.548   8.291 -0.1510  0.1697 -0.2716
  416POPI   C1B 6631   9.699   2.885   9.340 -0.0969 -0.0263 -0.4797
  416POPI   C2B 6632   9.542   2.722   8.951  0.1317  0.4035 -0.2223
  416POPI   C3B 6633   9.753   2.596   8.583  0.2741 -0.2177  0.1123
  416POPI   C4B 6634   9.820   2.582   8.080 -0.0547 -0.1260  0.0732
  417POPI    C1 6635   5.670   8.825  10.022  0.0719  0.1446 -0.2489
  417POPI    C2 6636   5.781   8.814  10.406 -0.1545  0.2345 -0.1787
  417POPI    C3 6637   5.395   8.855  10.311 -0.0947  0.2628 -0.4169
  417POPI   PO4 6638   5.867   8.901   9.900  0.3102 -0.1497  0.1434
  417POPI   GL1 6639   5.657   9.165   9.652  0.0532  0.2000 -0.0979
  417POPI   GL2 6640   5.591   9.483   9.642  0.0513 -0.2197 -0.0445
  417POPI   C1A 6641   5.844   9.245   9.235  0.4379 -0.1023  0.0232
  417POPI   D2A 6642   5.990   8.956   8.812  0.0873  0.3916  0.1386
  417POPI   C3A 6643   5.792   8.690   8.491  0.1533 -0.1184  0.0828
  417POPI   C4A 6644   5.677   8.538   8.047 -0.2287  0.1086 -0.0486
  417POPI   C1B 6645   5.472   9.666   9.353  0.2322 -0.2581 -0.1664
  417POPI   C2B 6646   5.313  10.038   9.218  0.0734  0.1539  0.1234
  417POPI   C3B 6647   5.453  10.333   8.913  0.3151 -0.1728  0.1765
  417POPI   C4B 6648   5.436  10.471   8.459  0.0890 -0.1025  0.1758
  418POPI    C1 6649   5.768   9.711  10.334 -0.0240 -0.1657  0.0505
  418POPI    C2 6650   5.387   9.742  10.450 -0.0516 -0.1373 -0.0472
  418POPI    C3 6651   5.612   9.439  10.583 -0.0816 -0.1028  0.0833
  418POPI   PO4 6652   5.786   9.812  10.139  0.0425 -0.0946  0.1935
  418POPI   GL1 6653   6.053   9.781   9.700  0.2069  0.2177  0.1690
  418POPI   GL2 6654   6.171  10.020   9.465  0.1966  0.2253 -0.1160
  418POPI   C1A 6655   6.236   9.369   9.528 -0.3182 -0.1379 -0.0085
  418POPI   D2A 6656   6.208   9.000   9.568 -0.0786 -0.1201  0.0160
  418POPI   C3A 6657   6.059   8.716   9.296  0.3759 -0.1596  0.3020
  418POPI   C4A 6658   5.612   8.810   9.159  0.2018 -0.0040  0.0783
  418POPI   C1B 6659   6.024   9.687   9.200 -0.1014  0.0758  0.1452
  418POPI   C2B 6660   5.799   9.426   8.816 -0.4785  0.1633  0.1221
  418POPI   C3B 6661   5.506   9.107   8.606 -0.0535  0.1346  0.1148
  418POPI   C4B 6662   5.618   9.086   8.225 -0.0717  0.2454  0.1961
  419POPI    C1 6663   8.795  12.675  10.041 -0.1383  0.4123  0.0434
  419POPI    C2 6664   9.124  12.756  10.254 -0.0078  0.0041  0.0073
  419POPI    C3 6665   8.777  12.932  10.346  0.1401  0.1589  0.2804
  419POPI   PO4 6666   8.745  12.368   9.989 -0.1855 -0.0112  0.0581
  419POPI   GL1 6667   8.766  12.142   9.591  0.1352 -0.1776 -0.0513
  419POPI   GL2 6668   8.411  12.177   9.675 -0.0584  0.0825  0.1671
  419POPI   C1A 6669   8.645  12.253   9.141  0.2186 -0.0008  0.0491
  419POPI   D2A 6670   8.626  12.292   8.715  0.1190 -0.3147  0.0464
  419POPI   C3A 6671   8.606  12.697   8.503  0.4411 -0.1088  0.1758
  419POPI   C4A 6672   8.332  13.011   8.377  0.1846 -0.1850  0.0354
  419POPI   C1B 6673   8.205  12.512   9.324  0.2743 -0.0563 -0.1602
  419POPI   C2B 6674   8.227  12.709   8.862 -0.0696  0.2297  0.1221
  419POPI   C3B 6675   8.061  12.662   8.527  0.1756 -0.0007  0.2121
  419POPI   C4B 6676   7.847  12.618   8.099  0.2766 -0.3202  0.0966
  420POPI    C1 6677   4.662  16.754  10.585 -0.1464  0.2892  0.0665
  420POPI    C2 6678   4.348  16.542  10.714  0.0797 -0.0221  0.1155
  420POPI    C3 6679   4.512  16.820  10.950 -0.2361  0.2338  0.0402
  420POPI   PO4 6680   4.594  16.876  10.338 -0.2226  0.1215 -0.0510
  420POPI   GL1 6681   4.721  16.684   9.968  0.0587 -0.1051  0.0173
  420POPI   GL2 6682   4.824  16.483   9.799  0.2246  0.4416  0.0642
  420POPI   C1A 6683   4.970  16.967   9.604  0.3694  0.0431  0.0930
  420POPI   D2A 6684   4.960  16.856   9.204 -0.1739  0.0271 -0.2704
  420POPI   C3A 6685   4.971  16.873   8.808  0.0748 -0.2262  0.1731
  420POPI   C4A 6686   4.796  16.972   8.320 -0.0624 -0.1564  0.0063
  420POPI   C1B 6687   4.957  16.435   9.461  0.3010 -0.0654  0.0060
  420POPI   C2B 6688   4.852  16.428   9.007 -0.3909 -0.3014 -0.1259
  420POPI   C3B 6689   4.932  16.433   8.509  0.1323 -0.2173 -0.0117
  420POPI   C4B 6690   4.864  16.546   8.055  0.0552  0.1186  0.0332
  421POPI    C1 6691   7.181  16.297  10.575  0.0494  0.2122 -0.0827
  421POPI    C2 6692   7.563  16.219  10.665 -0.0626 -0.2728  0.0004
  421POPI    C3 6693   7.297  16.274  10.958 -0.0605  0.0642 -0.0574
  421POPI   PO4 6694   7.195  16.093  10.339 -0.3349 -0.0071 -0.2225
  421POPI   GL1 6695   7.307  16.109   9.891  0.1977  0.1983  0.1291
  421POPI   GL2 6696   7.229  15.851   9.892  0.1840  0.2332  0.0436
  421POPI   C1A 6697   7.439  16.168   9.457  0.0597  0.3093  0.0308
  421POPI   D2A 6698   7.411  16.130   8.952  0.0787 -0.2620  0.1423
  421POPI   C3A 6699   7.437  16.112   8.573  0.0629  0.0351 -0.1526
  421POPI   C4A 6700   7.427  16.060   8.128  0.0101  0.1882  0.3452
  421POPI   C1B 6701   7.325  15.662   9.437 -0.1783  0.0084 -0.0035
  421POPI   C2B 6702   7.416  15.638   9.024  0.1821  0.2804  0.2085
  421POPI   C3B 6703   7.458  15.558   8.527  0.0665 -0.0003  0.2453
  421POPI   C4B 6704   7.530  15.276   8.186  0.1264  0.0311 -0.0423
  422POPI    C1 6705   0.965   7.942  10.276  0.0609  0.2898  0.0001
  422POPI    C2 6706   1.236   8.234  10.313  0.1473  0.2138 -0.0296
  422POPI    C3 6707   0.925   8.217  10.563  0.0887  0.3880 -0.0893
  422POPI   PO4 6708   1.069   7.856   9.971  0.0378 -0.0874  0.0996
  422POPI   GL1 6709   0.898   7.568   9.895  0.0615  0.2633  0.1506
  422POPI   GL2 6710   0.531   7.547   9.985  0.0844  0.1054  0.0161
  422POPI   C1A 6711   0.933   7.598   9.331  0.2387  0.1530 -0.0949
  422POPI   D2A 6712   0.997   7.480   8.873  0.0962 -0.0250  0.1898
  422POPI   C3A 6713   0.818   7.516   8.422  0.0859  0.1640  0.0594
  422POPI   C4A 6714   0.885   7.595   8.001 -0.0798 -0.0805 -0.1336
  422POPI   C1B 6715   0.570   7.222   9.588  0.0822 -0.1475 -0.0408
  422POPI   C2B 6716   0.274   7.167   9.290  0.0561 -0.3263 -0.2777
  422POPI   C3B 6717   0.132   7.039   8.806  0.2343 -0.0676 -0.1469
  422POPI   C4B 6718   0.324   7.170   8.414  0.0043 -0.1928  0.0207
  423POPI    C1 6719  16.187   5.740   9.797  0.3663  0.2648 -0.0836
  423POPI    C2 6720  16.041   5.920  10.123  0.1675  0.0790 -0.0674
  423POPI    C3 6721  16.301   5.618  10.160 -0.0008 -0.0680 -0.0733
  423POPI   PO4 6722  15.996   5.633   9.678  0.1971  0.2984 -0.0457
  423POPI   GL1 6723  16.021   5.811   9.317  0.2811  0.4653  0.0804
  423POPI   GL2 6724  15.696   5.813   9.296  0.1568  0.0612 -0.2462
  423POPI   C1A 6725  15.990   5.651   8.901  0.2777 -0.0455 -0.1163
  423POPI   D2A 6726  15.675   5.469   8.670  0.1672  0.1028  0.1738
  423POPI   C3A 6727  15.791   5.451   8.293  0.1950 -0.1157  0.2699
  423POPI   C4A 6728  15.850   5.897   8.148  0.2462  0.0314  0.0564
  423POPI   C1B 6729  15.596   5.399   9.151  0.2972  0.1694  0.1066
  423POPI   C2B 6730  15.847   5.126   9.023  0.0397  0.1925 -0.1624
  423POPI   C3B 6731  16.054   5.060   8.558 -0.2836 -0.0280 -0.1271
  423POPI   C4B 6732  16.191   5.166   8.174 -0.0130 -0.0365 -0.0863
  424POPI    C1 6733  13.223  14.506  10.445 -0.0306 -0.0773  0.1508
  424POPI    C2 6734  13.335  14.770  10.725  0.1301  0.1361 -0.1104
  424POPI    C3 6735  13.488  14.400  10.725  0.0196  0.0879  0.1666
  424POPI   PO4 6736  12.881  14.627  10.435  0.2702  0.2646  0.0819
  424POPI   GL1 6737  12.551  14.680  10.180 -0.2067 -0.1299  0.1844
  424POPI   GL2 6738  12.253  14.609  10.219 -0.0335  0.3845  0.0702
  424POPI   C1A 6739  12.447  14.698   9.650  0.0993 -0.0804  0.2130
  424POPI   D2A 6740  12.470  14.824   9.220  0.1694  0.3916 -0.2668
  424POPI   C3A 6741  12.707  15.067   8.932 -0.1372  0.2156 -0.0663
  424POPI   C4A 6742  12.955  15.482   8.743  0.0058  0.1965 -0.0887
  424POPI   C1B 6743  11.973  14.729   9.836  0.0890 -0.1931  0.1548
  424POPI   C2B 6744  11.914  14.739   9.375 -0.1706 -0.1448 -0.3494
  424POPI   C3B 6745  11.912  14.958   9.064  0.1310 -0.2937  0.0294
  424POPI   C4B 6746  12.042  15.091   8.634 -0.0009  0.2116 -0.0622
  425POPI    C1 6747   8.401  12.989  10.645 -0.3247  0.0309  0.1050
  425POPI    C2 6748   8.413  12.727  10.948  0.0097 -0.0425  0.0326
  425POPI    C3 6749   8.298  13.105  11.014  0.0936 -0.0544  0.2537
  425POPI   PO4 6750   8.293  12.796  10.375 -0.3048  0.0473 -0.0024
  425POPI   GL1 6751   8.246  12.874   9.922 -0.0681 -0.2467 -0.1170
  425POPI   GL2 6752   8.373  12.692   9.714  0.3165  0.3702 -0.1976
  425POPI   C1A 6753   8.489  13.129   9.689  0.1120  0.0122 -0.2768
  425POPI   D2A 6754   8.829  13.205   9.331  0.0072  0.1944 -0.2360
  425POPI   C3A 6755   8.736  13.519   9.002 -0.1230 -0.0746 -0.0293
  425POPI   C4A 6756   8.437  13.700   8.791 -0.1018 -0.1517  0.0166
  425POPI   C1B 6757   8.712  12.698   9.354 -0.2305  0.0154  0.1386
  425POPI   C2B 6758   8.853  12.725   8.967 -0.1406  0.2055  0.2949
  425POPI   C3B 6759   8.986  13.024   8.592  0.2136  0.3019  0.0062
  425POPI   C4B 6760   8.986  13.182   8.128  0.2606  0.1032 -0.1118
  426POPI    C1 6761  17.851   2.445  10.293  0.0234  0.2219  0.1834
  426POPI    C2 6762  18.101   2.185  10.465  0.1033  0.2021  0.0387
  426POPI    C3 6763  18.243   2.468  10.221 -0.0206  0.1546 -0.0898
  426POPI   PO4 6764  17.645   2.265  10.121 -0.1471  0.0702  0.0531
  426POPI   GL1 6765  17.876   2.172   9.703  0.1417  0.2889  0.0180
  426POPI   GL2 6766  18.103   2.126   9.918 -0.0071 -0.0568 -0.3241
  426POPI   C1A 6767  18.091   2.102   9.339  0.2288 -0.1485  0.2462
  426POPI   D2A 6768  18.466   2.026   9.009 -0.0016  0.0548 -0.1137
  426POPI   C3A 6769  18.520   1.864   8.651  0.3266  0.0505 -0.2778
  426POPI   C4A 6770  18.800   1.847   8.264  0.1573  0.0957  0.2780
  426POPI   C1B 6771  18.396   2.412   9.682  0.0740 -0.1245 -0.0551
  426POPI   C2B 6772  18.470   2.512   9.284 -0.0204 -0.1692 -0.2137
  426POPI   C3B 6773  18.551   2.507   8.851 -0.0471 -0.0623 -0.0114
  426POPI   C4B 6774  18.735   2.285   8.600 -0.0506 -0.1026  0.1438
  427POPI    C1 6775  16.240  12.832  10.564 -0.1160 -0.0192  0.1365
  427POPI    C2 6776  16.265  13.081  10.876  0.1941 -0.0450  0.1353
  427POPI    C3 6777  16.307  12.687  10.931 -0.0279 -0.0749  0.0990
  427POPI   PO4 6778  16.368  12.908  10.347  0.0655 -0.1165  0.2007
  427POPI   GL1 6779  16.295  12.858   9.907 -0.0532  0.1475 -0.3775
  427POPI   GL2 6780  16.530  13.056   9.911 -0.1762  0.0684 -0.0133
  427POPI   C1A 6781  16.006  12.910   9.603 -0.1614 -0.2125  0.0435
  427POPI   D2A 6782  16.106  13.271   9.439 -0.0579 -0.1556  0.3784
  427POPI   C3A 6783  16.190  13.220   9.067  0.0285  0.0909 -0.0758
  427POPI   C4A 6784  16.138  13.140   8.712  0.3169  0.2529  0.0389
  427POPI   C1B 6785  16.566  13.104   9.451  0.1892  0.1894 -0.3195
  427POPI   C2B 6786  16.582  12.851   9.070 -0.0453  0.0678 -0.0424
  427POPI   C3B 6787  16.469  12.744   8.626  0.0681 -0.0141  0.1446
  427POPI   C4B 6788  16.453  12.758   8.138 -0.0659  0.0316 -0.3909
  428POPI    C1 6789  15.606  12.157  10.144 -0.0350  0.0969  0.0044
  428POPI    C2 6790  15.522  12.509  10.313 -0.1652  0.0851 -0.0346
  428POPI    C3 6791  15.446  12.169  10.510  0.1496  0.0819  0.0865
  428POPI   PO4 6792  15.483  12.156   9.922 -0.0822  0.0425 -0.2445
  428POPI   GL1 6793  15.391  12.186   9.546  0.2073  0.2045 -0.3349
  428POPI   GL2 6794  15.519  11.903   9.539  0.1522 -0.1301  0.2033
  428POPI   C1A 6795  15.774  12.449   9.361  0.1545 -0.2015 -0.1193
  428POPI   D2A 6796  15.856  12.743   9.102  0.0377 -0.0517 -0.1481
  428POPI   C3A 6797  15.926  12.678   8.665  0.0232 -0.0011  0.2226
  428POPI   C4A 6798  15.705  12.832   8.363  0.1605  0.1057  0.0288
  428POPI   C1B 6799  15.434  11.996   9.045  0.1444 -0.3862  0.1261
  428POPI   C2B 6800  15.339  11.881   8.606  0.2677 -0.0599  0.0857
  428POPI   C3B 6801  15.371  11.959   8.129 -0.0319 -0.0156 -0.2071
  428POPI   C4B 6802  15.339  11.785   7.770  0.0600  0.2225  0.0497
  429POPI    C1 6803  10.127  13.630  10.362  0.3781 -0.2680  0.2883
  429POPI    C2 6804  10.216  13.695  10.747 -0.1483  0.3948  0.3171
  429POPI    C3 6805   9.836  13.715  10.623 -0.0065  0.0206 -0.2153
  429POPI   PO4 6806  10.318  13.339  10.311  0.2091 -0.2199 -0.0004
  429POPI   GL1 6807  10.297  13.045  10.055  0.1430  0.0574  0.0996
  429POPI   GL2 6808   9.934  13.164  10.033 -0.1167  0.0897  0.0429
  429POPI   C1A 6809  10.283  13.140   9.609  0.0072 -0.0507  0.0790
  429POPI   D2A 6810  10.594  13.499   9.567 -0.2219 -0.0446 -0.0804
  429POPI   C3A 6811  10.534  13.929   9.604  0.0830  0.1147  0.6427
  429POPI   C4A 6812  10.789  14.130   9.303 -0.0607 -0.0387  0.0717
  429POPI   C1B 6813   9.865  13.427   9.672  0.2002 -0.1740 -0.2658
  429POPI   C2B 6814  10.192  13.636   9.404  0.0206 -0.2295 -0.0435
  429POPI   C3B 6815  10.496  13.823   9.079  0.0020 -0.0702  0.0507
  429POPI   C4B 6816  10.915  13.928   8.853 -0.0606  0.0573 -0.0254
  430POPI    C1 6817  13.954  11.941  10.590  0.1458  0.2005  0.2994
  430POPI    C2 6818  13.808  11.691  10.866 -0.1659  0.0682  0.0220
  430POPI    C3 6819  14.185  11.823  10.893 -0.0269 -0.3548  0.2251
  430POPI   PO4 6820  13.924  11.802  10.282 -0.3907 -0.2367 -0.0548
  430POPI   GL1 6821  13.968  11.843   9.858 -0.0908  0.4108 -0.2606
  430POPI   GL2 6822  14.095  11.779   9.600 -0.0480 -0.0669  0.1851
  430POPI   C1A 6823  13.605  11.883   9.605  0.0633 -0.0501 -0.3400
  430POPI   D2A 6824  13.197  11.857   9.627  0.0475  0.0215  0.3630
  430POPI   C3A 6825  13.019  11.713   9.199 -0.1236 -0.4571 -0.2142
  430POPI   C4A 6826  13.003  11.733   8.778 -0.1395  0.2454  0.0406
  430POPI   C1B 6827  14.327  11.841   9.169 -0.1018 -0.0286 -0.1163
  430POPI   C2B 6828  14.444  12.075   8.813 -0.1362 -0.0618 -0.0711
  430POPI   C3B 6829  14.470  12.227   8.506 -0.1105  0.1133  0.0252
  430POPI   C4B 6830  14.342  12.147   8.062 -0.0317  0.0098  0.1446
  431POPI    C1 6831  12.718  15.617  11.186  0.3486 -0.1903 -0.0193
  431POPI    C2 6832  13.026  15.866  11.131  0.1445  0.0870  0.0694
  431POPI    C3 6833  12.706  15.987  11.338  0.0065 -0.2236  0.0430
  431POPI   PO4 6834  12.599  15.543  10.853 -0.0470 -0.1527 -0.1225
  431POPI   GL1 6835  12.266  15.536  10.524 -0.0126  0.1948  0.0616
  431POPI   GL2 6836  12.232  15.915  10.596  0.0860  0.1790 -0.0795
  431POPI   C1A 6837  12.466  15.570  10.162  0.0347 -0.2107  0.0642
  431POPI   D2A 6838  12.778  15.910   9.956  0.2839 -0.0771  0.2344
  431POPI   C3A 6839  13.210  15.984  10.025 -0.0660  0.2611 -0.0217
  431POPI   C4A 6840  13.637  16.135   9.866 -0.0376  0.1954  0.2413
  431POPI   C1B 6841  12.433  16.059  10.300  0.1147  0.2255  0.1843
  431POPI   C2B 6842  12.254  15.920   9.903  0.2563  0.3255  0.2098
  431POPI   C3B 6843  12.469  15.652   9.605  0.0131 -0.0577  0.3469
  431POPI   C4B 6844  12.672  15.335   9.379 -0.0300 -0.2124  0.2328
  432POPI    C1 6845   6.678  14.629  10.420  0.1524  0.1834 -0.3167
  432POPI    C2 6846   6.591  15.007  10.324  0.1204  0.1960 -0.2389
  432POPI    C3 6847   6.609  14.897  10.708 -0.0041  0.0875 -0.2632
  432POPI   PO4 6848   6.873  14.568  10.252 -0.1536 -0.0045  0.1715
  432POPI   GL1 6849   6.803  14.747   9.856 -0.1391  0.2068 -0.0686
  432POPI   GL2 6850   7.133  14.840   9.872 -0.1462 -0.0391  0.0002
  432POPI   C1A 6851   6.877  14.670   9.394  0.1339 -0.0592 -0.1676
  432POPI   D2A 6852   6.710  14.613   8.993 -0.0770 -0.0954  0.3718
  432POPI   C3A 6853   6.665  14.742   8.552  0.0977  0.0114  0.0319
  432POPI   C4A 6854   6.776  14.830   8.071  0.3666 -0.0484 -0.2842
  432POPI   C1B 6855   7.106  15.083   9.515 -0.0992  0.2231  0.1536
  432POPI   C2B 6856   7.093  15.006   9.078  0.1550 -0.0838 -0.2038
  432POPI   C3B 6857   7.394  15.142   8.790  0.0633  0.1457  0.3413
  432POPI   C4B 6858   7.808  14.938   8.571 -0.2501  0.0833 -0.0486
  433POPI    C1 6859   1.497   1.815  10.546  0.1789  0.0477 -0.1453
  433POPI    C2 6860   1.894   1.863  10.526  0.1862  0.0581  0.0087
  433POPI    C3 6861   1.726   1.721  10.860  0.0191  0.4684  0.1057
  433POPI   PO4 6862   1.409   1.662  10.303 -0.1794 -0.4080 -0.0860
  433POPI   GL1 6863   1.064   1.593  10.062  0.1445 -0.0483  0.1393
  433POPI   GL2 6864   0.676   1.593  10.093  0.2654  0.2241  0.1622
  433POPI   C1A 6865   1.041   1.595   9.616 -0.1758 -0.1804  0.0549
  433POPI   D2A 6866   0.883   1.666   9.208 -0.2573  0.1239 -0.4756
  433POPI   C3A 6867   0.934   1.547   8.748 -0.0661  0.0258 -0.1834
  433POPI   C4A 6868   0.888   1.684   8.358 -0.1156  0.0577 -0.0736
  433POPI   C1B 6869   0.579   1.545   9.722  0.2399 -0.0496 -0.3824
  433POPI   C2B 6870   0.321   1.555   9.262  0.2663 -0.4707 -0.2471
  433POPI   C3B 6871   0.081   1.377   8.893  0.0763  0.0335 -0.0205
  433POPI   C4B 6872  -0.022   1.263   8.383  0.4612  0.0534 -0.1108
  434POPI    C1 6873  12.205  16.406  11.007 -0.0196 -0.2029 -0.0882
  434POPI    C2 6874  12.455  16.410  11.320 -0.1275  0.0203 -0.0028
  434POPI    C3 6875  12.089  16.253  11.358 -0.1455  0.0599 -0.0130
  434POPI   PO4 6876  12.344  16.451  10.736 -0.0003  0.0457 -0.0133
  434POPI   GL1 6877  12.266  16.468  10.420 -0.2100  0.0225 -0.0112
  434POPI   GL2 6878  12.027  16.312  10.276 -0.0472  0.1142  0.1425
  434POPI   C1A 6879  12.462  16.819  10.222  0.1524 -0.2239  0.0017
  434POPI   D2A 6880  12.888  16.880   9.988  0.0610  0.0259 -0.1696
  434POPI   C3A 6881  12.895  16.679   9.638 -0.0665 -0.3048  0.4913
  434POPI   C4A 6882  13.053  16.332   9.339  0.0062  0.0681  0.0949
  434POPI   C1B 6883  12.212  16.482   9.919 -0.2379  0.2117  0.1905
  434POPI   C2B 6884  12.369  16.790   9.734  0.2673  0.0770  0.1945
  434POPI   C3B 6885  12.519  16.925   9.385 -0.0123 -0.0510  0.2260
  434POPI   C4B 6886  12.856  16.745   9.069 -0.0927  0.2472  0.2152
  435POPI    C1 6887   0.550   9.549  10.481 -0.2649 -0.2566  0.0392
  435POPI    C2 6888   0.524   9.237  10.729 -0.1954 -0.1705  0.1557
  435POPI    C3 6889   0.553   9.607  10.877 -0.2515 -0.1107  0.0182
  435POPI   PO4 6890   0.496   9.414  10.260 -0.0941 -0.1944 -0.1263
  435POPI   GL1 6891   0.635   9.383   9.903 -0.1982  0.2429  0.1479
  435POPI   GL2 6892   0.904   9.243   9.799  0.2941  0.5843 -0.0660
  435POPI   C1A 6893   0.354   9.448   9.589  0.0703  0.1028 -0.2725
  435POPI   D2A 6894   0.384   9.919   9.341 -0.1888 -0.0307  0.1781
  435POPI   C3A 6895   0.400  10.061   8.878 -0.1096  0.3647 -0.2818
  435POPI   C4A 6896   0.314  10.035   8.411 -0.0015  0.0146 -0.1133
  435POPI   C1B 6897   1.041   9.283   9.500 -0.0611  0.1981  0.0577
  435POPI   C2B 6898   1.056   9.257   9.029 -0.2717  0.0662  0.1049
  435POPI   C3B 6899   1.277   9.360   8.705 -0.0389  0.0852 -0.1153
  435POPI   C4B 6900   1.345   9.182   8.275 -0.3603 -0.2713  0.2659
  436POPI    C1 6901   4.403   9.060   9.919 -0.0531 -0.3345 -0.0118
  436POPI    C2 6902   4.415   9.255  10.268  0.0869  0.0656 -0.2341
  436POPI    C3 6903   4.107   9.014  10.185  0.1145 -0.1336  0.2136
  436POPI   PO4 6904   4.602   9.251   9.820 -0.1144  0.1540 -0.0571
  436POPI   GL1 6905   4.781   9.133   9.342 -0.1624 -0.0764 -0.0505
  436POPI   GL2 6906   4.770   9.056   8.997 -0.0443  0.0623 -0.0605
  436POPI   C1A 6907   5.089   8.790   9.279  0.3131  0.0410 -0.0154
  436POPI   D2A 6908   4.929   8.372   9.394 -0.3510  0.2211 -0.2767
  436POPI   C3A 6909   4.819   8.048   9.113  0.0510  0.1384 -0.1525
  436POPI   C4A 6910   4.917   7.775   8.855 -0.1206 -0.1895  0.0036
  436POPI   C1B 6911   4.999   9.276   8.732 -0.0322 -0.1451  0.0095
  436POPI   C2B 6912   5.082   9.433   8.394 -0.0457 -0.0361  0.4489
  436POPI   C3B 6913   5.422   9.532   8.244  0.2048 -0.2284 -0.2445
  436POPI   C4B 6914   5.621   9.854   8.440 -0.0198  0.0778  0.2274
  437POPI    C1 6915  13.287  18.327  11.139 -0.1183 -0.1492  0.1433
  437POPI    C2 6916  13.169  18.702  11.212 -0.2595 -0.1657  0.0055
  437POPI    C3 6917  13.468  18.542  11.424  0.0231  0.1352 -0.1546
  437POPI   PO4 6918  13.301  18.428  10.728  0.2799 -0.4824 -0.0147
  437POPI   GL1 6919  13.315  18.395  10.329 -0.0035 -0.1264 -0.0601
  437POPI   GL2 6920  13.630  18.537  10.208 -0.4354 -0.0409  0.3741
  437POPI   C1A 6921  13.441  18.224   9.944 -0.2250  0.2845  0.0351
  437POPI   D2A 6922  13.568  18.375   9.602  0.0942  0.1712  0.1122
  437POPI   C3A 6923  13.533  18.294   9.205 -0.4039  0.2602  0.0161
  437POPI   C4A 6924  13.603  18.452   8.818  0.0124  0.3677  0.4582
  437POPI   C1B 6925  13.358  18.703   9.902  0.1299 -0.2309  0.1003
  437POPI   C2B 6926  13.323  18.810   9.453  0.0866  0.0053  0.2551
  437POPI   C3B 6927  13.399  18.876   8.948  0.0145  0.3135 -0.0311
  437POPI   C4B 6928  13.066  18.690   8.584 -0.2564  0.1077  0.0817
  438POPI    C1 6929  15.468  16.406  10.984  0.0027  0.2095 -0.2827
  438POPI    C2 6930  15.182  16.603  11.183  0.0068  0.0793 -0.1467
  438POPI    C3 6931  15.554  16.588  11.330 -0.0317 -0.1694 -0.0698
  438POPI   PO4 6932  15.252  16.147  10.830 -0.1758 -0.0238  0.0118
  438POPI   GL1 6933  15.034  16.120  10.369 -0.3448 -0.0722  0.1019
  438POPI   GL2 6934  15.116  16.290  10.228  0.4314  0.2401 -0.0408
  438POPI   C1A 6935  14.893  15.633  10.094 -0.0399 -0.1974  0.0203
  438POPI   D2A 6936  14.810  15.479   9.692  0.0290 -0.3829 -0.2454
  438POPI   C3A 6937  14.910  15.088   9.441 -0.0579  0.2145 -0.0901
  438POPI   C4A 6938  15.052  14.976   9.050  0.1297 -0.2334  0.0398
  438POPI   C1B 6939  14.975  16.447   9.807 -0.0795  0.1916 -0.1624
  438POPI   C2B 6940  14.895  16.629   9.352  0.1336  0.2587  0.3581
  438POPI   C3B 6941  14.936  16.808   8.906  0.1735 -0.0161  0.0204
  438POPI   C4B 6942  14.890  17.180   8.747  0.1900 -0.0218  0.2437
  439POPI    C1 6943  15.707   6.376  10.152  0.1413 -0.2652 -0.0842
  439POPI    C2 6944  15.817   6.662  10.409 -0.4694 -0.1696  0.0879
  439POPI    C3 6945  15.869   6.277  10.504  0.0929 -0.1309 -0.0236
  439POPI   PO4 6946  15.516   6.499   9.852 -0.1395  0.1880  0.3773
  439POPI   GL1 6947  15.572   6.324   9.402  0.1425  0.1840  0.0640
  439POPI   GL2 6948  15.967   6.316   9.350  0.4562  0.3628  0.2379
  439POPI   C1A 6949  15.574   6.141   8.981  0.1958 -0.1922 -0.0827
  439POPI   D2A 6950  15.571   5.999   8.580 -0.0812  0.1028  0.0051
  439POPI   C3A 6951  15.238   6.111   8.370  0.2051 -0.1686  0.0749
  439POPI   C4A 6952  15.033   6.208   7.958  0.1364 -0.1892 -0.3242
  439POPI   C1B 6953  16.120   6.123   8.946  0.1269  0.1772 -0.0757
  439POPI   C2B 6954  16.127   6.157   8.558 -0.1504  0.0361  0.0968
  439POPI   C3B 6955  16.327   6.098   8.192  0.0801 -0.0450  0.1301
  439POPI   C4B 6956  16.087   6.115   7.771  0.2041 -0.0511 -0.0143
  440POPI    C1 6957  13.939   5.842  10.422  0.3058 -0.1406  0.1325
  440POPI    C2 6958  13.641   6.017  10.624 -0.0115 -0.1826 -0.2870
  440POPI    C3 6959  14.004   6.186  10.616 -0.0821 -0.0075  0.0347
  440POPI   PO4 6960  13.879   5.774  10.197  0.0935 -0.1404  0.0695
  440POPI   GL1 6961  13.974   5.604   9.828  0.0927 -0.1399 -0.2064
  440POPI   GL2 6962  14.302   5.787   9.916  0.0676 -0.1460  0.1525
  440POPI   C1A 6963  14.160   5.552   9.437 -0.0500 -0.2753 -0.1372
  440POPI   D2A 6964  14.190   5.492   8.973  0.1360 -0.0822  0.1630
  440POPI   C3A 6965  14.097   5.287   8.585  0.0360 -0.4969 -0.1489
  440POPI   C4A 6966  13.943   5.219   8.188  0.1896 -0.0029  0.0856
  440POPI   C1B 6967  14.074   6.037   9.491 -0.1071  0.0360  0.1455
  440POPI   C2B 6968  14.126   5.981   9.102  0.0730  0.2465 -0.0521
  440POPI   C3B 6969  14.296   5.852   8.672  0.0510 -0.0940 -0.0851
  440POPI   C4B 6970  14.103   5.738   8.227 -0.1008 -0.1169 -0.2824
  441POPI    C1 6971   5.628  16.701  10.355  0.0353  0.1347  0.0043
  441POPI    C2 6972   5.471  17.052  10.243  0.4074  0.3715  0.2039
  441POPI    C3 6973   5.482  16.951  10.630 -0.0935 -0.0618  0.1164
  441POPI   PO4 6974   5.812  16.666  10.200 -0.2569 -0.2998  0.1246
  441POPI   GL1 6975   6.033  16.695   9.696  0.0156  0.0048  0.0132
  441POPI   GL2 6976   5.774  16.582   9.647  0.0432 -0.0179 -0.2084
  441POPI   C1A 6977   6.297  16.791   9.294 -0.2005  0.0325 -0.1488
  441POPI   D2A 6978   6.410  16.948   8.899  0.2050 -0.0399  0.2160
  441POPI   C3A 6979   6.390  16.950   8.515 -0.0348 -0.0583 -0.1284
  441POPI   C4A 6980   6.539  17.085   8.163 -0.3786  0.0199 -0.0992
  441POPI   C1B 6981   5.872  16.508   9.256  0.4242  0.0398  0.1352
  441POPI   C2B 6982   5.764  16.440   8.856  0.1888 -0.1454 -0.1980
  441POPI   C3B 6983   5.814  16.472   8.407  0.1972  0.1393 -0.1234
  441POPI   C4B 6984   5.738  16.646   7.966  0.0900 -0.0121 -0.2092
  442POPI    C1 6985   2.790   2.031  10.682  0.1569 -0.0333  0.0549
  442POPI    C2 6986   2.691   1.762  10.404  0.2829 -0.1675  0.1388
  442POPI    C3 6987   2.406   1.966  10.595  0.1931 -0.1262 -0.0376
  442POPI   PO4 6988   2.954   2.131  10.627 -0.2752  0.0317  0.2612
  442POPI   GL1 6989   3.093   2.165  10.260 -0.1724 -0.0587 -0.1079
  442POPI   GL2 6990   3.422   2.132  10.156  0.1332  0.2558  0.0556
  442POPI   C1A 6991   2.984   1.755  10.034 -0.0498 -0.0389 -0.1389
  442POPI   D2A 6992   2.673   1.577   9.736  0.0922  0.1778  0.0157
  442POPI   C3A 6993   2.388   1.849   9.476 -0.2595  0.0150  0.3347
  442POPI   C4A 6994   2.476   2.006   9.025  0.1480  0.3146  0.1730
  442POPI   C1B 6995   3.498   1.864   9.859  0.1311 -0.1949  0.4354
  442POPI   C2B 6996   3.597   1.760   9.480 -0.0024  0.8524  0.0539
  442POPI   C3B 6997   3.690   1.365   9.191 -0.1373  0.2235  0.0271
  442POPI   C4B 6998   4.085   1.217   9.117  0.0269  0.0983  0.0607
  443POPI    C1 6999   0.169  14.980  10.723 -0.1529 -0.1131 -0.0327
  443POPI    C2 7000   0.224  15.371  10.783 -0.0888 -0.1138 -0.0855
  443POPI    C3 7001   0.083  15.141  11.078  0.1069 -0.0950  0.0244
  443POPI   PO4 7002   0.040  14.975  10.455 -0.0973  0.0403  0.2954
  443POPI   GL1 7003  -0.194  15.089  10.074  0.2265 -0.0357  0.0106
  443POPI   GL2 7004  -0.449  15.305   9.927 -0.1285  0.1982 -0.0676
  443POPI   C1A 7005  -0.271  14.890   9.734 -0.3937  0.1165  0.0057
  443POPI   D2A 7006  -0.054  14.736   9.316  0.2417  0.1392  0.1752
  443POPI   C3A 7007   0.307  14.473   9.438 -0.2344  0.2501 -0.2758
  443POPI   C4A 7008   0.468  14.233   9.216  0.1482 -0.3255  0.0921
  443POPI   C1B 7009  -0.727  15.316   9.625 -0.2830  0.2006  0.3510
  443POPI   C2B 7010  -0.789  15.577   9.217  0.1681  0.1993  0.2238
  443POPI   C3B 7011  -0.950  15.594   8.769 -0.4147 -0.0629 -0.5093
  443POPI   C4B 7012  -1.303  15.607   8.436 -0.1544  0.0517 -0.0262
  444POPI    C1 7013   8.402   6.949  10.544 -0.1124  0.0511  0.1416
  444POPI    C2 7014   8.219   7.286  10.432 -0.2910  0.1369  0.6630
  444POPI    C3 7015   8.588   7.300  10.585  0.0197  0.0032 -0.0341
  444POPI   PO4 7016   8.412   6.718  10.337  0.1081  0.0391  0.0614
  444POPI   GL1 7017   8.424   6.609   9.905 -0.2157  0.0237  0.1953
  444POPI   GL2 7018   8.738   6.576   9.871 -0.1327 -0.0483 -0.1887
  444POPI   C1A 7019   8.444   6.186   9.725 -0.0573 -0.0188  0.2700
  444POPI   D2A 7020   8.104   5.830   9.553  0.0017  0.0691  0.0484
  444POPI   C3A 7021   8.096   5.826   9.009  0.0031 -0.0418  0.2888
  444POPI   C4A 7022   8.189   5.851   8.589  0.1765 -0.1631  0.0787
  444POPI   C1B 7023   8.624   6.570   9.410 -0.0871 -0.1478  0.0407
  444POPI   C2B 7024   8.708   6.476   9.042 -0.1240  0.2417 -0.1440
  444POPI   C3B 7025   8.768   6.658   8.602 -0.1758 -0.1207 -0.0727
  444POPI   C4B 7026   8.790   6.980   8.373  0.0602  0.1322 -0.0497
  445POPI    C1 7027   0.110  11.624  10.442 -0.0185  0.2922 -0.0389
  445POPI    C2 7028  -0.191  11.690  10.698 -0.1617  0.2285 -0.1889
  445POPI    C3 7029   0.184  11.789  10.799 -0.1472 -0.2159  0.2317
  445POPI   PO4 7030   0.141  11.385  10.332  0.1362  0.1209 -0.0468
  445POPI   GL1 7031   0.284  11.202   9.923 -0.1256 -0.2249 -0.2272
  445POPI   GL2 7032   0.479  10.927   9.790 -0.1645  0.0925  0.0712
  445POPI   C1A 7033   0.337  11.352   9.459 -0.0291 -0.1059 -0.1909
  445POPI   D2A 7034   0.748  11.417   9.267 -0.0678 -0.0233  0.2589
  445POPI   C3A 7035   0.899  11.392   8.834  0.0024 -0.2534  0.1483
  445POPI   C4A 7036   0.597  11.533   8.500 -0.2404  0.3835  0.0896
  445POPI   C1B 7037   0.589  10.909   9.379  0.0142 -0.2362 -0.0022
  445POPI   C2B 7038   0.705  10.967   9.011 -0.2160  0.0667  0.1656
  445POPI   C3B 7039   0.679  10.958   8.493  0.1945 -0.0607 -0.1327
  445POPI   C4B 7040   0.554  10.842   7.982 -0.0343  0.0382 -0.0942
  446POPI    C1 7041   3.471   5.192  10.240  0.1168  0.1048 -0.2567
  446POPI    C2 7042   3.870   5.197  10.261  0.1152 -0.1543 -0.1244
  446POPI    C3 7043   3.654   5.126  10.590 -0.0372 -0.1265 -0.2180
  446POPI   PO4 7044   3.463   5.089   9.965 -0.1115  0.0301 -0.1893
  446POPI   GL1 7045   3.206   4.822   9.745 -0.0793  0.0341 -0.4615
  446POPI   GL2 7046   3.556   4.844   9.557 -0.0539  0.1843  0.1207
  446POPI   C1A 7047   3.081   4.764   9.234 -0.0614 -0.0105 -0.2431
  446POPI   D2A 7048   3.065   4.773   8.777  0.0714 -0.0506  0.0880
  446POPI   C3A 7049   2.951   5.241   8.542  0.0652 -0.0037 -0.0696
  446POPI   C4A 7050   2.742   5.293   8.156 -0.1874 -0.2702 -0.0372
  446POPI   C1B 7051   3.574   4.696   9.161  0.2852 -0.1338  0.1316
  446POPI   C2B 7052   3.543   4.681   8.723 -0.1476 -0.1418 -0.2527
  446POPI   C3B 7053   3.327   4.657   8.291  0.0325  0.0625 -0.1612
  446POPI   C4B 7054   3.051   4.419   7.968  0.2390 -0.1474  0.0707
  447POPI    C1 7055   6.479   9.999  10.209 -0.1129  0.0804  0.1448
  447POPI    C2 7056   6.332   9.653  10.345  0.0665  0.0331  0.2219
  447POPI    C3 7057   6.165   9.999  10.457 -0.3590 -0.0382 -0.1613
  447POPI   PO4 7058   6.475   9.951   9.922  0.2725  0.1087  0.0567
  447POPI   GL1 7059   6.755   9.940   9.654 -0.1705 -0.1899  0.3810
  447POPI   GL2 7060   6.940   9.721   9.679 -0.1466  0.2356 -0.0703
  447POPI   C1A 7061   6.656   9.842   9.196  0.2216  0.1215  0.0585
  447POPI   D2A 7062   6.274   9.876   8.847  0.3382  0.0861  0.2811
  447POPI   C3A 7063   6.317   9.845   8.429  0.2046 -0.1113 -0.0795
  447POPI   C4A 7064   6.265   9.843   8.024 -0.1704 -0.0688  0.3200
  447POPI   C1B 7065   7.117   9.634   9.342  0.1297  0.2994 -0.1139
  447POPI   C2B 7066   7.076   9.786   8.871  0.2794 -0.1312 -0.1068
  447POPI   C3B 7067   6.788   9.670   8.552 -0.0016  0.1801 -0.2422
  447POPI   C4B 7068   6.802   9.738   8.147  0.1718  0.1692 -0.1591
  448POPI    C1 7069  13.603   5.354  10.128 -0.1331 -0.0125  0.1898
  448POPI    C2 7070  13.654   5.441  10.515 -0.3376  0.1030  0.1918
  448POPI    C3 7071  13.304   5.296  10.387 -0.1462 -0.3046  0.1136
  448POPI   PO4 7072  13.717   5.119  10.073 -0.1099 -0.2130 -0.0834
  448POPI   GL1 7073  13.667   4.994   9.675 -0.0989 -0.0132 -0.1734
  448POPI   GL2 7074  13.551   5.338   9.577  0.0056 -0.2835 -0.0263
  448POPI   C1A 7075  13.473   4.866   9.294  0.0687  0.1919  0.1636
  448POPI   D2A 7076  13.406   4.696   8.892  0.2274 -0.0111 -0.3229
  448POPI   C3A 7077  13.430   4.609   8.478 -0.0479 -0.0457 -0.1650
  448POPI   C4A 7078  13.254   4.242   8.263 -0.0630 -0.2189 -0.0508
  448POPI   C1B 7079  13.836   5.235   9.279 -0.2740  0.4166  0.1542
  448POPI   C2B 7080  13.710   5.136   8.866  0.0033  0.1291 -0.2821
  448POPI   C3B 7081  13.608   5.086   8.528 -0.2195  0.2302 -0.2163
  448POPI   C4B 7082  13.477   5.212   8.077 -0.0170 -0.1358  0.1624
  449POPI    C1 7083   4.934   9.056  10.338  0.0643 -0.0039 -0.0495
  449POPI    C2 7084   5.151   9.285  10.585  0.1054  0.0240 -0.1115
  449POPI    C3 7085   4.762   9.227  10.657  0.1620 -0.1350  0.0751
  449POPI   PO4 7086   4.938   9.091  10.112  0.1610 -0.2311  0.1064
  449POPI   GL1 7087   5.132   9.078   9.696 -0.3855  0.4111 -0.2704
  449POPI   GL2 7088   5.035   9.444   9.746 -0.2146 -0.0315 -0.1491
  449POPI   C1A 7089   5.326   9.213   9.151 -0.0984 -0.1539 -0.0249
  449POPI   D2A 7090   5.320   9.625   8.847 -0.0720 -0.1335 -0.3346
  449POPI   C3A 7091   5.705   9.952   8.923 -0.1665  0.1276  0.2194
  449POPI   C4A 7092   5.973  10.206   8.597 -0.0841 -0.1989 -0.2585
  449POPI   C1B 7093   5.001   9.559   9.311 -0.2063 -0.1867 -0.0578
  449POPI   C2B 7094   4.900   9.906   8.985  0.0847  0.0473 -0.1514
  449POPI   C3B 7095   5.149   9.996   8.606  0.1676 -0.0820  0.0943
  449POPI   C4B 7096   5.292  10.087   8.139  0.1915  0.3552 -0.2265
  450POPI    C1 7097   5.682  12.156  10.097  0.3229  0.0124  0.0691
  450POPI    C2 7098   5.901  12.488  10.052 -0.0482  0.2762  0.1555
  450POPI    C3 7099   5.874  12.313  10.411  0.1228  0.1667  0.1165
  450POPI   PO4 7100   5.405  12.150   9.898 -0.0619 -0.1565  0.0381
  450POPI   GL1 7101   5.063  12.469   9.765 -0.1217 -0.1113 -0.1828
  450POPI   GL2 7102   5.033  12.681   9.633  0.1578  0.2430  0.3160
  450POPI   C1A 7103   5.149  12.224   9.323  0.2338 -0.3460 -0.3315
  450POPI   D2A 7104   5.217  12.221   8.868  0.1577 -0.5639  0.0670
  450POPI   C3A 7105   5.615  12.267   8.674 -0.0810  0.0465  0.2129
  450POPI   C4A 7106   5.952  12.600   8.473 -0.2887  0.2191 -0.2693
  450POPI   C1B 7107   5.115  12.714   9.207  0.0650  0.2895 -0.2212
  450POPI   C2B 7108   4.953  12.758   8.828  0.1746 -0.3591  0.2072
  450POPI   C3B 7109   4.774  12.955   8.560 -0.1108  0.0294 -0.0817
  450POPI   C4B 7110   4.531  13.196   8.258  0.1277 -0.1955 -0.2708
  451POPI    C1 7111   0.912  14.399  10.798 -0.1513 -0.0324  0.1336
  451POPI    C2 7112   0.553  14.372  10.972 -0.0840  0.0122  0.2805
  451POPI    C3 7113   0.862  14.530  11.172  0.0394 -0.1078  0.1868
  451POPI   PO4 7114   0.928  14.459  10.576 -0.2098 -0.0472  0.0767
  451POPI   GL1 7115   1.085  14.578  10.193  0.1324  0.4897  0.1125
  451POPI   GL2 7116   0.891  14.399  10.053  0.2813 -0.3656 -0.0739
  451POPI   C1A 7117   1.156  14.337   9.684  0.0451  0.1527  0.2305
  451POPI   D2A 7118   1.034  14.372   9.319  0.1138  0.0914 -0.0215
  451POPI   C3A 7119   0.902  14.423   8.898 -0.1814 -0.1457  0.0476
  451POPI   C4A 7120   0.473  14.254   8.736  0.2522  0.0522  0.0175
  451POPI   C1B 7121   0.709  14.439   9.643 -0.0714  0.1595 -0.1514
  451POPI   C2B 7122   0.748  14.812   9.419 -0.0766  0.1128 -0.1119
  451POPI   C3B 7123   0.752  15.095   9.037  0.0722  0.6212 -0.1189
  451POPI   C4B 7124   0.797  15.312   8.739  0.1717 -0.0270  0.4408
  452POPI    C1 7125  10.428  17.882  10.380 -0.2977  0.2592  0.1277
  452POPI    C2 7126  10.249  17.915  10.737  0.0446  0.2711  0.3024
  452POPI    C3 7127  10.539  17.645  10.683 -0.1452  0.1267 -0.0301
  452POPI   PO4 7128  10.204  18.053  10.242 -0.0111 -0.2416 -0.0462
  452POPI   GL1 7129  10.377  18.159   9.893  0.1398 -0.0335 -0.1160
  452POPI   GL2 7130  10.096  18.202   9.660  0.0893  0.3388 -0.1713
  452POPI   C1A 7131  10.391  17.856   9.546  0.0074 -0.4016  0.3964
  452POPI   D2A 7132  10.728  17.549   9.463  0.1928 -0.0521 -0.5958
  452POPI   C3A 7133  10.766  17.263   8.992 -0.0866 -0.1352 -0.4130
  452POPI   C4A 7134  10.728  16.855   8.767  0.0864  0.0142  0.1235
  452POPI   C1B 7135  10.079  18.111   9.199  0.0135 -0.1373 -0.2216
  452POPI   C2B 7136  10.051  18.054   8.756 -0.2278 -0.2092  0.1041
  452POPI   C3B 7137  10.201  18.143   8.254 -0.2340  0.0556 -0.2013
  452POPI   C4B 7138  10.129  18.247   7.943  0.1611  0.0608 -0.2705
  453POPI    C1 7139  14.056  14.100  10.579 -0.1262 -0.0041 -0.0448
  453POPI    C2 7140  13.987  13.791  10.334 -0.0141 -0.0109 -0.0686
  453POPI    C3 7141  14.080  13.725  10.717  0.2373 -0.0156 -0.1290
  453POPI   PO4 7142  13.959  14.237  10.600  0.2145 -0.2952 -0.2231
  453POPI   GL1 7143  13.692  14.262  10.275  0.3064 -0.0373 -0.0507
  453POPI   GL2 7144  13.801  14.139   9.984 -0.2070  0.1508 -0.0978
  453POPI   C1A 7145  13.473  14.552   9.944  0.0298  0.0732 -0.1211
  453POPI   D2A 7146  13.503  14.822   9.603 -0.0825 -0.2403 -0.1397
  453POPI   C3A 7147  13.679  14.946   9.198  0.0653  0.4493  0.2787
  453POPI   C4A 7148  13.759  15.173   8.861 -0.1340 -0.0493  0.0020
  453POPI   C1B 7149  13.762  14.362   9.602 -0.1902  0.1119  0.3490
  453POPI   C2B 7150  13.810  14.508   9.077 -0.1661 -0.3050 -0.1145
  453POPI   C3B 7151  13.921  14.719   8.688  0.0062  0.0246 -0.1761
  453POPI   C4B 7152  13.877  15.130   8.305  0.1567  0.0667 -0.0489
  454POPI    C1 7153   4.275  13.393  10.446 -0.1389 -0.4293  0.0076
  454POPI    C2 7154   4.185  13.492  10.823 -0.0126  0.0240 -0.0756
  454POPI    C3 7155   4.541  13.331  10.738  0.0691  0.1838 -0.0391
  454POPI   PO4 7156   4.121  13.555  10.317  0.2345 -0.0875 -0.1263
  454POPI   GL1 7157   4.346  13.654   9.918  0.1668 -0.2072 -0.1101
  454POPI   GL2 7158   4.065  13.516   9.795 -0.0907  0.0932  0.2171
  454POPI   C1A 7159   4.309  13.977   9.582 -0.0490  0.1340 -0.1064
  454POPI   D2A 7160   4.394  14.302   9.288 -0.1609 -0.0008 -0.0896
  454POPI   C3A 7161   4.071  14.521   9.130  0.0929 -0.0817 -0.0772
  454POPI   C4A 7162   3.817  14.822   8.743 -0.1036  0.0463  0.1550
  454POPI   C1B 7163   4.035  13.450   9.293 -0.2513 -0.0913  0.0483
  454POPI   C2B 7164   4.030  13.514   8.913  0.0657  0.1566  0.3125
  454POPI   C3B 7165   4.035  13.918   8.615  0.0197 -0.0980  0.0173
  454POPI   C4B 7166   4.004  13.977   8.209  0.0622 -0.4355 -0.3043
  455POPI    C1 7167  12.909   4.463  10.316 -0.1885 -0.0110  0.0451
  455POPI    C2 7168  12.978   4.857  10.328 -0.0089 -0.0417  0.0477
  455POPI    C3 7169  13.083   4.627  10.637 -0.0893 -0.0960  0.0349
  455POPI   PO4 7170  12.937   4.469  10.021  0.0462  0.0258  0.1218
  455POPI   GL1 7171  12.871   4.698   9.719  0.2904  0.2464 -0.3077
  455POPI   GL2 7172  13.075   4.609   9.440  0.0024  0.1177 -0.0489
  455POPI   C1A 7173  12.638   4.948   9.428 -0.2375  0.1636  0.0511
  455POPI   D2A 7174  12.636   5.171   9.131 -0.1144 -0.1411  0.2380
  455POPI   C3A 7175  12.644   5.181   8.750 -0.1002  0.0471 -0.0381
  455POPI   C4A 7176  12.598   5.213   8.343 -0.0593  0.2456  0.1324
  455POPI   C1B 7177  12.963   4.705   9.004  0.0635  0.0775 -0.1140
  455POPI   C2B 7178  12.972   4.882   8.598  0.1515  0.0151  0.0659
  455POPI   C3B 7179  12.997   4.900   8.137 -0.2236 -0.2925 -0.1538
  455POPI   C4B 7180  13.349   4.754   7.993  0.1117 -0.0893 -0.0530
  456POPI    C1 7181   8.734   5.775  10.760 -0.1241  0.1736  0.1129
  456POPI    C2 7182   8.429   5.683  11.002 -0.0154 -0.1441  0.1340
  456POPI    C3 7183   8.796   5.736  11.153 -0.0202  0.0388  0.0842
  456POPI   PO4 7184   8.661   5.713  10.507  0.2344 -0.0091  0.3826
  456POPI   GL1 7185   8.647   5.436  10.206 -0.0437 -0.1477 -0.1639
  456POPI   GL2 7186   8.666   5.131  10.152  0.1420 -0.1700  0.1431
  456POPI   C1A 7187   8.554   5.640   9.803  0.2044 -0.0660  0.0557
  456POPI   D2A 7188   8.527   5.893   9.334 -0.0825 -0.2182  0.0609
  456POPI   C3A 7189   8.557   5.858   8.937 -0.2494 -0.3240  0.0371
  456POPI   C4A 7190   8.631   5.840   8.400  0.2645  0.2698 -0.1195
  456POPI   C1B 7191   8.705   5.149   9.673 -0.3907 -0.0543  0.2557
  456POPI   C2B 7192   8.617   4.941   9.338 -0.0236  0.1355 -0.0219
  456POPI   C3B 7193   8.715   4.937   8.941 -0.0637 -0.0815  0.1851
  456POPI   C4B 7194   8.717   5.022   8.464  0.4722  0.1456 -0.1082
  457POPI    C1 7195  16.420   4.214  10.182 -0.2520  0.1053  0.0277
  457POPI    C2 7196  16.589   4.003  10.477 -0.0247 -0.0007 -0.1740
  457POPI    C3 7197  16.372   4.329  10.562  0.1236  0.0292  0.1025
  457POPI   PO4 7198  16.619   4.213  10.037  0.1843 -0.0610 -0.3016
  457POPI   GL1 7199  16.658   4.187   9.583 -0.0643 -0.1895  0.1781
  457POPI   GL2 7200  17.012   4.101   9.728  0.0072  0.2450 -0.0633
  457POPI   C1A 7201  16.774   4.248   9.128  0.0207  0.2182 -0.0730
  457POPI   D2A 7202  16.652   4.202   8.673  0.1703 -0.1754 -0.1536
  457POPI   C3A 7203  16.830   4.362   8.420 -0.1410  0.0412 -0.0238
  457POPI   C4A 7204  16.683   4.487   8.068 -0.2273  0.3140 -0.2497
  457POPI   C1B 7205  16.958   3.794   9.303 -0.1746  0.1113 -0.0064
  457POPI   C2B 7206  16.886   3.759   8.922  0.0408 -0.1673 -0.0286
  457POPI   C3B 7207  16.968   3.767   8.421  0.2099  0.1746  0.2431
  457POPI   C4B 7208  16.585   3.975   8.177 -0.2798 -0.1891  0.0381
  458POPI    C1 7209  11.616  12.775  10.723 -0.1530 -0.0769  0.0889
  458POPI    C2 7210  11.795  12.710  11.075  0.1142 -0.0759 -0.0437
  458POPI    C3 7211  11.727  13.084  10.951 -0.1474 -0.0778  0.0872
  458POPI   PO4 7212  11.820  12.671  10.515 -0.1788  0.1877  0.1704
  458POPI   GL1 7213  11.752  12.850  10.144 -0.0763 -0.0527 -0.1542
  458POPI   GL2 7214  11.945  12.767   9.928 -0.0680 -0.0230  0.2535
  458POPI   C1A 7215  11.697  13.185   9.829  0.0603 -0.1018  0.1260
  458POPI   D2A 7216  11.612  13.226   9.463  0.1286 -0.0450  0.1172
  458POPI   C3A 7217  11.577  13.110   9.051 -0.2525 -0.2678  0.1287
  458POPI   C4A 7218  11.544  13.208   8.684 -0.1557  0.0277  0.0600
  458POPI   C1B 7219  12.041  12.880   9.527  0.0736  0.0766  0.0044
  458POPI   C2B 7220  12.199  12.974   9.106  0.2097  0.0005  0.2231
  458POPI   C3B 7221  12.459  12.983   8.765  0.2403 -0.2186 -0.5870
  458POPI   C4B 7222  12.533  13.238   8.563  0.0532  0.3846 -0.1544
  459POPI    C1 7223  12.857   7.916  10.483  0.0013  0.0684 -0.1448
  459POPI    C2 7224  12.626   8.227  10.583 -0.0863  0.0814 -0.3803
  459POPI    C3 7225  12.704   7.941  10.851  0.0178  0.3187 -0.1533
  459POPI   PO4 7226  12.727   7.912  10.180  0.1153  0.0453  0.2821
  459POPI   GL1 7227  12.658   8.071   9.815  0.0757 -0.2179  0.1888
  459POPI   GL2 7228  12.529   7.927   9.584 -0.0960 -0.4712  0.1368
  459POPI   C1A 7229  12.634   8.395   9.355  0.2199  0.3220  0.1111
  459POPI   D2A 7230  12.678   8.304   8.908 -0.0615 -0.2282  0.0391
  459POPI   C3A 7231  12.711   8.358   8.523  0.1395  0.1563 -0.0004
  459POPI   C4A 7232  12.483   8.080   8.317 -0.1407 -0.0829 -0.2133
  459POPI   C1B 7233  12.686   7.838   9.156  0.1937  0.0432 -0.1022
  459POPI   C2B 7234  12.875   7.865   8.754 -0.0729 -0.1140  0.0629
  459POPI   C3B 7235  12.952   7.919   8.353 -0.0227 -0.1199  0.0076
  459POPI   C4B 7236  13.165   7.993   8.056  0.0809 -0.2281 -0.2622
  460POPI    C1 7237  11.045   9.255  10.312 -0.0635 -0.0496  0.0055
  460POPI    C2 7238  11.338   8.995  10.233 -0.0512 -0.0203 -0.0459
  460POPI    C3 7239  11.417   9.328  10.440 -0.0422  0.0016 -0.0844
  460POPI   PO4 7240  10.967   9.276  10.037  0.1810 -0.1038 -0.0605
  460POPI   GL1 7241  11.089   9.185   9.529  0.5699  0.2144 -0.0049
  460POPI   GL2 7242  11.312   8.986   9.674  0.0326 -0.0639  0.1735
  460POPI   C1A 7243  10.948   9.313   9.107  0.3772 -0.3232 -0.4408
  460POPI   D2A 7244  10.724   9.417   8.643  0.1912 -0.2279 -0.2470
  460POPI   C3A 7245  10.897   9.299   8.194 -0.0708  0.3487  0.3073
  460POPI   C4A 7246  10.808   8.899   7.902 -0.1586 -0.0267 -0.0919
  460POPI   C1B 7247  11.558   8.980   9.232 -0.2600 -0.0290 -0.0425
  460POPI   C2B 7248  11.433   9.024   8.849  0.1444  0.3037  0.1311
  460POPI   C3B 7249  11.221   9.394   8.616  0.0192  0.0580  0.0465
  460POPI   C4B 7250  11.240   9.683   8.276 -0.1223  0.1724 -0.0556
  461POPI    C1 7251   0.528  14.142  10.535  0.0259  0.1357  0.1232
  461POPI    C2 7252   0.480  13.746  10.565  0.1931  0.1107  0.0713
  461POPI    C3 7253   0.298  13.989  10.825 -0.0794  0.0123 -0.0236
  461POPI   PO4 7254   0.563  14.161  10.303  0.1103 -0.0339  0.2230
  461POPI   GL1 7255   0.344  14.095   9.771  0.2129 -0.0174  0.0546
  461POPI   GL2 7256   0.639  13.933   9.813  0.1789 -0.1663  0.2104
  461POPI   C1A 7257   0.219  13.690   9.724  0.2326  0.0696  0.1101
  461POPI   D2A 7258   0.410  13.309   9.608  0.2482 -0.2192  0.2829
  461POPI   C3A 7259   0.528  13.198   9.241 -0.1000 -0.1725 -0.3361
  461POPI   C4A 7260   0.749  13.436   8.969 -0.1378 -0.1673  0.0203
  461POPI   C1B 7261   0.512  13.705   9.358  0.2784  0.0633  0.2413
  461POPI   C2B 7262   0.323  13.811   8.955  0.2257  0.0758  0.1552
  461POPI   C3B 7263   0.201  13.876   8.584  0.1918  0.1273  0.0740
  461POPI   C4B 7264  -0.002  13.766   8.249  0.1152 -0.1098 -0.2882
  462POPI    C1 7265   7.630   0.254  10.496 -0.0618 -0.0188  0.0676
  462POPI    C2 7266   7.851   0.518  10.699 -0.3724  0.3116 -0.0131
  462POPI    C3 7267   7.539   0.341  10.875  0.0079 -0.2361  0.1352
  462POPI   PO4 7268   7.832   0.279  10.257 -0.1412  0.0933 -0.3411
  462POPI   GL1 7269   7.530   0.429   9.767 -0.1999  0.3401 -0.0392
  462POPI   GL2 7270   7.601   0.115   9.667  0.2819 -0.2274  0.0457
  462POPI   C1A 7271   7.418   0.545   9.332  0.0021  0.1243  0.3363
  462POPI   D2A 7272   7.519   0.547   8.841 -0.5131  0.1871  0.2177
  462POPI   C3A 7273   7.872   0.864   8.893 -0.3468  0.1322  0.1359
  462POPI   C4A 7274   7.873   1.192   8.867 -0.0201  0.2225  0.0407
  462POPI   C1B 7275   7.594   0.055   9.209  0.0339  0.3274 -0.2609
  462POPI   C2B 7276   7.709  -0.002   8.803  0.0286  0.3727 -0.0636
  462POPI   C3B 7277   7.810   0.015   8.344 -0.2144  0.0251  0.1451
  462POPI   C4B 7278   7.781   0.023   7.873  0.0431  0.0780 -0.2231
  463POPI    C1 7279   9.629   9.651  10.344  0.2493 -0.2327 -0.0196
  463POPI    C2 7280   9.752   9.836  10.676  0.1779 -0.2941  0.0413
  463POPI    C3 7281   9.441   9.981  10.471  0.1818 -0.2926  0.0365
  463POPI   PO4 7282   9.879   9.656  10.121  0.0642 -0.1340  0.0182
  463POPI   GL1 7283  10.079   9.637   9.755  0.0170  0.0486  0.0693
  463POPI   GL2 7284  10.138   9.470   9.587 -0.0114  0.1183 -0.2662
  463POPI   C1A 7285   9.751   9.814   9.456  0.2965  0.2668 -0.0428
  463POPI   D2A 7286   9.400   9.711   9.144 -0.1251 -0.1498  0.1181
  463POPI   C3A 7287   9.219   9.781   8.758 -0.3187 -0.3732  0.0307
  463POPI   C4A 7288   8.982   9.792   8.426 -0.3672 -0.1061 -0.0156
  463POPI   C1B 7289   9.939   9.412   9.178 -0.1025 -0.1118  0.0134
  463POPI   C2B 7290   9.992   9.261   8.727 -0.2637 -0.1789 -0.2699
  463POPI   C3B 7291   9.904   9.131   8.359 -0.2057  0.3051 -0.0447
  463POPI   C4B 7292   9.876   8.922   8.037 -0.0238  0.0022  0.0169
  464POPI    C1 7293  11.160   2.725  10.670 -0.0285  0.2152 -0.0000
  464POPI    C2 7294  11.449   2.721  10.946 -0.0700  0.1385  0.0428
  464POPI    C3 7295  11.066   2.694  11.058 -0.0783 -0.0750 -0.0330
  464POPI   PO4 7296  11.259   2.685  10.456  0.3098 -0.0237 -0.0524
  464POPI   GL1 7297  11.348   2.543  10.152  0.1136  0.1495  0.2711
  464POPI   GL2 7298  11.607   2.760  10.077  0.2067 -0.1726  0.2852
  464POPI   C1A 7299  11.120   2.622   9.783  0.0729 -0.2949 -0.0488
  464POPI   D2A 7300  11.199   2.826   9.402 -0.0349  0.1688  0.1144
  464POPI   C3A 7301  11.141   2.754   9.020 -0.0955 -0.2015 -0.0091
  464POPI   C4A 7302  11.157   2.594   8.598  0.2103 -0.0387 -0.2263
  464POPI   C1B 7303  11.662   2.630   9.673  0.0136 -0.0765 -0.2068
  464POPI   C2B 7304  11.760   2.628   9.267  0.0664 -0.1301  0.1447
  464POPI   C3B 7305  11.669   2.669   9.001  0.1358  0.0246 -0.2102
  464POPI   C4B 7306  11.635   2.562   8.557 -0.0017  0.0813 -0.1103
  465POPI    C1 7307  16.098  11.052  10.267  0.1279  0.0732  0.2067
  465POPI    C2 7308  16.335  11.079  10.588  0.1450  0.0095  0.1999
  465POPI    C3 7309  16.196  11.411  10.413  0.1546  0.0450  0.2588
  465POPI   PO4 7310  16.217  10.926  10.095 -0.3516  0.0276  0.1491
  465POPI   GL1 7311  16.333  10.953   9.641  0.0383  0.1198  0.1274
  465POPI   GL2 7312  16.081  10.891   9.546 -0.1618  0.0843 -0.1530
  465POPI   C1A 7313  16.677  10.882   9.343  0.1212 -0.0879  0.3590
  465POPI   D2A 7314  16.637  10.867   8.880  0.0208  0.2590  0.0298
  465POPI   C3A 7315  16.622  11.053   8.457 -0.2362  0.0971 -0.1227
  465POPI   C4A 7316  16.419  10.984   8.000 -0.0448 -0.2207 -0.2020
  465POPI   C1B 7317  16.182  10.951   9.145 -0.1212 -0.0727  0.0873
  465POPI   C2B 7318  16.157  11.211   8.754  0.0126 -0.0876  0.1957
  465POPI   C3B 7319  16.173  11.279   8.362 -0.1003  0.2775 -0.1188
  465POPI   C4B 7320  16.018  11.312   8.028 -0.2435 -0.0797 -0.1585
  466POPI    C1 7321   9.953   5.039  10.304 -0.0680 -0.0684 -0.1514
  466POPI    C2 7322   9.605   5.101  10.491 -0.0968  0.2047 -0.2900
  466POPI    C3 7323   9.928   5.314  10.594  0.0130  0.0031 -0.2114
  466POPI   PO4 7324   9.987   5.117  10.028 -0.1932  0.0981 -0.0459
  466POPI   GL1 7325   9.911   5.294   9.757 -0.1318 -0.0135 -0.2102
  466POPI   GL2 7326  10.039   5.468   9.601  0.0242  0.0988 -0.0665
  466POPI   C1A 7327   9.719   5.067   9.349 -0.0985 -0.1212 -0.2206
  466POPI   D2A 7328   9.579   4.617   9.330  0.0081 -0.2749  0.4041
  466POPI   C3A 7329   9.541   4.681   8.900 -0.0784 -0.1482 -0.3152
  466POPI   C4A 7330   9.596   4.980   8.504  0.2702 -0.0341 -0.3098
  466POPI   C1B 7331   9.844   5.564   9.199  0.1450 -0.1529  0.1728
  466POPI   C2B 7332   9.871   5.395   8.818  0.1289  0.0682 -0.2119
  466POPI   C3B 7333   9.944   5.383   8.373  0.0347  0.3023 -0.2110
  466POPI   C4B 7334   9.916   5.369   7.929  0.1616  0.1365  0.0153
  467POPI    C1 7335  11.399   0.570  10.305  0.0445 -0.1204  0.0235
  467POPI    C2 7336  11.501   0.934  10.436 -0.1013 -0.0735  0.0088
  467POPI    C3 7337  11.294   0.686  10.673 -0.0485 -0.1269 -0.0006
  467POPI   PO4 7338  11.217   0.566  10.133  0.1943 -0.1663 -0.0678
  467POPI   GL1 7339  11.038   0.601   9.693  0.1654 -0.2207 -0.2007
  467POPI   GL2 7340  11.375   0.526   9.665  0.2004  0.0031  0.0689
  467POPI   C1A 7341  10.841   0.361   9.401 -0.0910 -0.2395 -0.0514
  467POPI   D2A 7342  10.878   0.219   8.992 -0.0507  0.0780 -0.2098
  467POPI   C3A 7343  10.712   0.174   8.640  0.0796 -0.1004  0.4158
  467POPI   C4A 7344  10.637   0.084   8.165 -0.0909  0.1222  0.0011
  467POPI   C1B 7345  11.315   0.380   9.241 -0.1562  0.4263 -0.0384
  467POPI   C2B 7346  11.362   0.220   8.821  0.2700 -0.2568  0.2440
  467POPI   C3B 7347  11.514   0.277   8.376  0.0013  0.0325  0.0542
  467POPI   C4B 7348  11.816   0.512   8.037  0.1858 -0.1353 -0.0112
  468POPI    C1 7349   8.157  17.405  10.315  0.1123 -0.0607 -0.0542
  468POPI    C2 7350   8.472  17.613  10.448 -0.0025 -0.0053  0.1355
  468POPI    C3 7351   8.201  17.789  10.213  0.0755 -0.0358  0.0220
  468POPI   PO4 7352   8.233  17.181  10.263 -0.0015 -0.0057  0.1900
  468POPI   GL1 7353   8.652  17.224  10.085 -0.0735 -0.2390 -0.1096
  468POPI   GL2 7354   8.536  17.001   9.863 -0.1652 -0.0261  0.0080
  468POPI   C1A 7355   9.065  17.082   9.860 -0.0122  0.1655  0.0902
  468POPI   D2A 7356   9.301  17.337   9.583 -0.3502 -0.0580  0.1619
  468POPI   C3A 7357   9.359  17.380   9.233  0.0806  0.2346  0.2828
  468POPI   C4A 7358   9.395  17.257   8.869 -0.1160 -0.0919 -0.3316
  468POPI   C1B 7359   8.779  17.004   9.421 -0.0991  0.2687  0.0685
  468POPI   C2B 7360   8.864  17.026   9.004  0.2463  0.0161  0.0738
  468POPI   C3B 7361   8.643  17.058   8.636 -0.0977  0.1729 -0.1929
  468POPI   C4B 7362   8.601  17.162   8.226  0.0532 -0.1352 -0.2752
  469POPI    C1 7363  15.717  10.638  10.124  0.3780  0.0838  0.2574
  469POPI    C2 7364  15.399  10.403  10.063  0.4009  0.1105  0.0277
  469POPI    C3 7365  15.555  10.437  10.430  0.1429  0.0928  0.1408
  469POPI   PO4 7366  15.810  10.618   9.902  0.2706 -0.1186 -0.1860
  469POPI   GL1 7367  15.828  10.424   9.579  0.1553  0.0251  0.0326
  469POPI   GL2 7368  16.019  10.163   9.660 -0.3853  0.1929 -0.0851
  469POPI   C1A 7369  15.876  10.553   9.210 -0.2444  0.0430  0.2126
  469POPI   D2A 7370  15.725  10.419   8.818 -0.0484  0.3103  0.1069
  469POPI   C3A 7371  15.969  10.574   8.538 -0.0980  0.0285 -0.1561
  469POPI   C4A 7372  16.209  10.825   8.478 -0.1166  0.2500  0.2662
  469POPI   C1B 7373  16.079  10.061   9.141  0.2113  0.0129  0.2052
  469POPI   C2B 7374  16.128  10.134   8.640 -0.0328  0.1302  0.2762
  469POPI   C3B 7375  16.060  10.298   8.202 -0.0681  0.0684 -0.1650
  469POPI   C4B 7376  16.191  10.445   7.726  0.0638  0.0423 -0.0248
  470POPI    C1 7377   9.373   5.947  10.055 -0.1044  0.1495  0.1668
  470POPI    C2 7378   9.234   6.057  10.413 -0.1758 -0.0322  0.1960
  470POPI    C3 7379   9.137   5.699  10.263 -0.3779  0.1542 -0.1295
  470POPI   PO4 7380   9.633   6.065  10.082 -0.2915 -0.2026  0.3139
  470POPI   GL1 7381   9.854   5.912   9.772 -0.1399  0.1246 -0.1985
  470POPI   GL2 7382  10.083   5.938   9.470 -0.1045 -0.1851 -0.0806
  470POPI   C1A 7383   9.479   5.536   9.597  0.0622 -0.1668  0.0495
  470POPI   D2A 7384   8.921   5.595   9.413 -0.2980  0.2547 -0.0298
  470POPI   C3A 7385   8.830   5.425   9.094 -0.2555 -0.1878  0.0527
  470POPI   C4A 7386   8.850   5.469   8.760  0.1090 -0.1593 -0.1009
  470POPI   C1B 7387   9.865   6.009   8.999 -0.1479 -0.0664  0.1864
  470POPI   C2B 7388   9.628   5.938   8.810  0.1907  0.4692  0.0227
  470POPI   C3B 7389   9.756   5.817   8.346 -0.1269  0.0058  0.2302
  470POPI   C4B 7390   9.766   5.840   7.930  0.2664  0.0478  0.0188
  471POPI    C1 7391  11.734   7.055  10.494  0.0338 -0.1529 -0.0051
  471POPI    C2 7392  12.000   7.316  10.638  0.1021 -0.0224 -0.3569
  471POPI    C3 7393  11.609   7.381  10.690  0.1283 -0.0479 -0.1176
  471POPI   PO4 7394  12.000   6.921  10.283 -0.1651  0.1934  0.0648
  471POPI   GL1 7395  12.204   7.113   9.924  0.0599  0.1713 -0.1311
  471POPI   GL2 7396  12.413   7.415   9.766 -0.0437  0.0598  0.1553
  471POPI   C1A 7397  12.198   7.086   9.494  0.0628 -0.1224 -0.2115
  471POPI   D2A 7398  12.214   6.888   9.016 -0.0237 -0.1712 -0.1887
  471POPI   C3A 7399  12.567   7.123   8.793  0.1247 -0.3754  0.2113
  471POPI   C4A 7400  12.745   7.048   8.334 -0.3846 -0.0239 -0.2583
  471POPI   C1B 7401  12.286   7.531   9.236 -0.1223  0.0533 -0.2277
  471POPI   C2B 7402  12.395   7.683   8.791  0.2555 -0.2390 -0.0427
  471POPI   C3B 7403  12.494   7.581   8.503 -0.0354 -0.0078 -0.2091
  471POPI   C4B 7404  12.349   7.343   8.159  0.1348  0.1912  0.2034
  472POPI    C1 7405   5.456  17.494  10.713  0.0543  0.2813  0.2409
  472POPI    C2 7406   5.102  17.587  10.874 -0.2714 -0.0815 -0.2345
  472POPI    C3 7407   5.276  17.237  10.962 -0.1845 -0.0424 -0.2494
  472POPI   PO4 7408   5.414  17.472  10.395 -0.1197 -0.1087 -0.1004
  472POPI   GL1 7409   5.564  17.504   9.969 -0.1447  0.1583  0.0861
  472POPI   GL2 7410   5.343  17.713   9.991  0.2084  0.1288  0.0552
  472POPI   C1A 7411   5.542  17.146   9.690  0.0965 -0.0241 -0.1788
  472POPI   D2A 7412   5.787  17.031   9.367 -0.2857  0.2516  0.1530
  472POPI   C3A 7413   5.747  17.013   9.022 -0.1062 -0.1759 -0.0758
  472POPI   C4A 7414   5.893  16.993   8.618  0.1702  0.3154  0.2444
  472POPI   C1B 7415   5.402  17.878   9.527  0.2835  0.0789  0.0308
  472POPI   C2B 7416   5.382  17.886   9.092  0.0616 -0.3384 -0.0368
  472POPI   C3B 7417   5.289  17.926   8.673  0.1314  0.0645  0.1143
  472POPI   C4B 7418   5.236  17.958   8.243  0.0855 -0.1753 -0.1635
  473DPPI    C1 7419   2.899   5.217  10.300 -0.0669  0.0111  0.1879
  473DPPI    C2 7420   3.037   4.845  10.248  0.0200  0.0771 -0.0688
  473DPPI    C3 7421   3.129   5.048  10.580  0.0073 -0.1138  0.0529
  473DPPI   PO4 7422   2.890   5.342   9.985 -0.2422  0.2634  0.0882
  473DPPI   GL1 7423   3.000   5.354   9.573 -0.0337 -0.2426  0.1170
  473DPPI   GL2 7424   3.305   5.249   9.482  0.1233  0.1517 -0.1403
  473DPPI   C1A 7425   2.619   5.347   9.297 -0.0483 -0.0257  0.0098
  473DPPI   C2A 7426   2.299   5.219   8.961  0.0127  0.1366 -0.1291
  473DPPI   C3A 7427   2.260   5.302   8.534 -0.3267  0.2792  0.0951
  473DPPI   C4A 7428   2.180   5.511   8.010 -0.0674 -0.2552 -0.0499
  473DPPI   C1B 7429   3.484   5.253   9.174 -0.1542 -0.0568  0.0350
  473DPPI   C2B 7430   3.432   5.263   8.756  0.0165 -0.0678  0.0348
  473DPPI   C3B 7431   3.358   5.090   8.353  0.3461  0.2360 -0.1690
  473DPPI   C4B 7432   3.293   4.956   7.892 -0.1936 -0.2466  0.0844
  474DPPI    C1 7433   0.327  15.851  10.648 -0.0580 -0.0169  0.2072
  474DPPI    C2 7434   0.488  16.053  10.953  0.2134  0.0847  0.0006
  474DPPI    C3 7435   0.710  15.791  10.747  0.0953  0.1735 -0.2433
  474DPPI   PO4 7436   0.194  16.027  10.530 -0.1439 -0.0819 -0.0672
  474DPPI   GL1 7437  -0.120  16.204  10.246 -0.2459  0.1530 -0.2373
  474DPPI   GL2 7438   0.276  16.315  10.166  0.3967  0.1554  0.0490
  474DPPI   C1A 7439  -0.322  16.288   9.843 -0.0208 -0.2863 -0.2512
  474DPPI   C2A 7440  -0.341  16.270   9.431  0.1101  0.2850 -0.1176
  474DPPI   C3A 7441  -0.466  16.346   8.890 -0.2876 -0.1232 -0.0554
  474DPPI   C4A 7442  -0.558  16.169   8.449  0.0020  0.0456  0.0861
  474DPPI   C1B 7443   0.198  16.413   9.755 -0.3186 -0.2504  0.0074
  474DPPI   C2B 7444   0.142  16.371   9.335  0.0057 -0.1152  0.1619
  474DPPI   C3B 7445  -0.007  16.266   9.034  0.0524  0.2949 -0.0383
  474DPPI   C4B 7446  -0.104  16.099   8.672 -0.3195  0.0422  0.2983
  475DPPI    C1 7447   5.968  14.067  10.450  0.1593 -0.1762  0.1214
  475DPPI    C2 7448   5.786  13.744  10.301  0.2663 -0.1748 -0.0145
  475DPPI    C3 7449   5.679  13.887  10.659 -0.3710  0.1378 -0.3141
  475DPPI   PO4 7450   5.984  14.206  10.186  0.3025  0.1056  0.2344
  475DPPI   GL1 7451   6.099  14.094   9.914 -0.0760  0.0287  0.2165
  475DPPI   GL2 7452   6.401  14.105   9.834  0.0209  0.1681  0.2380
  475DPPI   C1A 7453   6.034  13.732   9.554 -0.2140  0.3170  0.3170
  475DPPI   C2A 7454   6.121  13.701   9.058  0.0621 -0.0176 -0.1942
  475DPPI   C3A 7455   5.895  13.838   8.636 -0.0629  0.1213  0.0064
  475DPPI   C4A 7456   6.081  13.903   8.262 -0.0213 -0.2845  0.3049
  475DPPI   C1B 7457   6.574  14.332   9.605 -0.2809  0.1893 -0.0401
  475DPPI   C2B 7458   6.361  14.603   9.315  0.1708  0.3942 -0.2259
  475DPPI   C3B 7459   6.049  14.935   9.184 -0.0565  0.0535  0.1791
  475DPPI   C4B 7460   5.785  15.183   9.024  0.0895  0.2586 -0.1175
  476DPPI    C1 7461   1.232   6.785  10.663  0.0558  0.1799  0.0812
  476DPPI    C2 7462   1.191   7.164  10.785  0.1566  0.0998  0.3697
  476DPPI    C3 7463   1.026   6.867  10.996  0.2424 -0.0328  0.2519
  476DPPI   PO4 7464   1.246   6.844  10.367  0.0878  0.2641 -0.0510
  476DPPI   GL1 7465   1.110   7.071  10.041  0.0639  0.3037 -0.1517
  476DPPI   GL2 7466   1.310   7.273   9.973 -0.1127  0.0708 -0.0105
  476DPPI   C1A 7467   1.028   6.898   9.620 -0.1736 -0.1789 -0.0383
  476DPPI   C2A 7468   1.004   7.067   9.186 -0.1876  0.1337 -0.3040
  476DPPI   C3A 7469   1.266   7.005   8.753 -0.1429 -0.1400  0.0005
  476DPPI   C4A 7470   1.261   7.219   8.403  0.2281 -0.1019  0.1952
  476DPPI   C1B 7471   1.336   7.366   9.547 -0.2635  0.3808  0.2380
  476DPPI   C2B 7472   1.423   7.367   9.162 -0.2105  0.0757  0.1033
  476DPPI   C3B 7473   1.479   7.530   8.705 -0.1618 -0.2622 -0.0490
  476DPPI   C4B 7474   1.402   7.689   8.301  0.0078 -0.0868  0.0545
  477DPPI    C1 7475   9.742  14.420  11.062  0.0945  0.0818  0.3392
  477DPPI    C2 7476   9.786  14.251  10.702 -0.0635  0.2363  0.2456
  477DPPI    C3 7477   9.990  14.110  11.016  0.1047  0.1249  0.0883
  477DPPI   PO4 7478   9.742  14.648  10.986 -0.1375  0.1598  0.0822
  477DPPI   GL1 7479   9.663  14.729  10.547 -0.2984  0.2411  0.1138
  477DPPI   GL2 7480   9.429  14.539  10.292  0.0495  0.0517  0.0675
  477DPPI   C1A 7481   9.881  14.620  10.092  0.1721  0.2353  0.0693
  477DPPI   C2A 7482   9.947  14.947   9.771  0.1875  0.1732 -0.0616
  477DPPI   C3A 7483   9.934  15.245   9.481 -0.4499 -0.1347 -0.0652
  477DPPI   C4A 7484   9.794  15.366   9.071  0.0919  0.3068  0.3990
  477DPPI   C1B 7485   9.563  14.482   9.763 -0.3187  0.1922 -0.0778
  477DPPI   C2B 7486   9.832  14.549   9.397 -0.0323 -0.0519 -0.0248
  477DPPI   C3B 7487   9.794  14.829   9.135  0.2602 -0.2027 -0.2352
  477DPPI   C4B 7488  10.023  15.056   8.688 -0.0847 -0.3513  0.2502
  478DPPI    C1 7489   9.781   4.644   9.997 -0.0178  0.3898  0.1304
  478DPPI    C2 7490   9.584   4.654  10.345  0.0677  0.2341  0.1843
  478DPPI    C3 7491   9.963   4.527  10.333  0.0303  0.1341  0.0175
  478DPPI   PO4 7492   9.701   4.430   9.830 -0.1156 -0.1023  0.0134
  478DPPI   GL1 7493   9.566   4.169   9.569 -0.2328 -0.0630 -0.2851
  478DPPI   GL2 7494   9.789   3.930   9.548  0.2352  0.3141 -0.0637
  478DPPI   C1A 7495   9.498   4.198   9.183 -0.1518 -0.0732 -0.1055
  478DPPI   C2A 7496   9.417   4.158   8.782 -0.4633 -0.0972 -0.2728
  478DPPI   C3A 7497   9.396   4.271   8.444  0.1298  0.1851 -0.0552
  478DPPI   C4A 7498   9.492   4.567   8.086 -0.1582  0.0539  0.1378
  478DPPI   C1B 7499   9.770   3.837   9.041  0.2312  0.1426  0.0904
  478DPPI   C2B 7500   9.854   3.925   8.575 -0.0103 -0.1777  0.1634
  478DPPI   C3B 7501   9.703   3.944   8.147  0.0241  0.3143  0.2777
  478DPPI   C4B 7502   9.484   4.131   7.850 -0.0756 -0.1725  0.1124
  479DPPI    C1 7503  10.604   9.100  10.480  0.0176  0.0252  0.1340
  479DPPI    C2 7504  10.252   9.274  10.556 -0.0544 -0.1281  0.1562
  479DPPI    C3 7505  10.440   9.071  10.844 -0.0089 -0.1538  0.1084
  479DPPI   PO4 7506  10.513   9.038  10.196 -0.2138 -0.0803  0.1743
  479DPPI   GL1 7507  10.551   9.161   9.814 -0.3145  0.1794  0.2164
  479DPPI   GL2 7508  10.677   9.553   9.688 -0.3468  0.0539 -0.2592
  479DPPI   C1A 7509  10.498   9.144   9.413  0.0011 -0.1187  0.0210
  479DPPI   C2A 7510  10.457   9.262   9.052  0.0521  0.1691  0.1178
  479DPPI   C3A 7511  10.415   8.964   8.669  0.1143  0.2617  0.2038
  479DPPI   C4A 7512  10.394   9.036   8.208 -0.2663 -0.0016  0.0944
  479DPPI   C1B 7513  10.603   9.716   9.236 -0.1963  0.0838 -0.3241
  479DPPI   C2B 7514  10.659   9.994   8.845 -0.0510 -0.0580 -0.2789
  479DPPI   C3B 7515  10.830   9.877   8.341  0.0200  0.1849  0.0708
  479DPPI   C4B 7516  10.897   9.780   7.912 -0.1042 -0.0181  0.1133
  480DPPI    C1 7517   6.311   3.471  10.139  0.0241  0.1554  0.1111
  480DPPI    C2 7518   5.914   3.458  10.090  0.0704 -0.0581 -0.2427
  480DPPI    C3 7519   6.102   3.163  10.284  0.0449  0.1032  0.0313
  480DPPI   PO4 7520   6.439   3.515   9.983  0.2810  0.2705  0.1707
  480DPPI   GL1 7521   6.536   3.284   9.673 -0.1166  0.2725 -0.0251
  480DPPI   GL2 7522   6.826   3.044   9.761 -0.2314  0.0284 -0.1636
  480DPPI   C1A 7523   6.569   3.355   9.228 -0.1118 -0.0007 -0.0590
  480DPPI   C2A 7524   6.587   3.246   8.777  0.1209 -0.2302 -0.2781
  480DPPI   C3A 7525   6.735   3.210   8.293  0.0091  0.1751 -0.0986
  480DPPI   C4A 7526   6.836   3.237   7.928 -0.1917  0.1537  0.1529
  480DPPI   C1B 7527   6.966   2.914   9.281  0.3632 -0.1620  0.1933
  480DPPI   C2B 7528   6.956   2.942   8.807 -0.3753 -0.1468  0.1215
  480DPPI   C3B 7529   6.792   2.706   8.417 -0.3158 -0.2681  0.1978
  480DPPI   C4B 7530   6.594   2.330   8.139 -0.0439 -0.2504 -0.0234
  481DPPI    C1 7531  16.227   6.204   9.777  0.1481  0.2650 -0.2339
  481DPPI    C2 7532  16.068   6.563   9.852  0.1530  0.2144  0.0271
  481DPPI    C3 7533  16.204   6.337  10.153  0.1834  0.0086 -0.1386
  481DPPI   PO4 7534  16.418   6.181   9.591  0.0959 -0.0099 -0.3765
  481DPPI   GL1 7535  16.540   6.564   9.415  0.0809  0.1288 -0.0881
  481DPPI   GL2 7536  16.290   6.656   9.400 -0.1593 -0.1243 -0.0456
  481DPPI   C1A 7537  16.578   6.423   9.019  0.0887  0.0083  0.0374
  481DPPI   C2A 7538  16.607   6.487   8.626 -0.1206 -0.1677  0.0398
  481DPPI   C3A 7539  16.715   6.481   8.250 -0.0129 -0.3863  0.1168
  481DPPI   C4A 7540  16.554   6.372   7.812  0.0203  0.1026 -0.0073
  481DPPI   C1B 7541  16.199   6.651   8.892  0.1775 -0.1173 -0.2166
  481DPPI   C2B 7542  16.192   6.767   8.514  0.0995  0.1436  0.0275
  481DPPI   C3B 7543  16.153   7.152   8.153 -0.2893  0.4186  0.0543
  481DPPI   C4B 7544  16.134   7.152   7.682 -0.0578  0.2926  0.2946
  482DPPI    C1 7545   3.037   2.993  10.580  0.2739  0.0630  0.0991
  482DPPI    C2 7546   3.405   3.124  10.669  0.2666  0.0437  0.1583
  482DPPI    C3 7547   3.138   3.064  10.960  0.1334  0.3033  0.0937
  482DPPI   PO4 7548   2.954   3.069  10.277 -0.2008 -0.1723  0.3843
  482DPPI   GL1 7549   3.093   2.994   9.889 -0.1554  0.0617  0.1281
  482DPPI   GL2 7550   3.238   3.292   9.718  0.2501 -0.3254 -0.1836
  482DPPI   C1A 7551   3.017   2.818   9.490  0.0957 -0.1114  0.0191
  482DPPI   C2A 7552   2.872   2.942   9.097 -0.0403 -0.0527  0.0077
  482DPPI   C3A 7553   2.822   2.774   8.676 -0.1576  0.1184 -0.0279
  482DPPI   C4A 7554   3.027   2.395   8.450 -0.0687  0.0589 -0.1566
  482DPPI   C1B 7555   3.210   3.344   9.240  0.1692 -0.0244  0.0613
  482DPPI   C2B 7556   3.124   3.278   8.760  0.3297 -0.4007 -0.1688
  482DPPI   C3B 7557   3.083   3.058   8.313 -0.1507 -0.0406 -0.0808
  482DPPI   C4B 7558   3.036   3.069   7.806 -0.0903 -0.2184 -0.1282
  483DPPI    C1 7559  15.018  13.721  10.417  0.0207 -0.0648  0.0805
  483DPPI    C2 7560  14.839  13.389  10.549 -0.0095 -0.0358  0.1126
  483DPPI    C3 7561  15.236  13.426  10.577 -0.0095 -0.0551  0.1397
  483DPPI   PO4 7562  14.918  13.771  10.187 -0.0815  0.0322  0.2457
  483DPPI   GL1 7563  14.995  13.878   9.769  0.0809 -0.0590 -0.0756
  483DPPI   GL2 7564  14.952  13.547   9.702 -0.1777 -0.4994 -0.1039
  483DPPI   C1A 7565  14.551  13.802   9.609 -0.2198  0.2353  0.0694
  483DPPI   C2A 7566  14.511  13.917   9.121 -0.0622  0.1188  0.0251
  483DPPI   C3A 7567  14.370  13.718   8.822  0.0329  0.0691 -0.0779
  483DPPI   C4A 7568  14.340  13.816   8.424 -0.3604 -0.2522 -0.0406
  483DPPI   C1B 7569  14.811  13.612   9.289 -0.2341  0.0627  0.2589
  483DPPI   C2B 7570  14.850  13.597   8.879 -0.0131 -0.0677 -0.1629
  483DPPI   C3B 7571  15.169  13.609   8.504  0.0880  0.1197 -0.1757
  483DPPI   C4B 7572  15.370  13.713   8.122 -0.0975 -0.2196 -0.0261
  484DPPI    C1 7573  16.477  16.873  11.014 -0.1724  0.0854  0.3055
  484DPPI    C2 7574  16.548  17.251  10.904 -0.2868  0.0202 -0.0029
  484DPPI    C3 7575  16.844  17.027  11.053 -0.1498  0.1425 -0.0885
  484DPPI   PO4 7576  16.365  16.828  10.685 -0.0127  0.0900  0.0475
  484DPPI   GL1 7577  16.164  17.078  10.337 -0.2431 -0.0621  0.1555
  484DPPI   GL2 7578  15.959  17.237  10.116 -0.0002  0.1412  0.0459
  484DPPI   C1A 7579  16.413  17.005   9.941 -0.2756  0.0962 -0.0440
  484DPPI   C2A 7580  16.379  16.837   9.550 -0.3124  0.1091 -0.0185
  484DPPI   C3A 7581  16.111  16.963   9.277  0.0619  0.1177 -0.3110
  484DPPI   C4A 7582  15.864  17.036   8.935  0.0944 -0.3153  0.2418
  484DPPI   C1B 7583  15.549  17.191   9.971 -0.0684  0.0321 -0.1211
  484DPPI   C2B 7584  15.221  17.337   9.748 -0.1109 -0.0008  0.0046
  484DPPI   C3B 7585  15.085  17.682   9.521 -0.2595 -0.0536 -0.0772
  484DPPI   C4B 7586  15.280  17.982   9.343 -0.3331 -0.1894  0.3738
  485DPPI    C1 7587   9.527  12.594  10.516 -0.5598 -0.0494 -0.3764
  485DPPI    C2 7588   9.628  12.981  10.507 -0.1528 -0.1337  0.1249
  485DPPI    C3 7589   9.286  12.867  10.680 -0.1949 -0.0136  0.1217
  485DPPI   PO4 7590   9.610  12.511  10.327 -0.2052  0.1959 -0.5561
  485DPPI   GL1 7591   9.461  12.425   9.862  0.2983 -0.1708  0.1878
  485DPPI   GL2 7592   9.210  12.522   9.789 -0.1429  0.0829 -0.0398
  485DPPI   C1A 7593   9.682  12.639   9.514  0.2290  0.2296  0.0043
  485DPPI   C2A 7594   9.743  12.979   9.386 -0.2221 -0.0575 -0.2309
  485DPPI   C3A 7595  10.059  13.217   9.186  0.1036  0.1876  0.0351
  485DPPI   C4A 7596  10.478  13.273   9.161  0.1684  0.2739  0.1611
  485DPPI   C1B 7597   9.225  12.905   9.502  0.0789  0.1645  0.1571
  485DPPI   C2B 7598   9.325  12.846   9.038 -0.0516  0.0551 -0.0819
  485DPPI   C3B 7599   9.470  12.891   8.557 -0.0411 -0.1309 -0.2845
  485DPPI   C4B 7600   9.681  12.749   8.074  0.0881  0.0984  0.0653
  486DPPI    C1 7601   9.647   7.056  10.175 -0.2262  0.0282  0.2375
  486DPPI    C2 7602   9.409   7.185  10.469 -0.4584 -0.3728  0.2334
  486DPPI    C3 7603   9.688   6.909  10.544 -0.1830 -0.1161  0.1760
  486DPPI   PO4 7604   9.458   6.980   9.985  0.0294  0.0582 -0.2502
  486DPPI   GL1 7605   9.436   7.137   9.481 -0.2406  0.2148 -0.1154
  486DPPI   GL2 7606   9.428   7.302   9.591  0.1427  0.2893 -0.1122
  486DPPI   C1A 7607   9.233   7.217   9.112  0.0390 -0.1163  0.1214
  486DPPI   C2A 7608   9.141   7.175   8.682 -0.0328  0.0029  0.0747
  486DPPI   C3A 7609   9.127   7.369   8.321 -0.0636  0.1223 -0.3459
  486DPPI   C4A 7610   8.777   7.590   8.173  0.0114  0.1644 -0.0530
  486DPPI   C1B 7611   9.003   7.431   9.574  0.3735  0.0566 -0.1701
  486DPPI   C2B 7612   8.777   7.447   9.149  0.1130 -0.0540  0.3625
  486DPPI   C3B 7613   8.620   7.493   8.643  0.4349  0.2946 -0.0309
  486DPPI   C4B 7614   8.260   7.604   8.329 -0.2931  0.0014  0.0470
  487DPPI    C1 7615   7.029  18.448  10.352  0.2623 -0.3325  0.0047
  487DPPI    C2 7616   7.196  18.091  10.280  0.3934 -0.2601 -0.0543
  487DPPI    C3 7617   7.347  18.328  10.564  0.3044 -0.2528 -0.0129
  487DPPI   PO4 7618   7.017  18.479  10.070  0.2616 -0.2280  0.1546
  487DPPI   GL1 7619   7.134  18.315   9.772 -0.2940 -0.3698  0.0592
  487DPPI   GL2 7620   7.329  17.987   9.779  0.3231  0.1670  0.0643
  487DPPI   C1A 7621   7.032  18.149   9.344 -0.0236 -0.1986 -0.3080
  487DPPI   C2A 7622   6.799  18.186   9.088 -0.3192  0.1288  0.2242
  487DPPI   C3A 7623   6.790  18.110   8.576 -0.3194  0.2078 -0.0258
  487DPPI   C4A 7624   6.931  18.108   8.128 -0.2016 -0.0679  0.1669
  487DPPI   C1B 7625   7.661  18.091   9.460  0.1961 -0.1420  0.0431
  487DPPI   C2B 7626   7.801  18.054   8.980  0.1760 -0.0249 -0.2419
  487DPPI   C3B 7627   7.939  18.070   8.571 -0.1249  0.0290  0.0133
  487DPPI   C4B 7628   7.797  18.053   8.213  0.1614 -0.1659 -0.2293
  488DPPI    C1 7629   1.049   0.540  10.757  0.0428  0.1031  0.1147
  488DPPI    C2 7630   1.245   0.738  11.044  0.2428  0.1553 -0.0552
  488DPPI    C3 7631   1.378   0.381  10.921  0.0963  0.0841 -0.0098
  488DPPI   PO4 7632   1.030   0.711  10.536 -0.1838 -0.1678 -0.1616
  488DPPI   GL1 7633   0.820   0.466  10.113 -0.2244 -0.0959 -0.2121
  488DPPI   GL2 7634   0.625   0.759  10.027 -0.0184 -0.0867 -0.0123
  488DPPI   C1A 7635   0.879   0.526   9.675 -0.0382 -0.3127  0.0295
  488DPPI   C2A 7636   0.854   0.510   9.313  0.4012  0.2062 -0.2679
  488DPPI   C3A 7637   0.698   0.520   8.895  0.0254 -0.0991 -0.2495
  488DPPI   C4A 7638   0.726   0.266   8.423  0.1455  0.1827 -0.1088
  488DPPI   C1B 7639   0.418   0.714   9.660  0.0118 -0.1104  0.1521
  488DPPI   C2B 7640   0.272   0.531   9.205  0.2547  0.0514 -0.1123
  488DPPI   C3B 7641   0.162   0.390   8.765 -0.1959 -0.0719  0.0471
  488DPPI   C4B 7642   0.106   0.224   8.380 -0.0088 -0.2951  0.1031
  489DPPI    C1 7643  13.728   6.527  10.329  0.0592  0.4610  0.1068
  489DPPI    C2 7644  13.362   6.667  10.407 -0.2016 -0.0722 -0.1055
  489DPPI    C3 7645  13.586   6.518  10.703 -0.2679 -0.0015 -0.0191
  489DPPI   PO4 7646  13.687   6.263  10.213  0.0826  0.1114  0.0144
  489DPPI   GL1 7647  13.727   6.155   9.804 -0.0872  0.0184 -0.0330
  489DPPI   GL2 7648  13.509   5.826   9.733 -0.2018  0.0850 -0.0008
  489DPPI   C1A 7649  13.398   6.236   9.404 -0.2396  0.0811 -0.1834
  489DPPI   C2A 7650  13.343   6.338   9.000 -0.0294 -0.1770  0.0694
  489DPPI   C3A 7651  13.412   6.291   8.531  0.2410 -0.1920  0.1069
  489DPPI   C4A 7652  13.777   6.090   8.317 -0.2683 -0.1777  0.0871
  489DPPI   C1B 7653  13.675   5.794   9.335  0.0512  0.0323 -0.3889
  489DPPI   C2B 7654  13.729   5.632   8.872  0.1932  0.1969  0.1128
  489DPPI   C3B 7655  13.668   5.597   8.440  0.0392  0.1977  0.0032
  489DPPI   C4B 7656  13.741   5.607   7.944  0.2212  0.2470 -0.3996
  490DPPI    C1 7657   8.762  14.231  10.667  0.1151 -0.0136  0.2602
  490DPPI    C2 7658   8.837  14.569  10.868  0.2199  0.0040  0.1924
  490DPPI    C3 7659   8.522  14.344  10.967 -0.0663  0.3099  0.0004
  490DPPI   PO4 7660   8.930  14.284  10.451 -0.1458 -0.3092  0.1466
  490DPPI   GL1 7661   9.046  14.161  10.083  0.0413  0.0282 -0.0211
  490DPPI   GL2 7662   8.801  14.185   9.778  0.3308  0.0079  0.0824
  490DPPI   C1A 7663   9.273  14.105   9.718 -0.0717 -0.2732 -0.1971
  490DPPI   C2A 7664   9.450  14.238   9.358  0.0850 -0.0446 -0.1057
  490DPPI   C3A 7665   9.550  14.335   8.873  0.2462 -0.2537 -0.0505
  490DPPI   C4A 7666   9.543  14.562   8.447  0.2907 -0.3084 -0.0099
  490DPPI   C1B 7667   8.901  14.210   9.336 -0.1302  0.4147 -0.3130
  490DPPI   C2B 7668   8.842  14.044   8.993  0.1640  0.3748  0.2234
  490DPPI   C3B 7669   8.925  13.728   8.616 -0.2804 -0.0244 -0.0286
  490DPPI   C4B 7670   8.656  13.383   8.419 -0.4346  0.0828  0.0047
  491DPPI    C1 7671  15.876   4.351  10.214 -0.1199  0.0707 -0.1032
  491DPPI    C2 7672  15.681   4.693  10.284 -0.0498  0.0191  0.3756
  491DPPI    C3 7673  15.863   4.501  10.584 -0.0416 -0.4132  0.1032
  491DPPI   PO4 7674  15.771   4.223  10.028 -0.1161  0.2244  0.1066
  491DPPI   GL1 7675  15.777   4.066   9.602 -0.1886 -0.1106 -0.0196
  491DPPI   GL2 7676  15.409   3.966   9.498 -0.2634 -0.0299  0.0471
  491DPPI   C1A 7677  15.831   4.033   9.244 -0.0545 -0.0643  0.0497
  491DPPI   C2A 7678  15.569   3.933   8.900  0.0577 -0.0221  0.0221
  491DPPI   C3A 7679  15.444   4.109   8.473 -0.0671  0.0205  0.0828
  491DPPI   C4A 7680  15.345   4.091   8.035  0.0888  0.3976 -0.0955
  491DPPI   C1B 7681  15.147   3.943   9.106 -0.0031 -0.4479  0.4069
  491DPPI   C2B 7682  15.094   3.754   8.736  0.0367  0.0402  0.0154
  491DPPI   C3B 7683  14.991   3.763   8.247  0.0090 -0.1337 -0.1159
  491DPPI   C4B 7684  15.142   3.582   7.896 -0.0083 -0.0069  0.2573
  492DPPI    C1 7685  11.815   3.561  10.692 -0.1189 -0.0622 -0.1019
  492DPPI    C2 7686  11.445   3.641  10.821 -0.0600 -0.0207  0.0432
  492DPPI    C3 7687  11.658   3.351  10.995  0.1596  0.2834  0.2940
  492DPPI   PO4 7688  11.725   3.489  10.448  0.0566 -0.0868  0.1835
  492DPPI   GL1 7689  11.827   3.267  10.109  0.0119  0.0960 -0.2621
  492DPPI   GL2 7690  12.059   3.417   9.959  0.2423  0.1974  0.2159
  492DPPI   C1A 7691  12.012   2.993   9.827 -0.2252  0.1817  0.0829
  492DPPI   C2A 7692  12.110   2.944   9.398  0.1392  0.2877 -0.0930
  492DPPI   C3A 7693  12.064   3.000   8.992  0.0412 -0.4118 -0.3820
  492DPPI   C4A 7694  12.231   3.123   8.567 -0.1782 -0.0945 -0.1383
  492DPPI   C1B 7695  12.136   3.566   9.424 -0.0070  0.1056  0.3192
  492DPPI   C2B 7696  12.421   3.882   9.186 -0.0406  0.0405 -0.2124
  492DPPI   C3B 7697  12.583   3.982   8.778 -0.0570 -0.0173 -0.2477
  492DPPI   C4B 7698  12.817   3.895   8.479 -0.0365 -0.1752  0.0202
  493DPPI    C1 7699  17.655  14.083  10.461 -0.1289 -0.0906 -0.2706
  493DPPI    C2 7700  17.900  14.354  10.623 -0.0045 -0.1870 -0.2958
  493DPPI    C3 7701  17.518  14.448  10.551  0.0539  0.0026 -0.3649
  493DPPI   PO4 7702  17.808  13.812  10.556  0.1900 -0.1301 -0.0182
  493DPPI   GL1 7703  17.951  13.623  10.240  0.3066 -0.0894  0.0260
  493DPPI   GL2 7704  17.808  13.439  10.071  0.0235 -0.1650  0.0426
  493DPPI   C1A 7705  18.182  13.871   9.841 -0.0620 -0.2242  0.1943
  493DPPI   C2A 7706  18.000  13.699   9.466 -0.3419  0.1128 -0.1559
  493DPPI   C3A 7707  18.110  13.392   9.047  0.0577  0.0104 -0.0862
  493DPPI   C4A 7708  18.357  13.484   8.653 -0.2356 -0.1592 -0.1000
  493DPPI   C1B 7709  17.728  13.324   9.669  0.2048 -0.1075  0.1605
  493DPPI   C2B 7710  17.625  13.369   9.185 -0.2995 -0.1386  0.0791
  493DPPI   C3B 7711  17.402  13.399   8.718  0.2049  0.2914 -0.1607
  493DPPI   C4B 7712  17.427  13.163   8.433  0.1494 -0.1439 -0.0686
  494DPPI    C1 7713   1.611   4.460  10.379  0.2167 -0.0908 -0.2060
  494DPPI    C2 7714   1.886   4.323  10.636  0.0390  0.2412  0.1706
  494DPPI    C3 7715   1.548   4.118  10.577  0.1362  0.0989  0.1025
  494DPPI   PO4 7716   1.722   4.579  10.082  0.1522 -0.0366 -0.0073
  494DPPI   GL1 7717   1.811   4.324   9.718 -0.1174 -0.2950  0.1807
  494DPPI   GL2 7718   1.602   4.369   9.648 -0.0157 -0.0786 -0.2232
  494DPPI   C1A 7719   1.904   4.105   9.321 -0.2295 -0.0800 -0.0390
  494DPPI   C2A 7720   2.065   3.664   9.242  0.0019  0.0397  0.3192
  494DPPI   C3A 7721   2.149   3.245   9.074 -0.0013 -0.1208  0.0586
  494DPPI   C4A 7722   2.195   3.283   8.578 -0.1093  0.1760 -0.3353
  494DPPI   C1B 7723   1.626   4.536   9.227 -0.0058 -0.1941  0.2751
  494DPPI   C2B 7724   1.655   4.678   8.909  0.3709 -0.0322  0.0697
  494DPPI   C3B 7725   1.686   4.690   8.472 -0.3249  0.2639  0.3822
  494DPPI   C4B 7726   1.666   4.706   8.089 -0.1771  0.0252  0.3213
  495DPPI    C1 7727   9.408  10.812  10.463 -0.0300  0.1145  0.0492
  495DPPI    C2 7728   9.028  10.738  10.563 -0.1074 -0.0726 -0.3650
  495DPPI    C3 7729   9.315  10.480  10.666 -0.0926  0.0577 -0.0715
  495DPPI   PO4 7730   9.425  10.974  10.228  0.1738  0.0177 -0.3521
  495DPPI   GL1 7731   9.280  11.046   9.705 -0.1016  0.0715  0.0232
  495DPPI   GL2 7732   9.137  10.769   9.545 -0.4403  0.4103 -0.0327
  495DPPI   C1A 7733   9.357  11.129   9.348 -0.2005 -0.0171 -0.1394
  495DPPI   C2A 7734   9.438  11.068   8.903 -0.1348 -0.0300  0.0743
  495DPPI   C3A 7735   9.553  10.826   8.545 -0.0737  0.1106 -0.0040
  495DPPI   C4A 7736   9.779  10.366   8.552 -0.1101  0.0399  0.1106
  495DPPI   C1B 7737   9.049  10.749   9.043 -0.1905  0.0232  0.4530
  495DPPI   C2B 7738   9.082  10.714   8.503  0.0672 -0.0266  0.1392
  495DPPI   C3B 7739   9.221  10.767   8.104  0.0022  0.1331 -0.2129
  495DPPI   C4B 7740   9.323  10.641   7.714 -0.0452 -0.2558 -0.1371
  496DPPI    C1 7741  13.724  15.160  10.889  0.1885  0.0745 -0.3972
  496DPPI    C2 7742  13.792  14.767  10.861  0.0407  0.0272 -0.1323
  496DPPI    C3 7743  13.711  14.930  11.217  0.0981  0.2986 -0.2413
  496DPPI   PO4 7744  13.675  15.205  10.610  0.0029  0.1098  0.2263
  496DPPI   GL1 7745  13.390  15.192  10.354 -0.0801 -0.0852  0.3464
  496DPPI   GL2 7746  13.307  14.975  10.187 -0.3359  0.1188 -0.1036
  496DPPI   C1A 7747  13.024  15.375  10.232  0.1279 -0.1960 -0.2855
  496DPPI   C2A 7748  12.926  15.489   9.787  0.0487  0.2323  0.1444
  496DPPI   C3A 7749  13.193  15.798   9.497 -0.3128  0.0249 -0.0209
  496DPPI   C4A 7750  13.513  15.925   9.330  0.3335  0.2121 -0.0035
  496DPPI   C1B 7751  13.028  15.002   9.819 -0.3964  0.1938  0.1122
  496DPPI   C2B 7752  13.012  14.957   9.303 -0.2694 -0.3347 -0.1146
  496DPPI   C3B 7753  13.211  15.015   8.992  0.0268  0.2663 -0.0026
  496DPPI   C4B 7754  13.444  14.727   8.808  0.0774  0.0926  0.0481
  497DPPI    C1 7755  11.659  14.489  11.130  0.0918  0.2336 -0.0455
  497DPPI    C2 7756  11.500  14.477  11.497  0.0312  0.1001 -0.0756
  497DPPI    C3 7757  11.789  14.741  11.413  0.1459  0.0358  0.1084
  497DPPI   PO4 7758  11.444  14.448  10.967 -0.1293  0.0187 -0.2114
  497DPPI   GL1 7759  11.219  14.467  10.533 -0.3092  0.0243  0.0903
  497DPPI   GL2 7760  10.990  14.218  10.410  0.0434  0.0848 -0.2510
  497DPPI   C1A 7761  11.382  14.621  10.103 -0.1255 -0.1745  0.1901
  497DPPI   C2A 7762  11.449  14.723   9.655  0.0399  0.0757  0.1559
  497DPPI   C3A 7763  11.250  14.655   9.237  0.1607 -0.2259  0.0545
  497DPPI   C4A 7764  11.158  14.357   8.959 -0.1776 -0.1819  0.1574
  497DPPI   C1B 7765  10.804  14.091   9.964 -0.1054  0.2504 -0.2384
  497DPPI   C2B 7766  11.022  13.828   9.706  0.0462 -0.0065  0.2091
  497DPPI   C3B 7767  11.128  13.557   9.464  0.1074 -0.1117 -0.2395
  497DPPI   C4B 7768  11.328  13.521   9.128  0.2394  0.2756  0.1503
  498DPPI    C1 7769   6.942  11.885  10.298 -0.0937 -0.4703 -0.1378
  498DPPI    C2 7770   6.670  11.681  10.507 -0.2324 -0.1335  0.0186
  498DPPI    C3 7771   6.600  12.061  10.407  0.2233 -0.0097  0.1491
  498DPPI   PO4 7772   7.069  11.660  10.166 -0.0267  0.1259  0.0016
  498DPPI   GL1 7773   7.261  11.493   9.749  0.2629 -0.0987  0.0237
  498DPPI   GL2 7774   7.061  11.790   9.686 -0.2766  0.1175 -0.1063
  498DPPI   C1A 7775   7.404  11.589   9.311 -0.1176  0.0764 -0.1324
  498DPPI   C2A 7776   7.416  11.519   8.916 -0.2270  0.0815  0.0189
  498DPPI   C3A 7777   7.455  11.480   8.472 -0.0583 -0.2225  0.0018
  498DPPI   C4A 7778   7.641  11.433   8.079  0.1702  0.0059  0.0343
  498DPPI   C1B 7779   6.979  11.801   9.208  0.0749  0.1721  0.3303
  498DPPI   C2B 7780   7.027  11.922   8.861  0.0583 -0.0371 -0.0984
  498DPPI   C3B 7781   7.310  11.933   8.514  0.0495  0.3349  0.0088
  498DPPI   C4B 7782   7.357  12.074   7.986 -0.0371 -0.1706 -0.0701
  499DPPI    C1 7783   8.883  16.338  10.572 -0.1667 -0.1151  0.1037
  499DPPI    C2 7784   8.701  16.677  10.684 -0.1786 -0.1223  0.1066
  499DPPI    C3 7785   8.776  16.391  10.954 -0.0529 -0.0687  0.1298
  499DPPI   PO4 7786   8.847  16.311  10.370  0.0423 -0.3100  0.0031
  499DPPI   GL1 7787   9.114  15.990  10.192  0.0431  0.1477  0.1589
  499DPPI   GL2 7788   9.306  15.651  10.374 -0.0857 -0.0422 -0.0397
  499DPPI   C1A 7789   9.234  15.860   9.658 -0.1320  0.1954  0.4847
  499DPPI   C2A 7790   9.279  15.714   9.289 -0.2094 -0.1713 -0.1988
  499DPPI   C3A 7791   9.374  15.551   8.918 -0.1590 -0.3738 -0.1669
  499DPPI   C4A 7792   9.388  15.235   8.471 -0.1919  0.0913 -0.0283
  499DPPI   C1B 7793   9.569  15.747  10.017  0.0066 -0.0994 -0.2046
  499DPPI   C2B 7794   9.739  15.687   9.535 -0.0889  0.5241 -0.1037
  499DPPI   C3B 7795  10.054  15.772   9.185 -0.0122 -0.1196  0.0820
  499DPPI   C4B 7796  10.140  16.094   8.946 -0.0921  0.0758 -0.3531
  500DPPI    C1 7797   2.360  13.581   9.883 -0.2953  0.4657 -0.2542
  500DPPI    C2 7798   2.386  13.636  10.279 -0.2107 -0.2369 -0.1495
  500DPPI    C3 7799   2.709  13.689  10.048 -0.2380  0.0874 -0.1183
  500DPPI   PO4 7800   2.067  13.525   9.918 -0.0340 -0.0431  0.3422
  500DPPI   GL1 7801   1.872  13.425   9.581 -0.1722 -0.0968 -0.1963
  500DPPI   GL2 7802   2.274  13.343   9.390 -0.0871  0.0500 -0.0248
  500DPPI   C1A 7803   1.369  13.329   9.508 -0.1652  0.0851  0.4229
  500DPPI   C2A 7804   1.100  13.433   9.250  0.0604 -0.2161  0.1462
  500DPPI   C3A 7805   1.227  13.556   8.850 -0.2411  0.3135 -0.0767
  500DPPI   C4A 7806   0.982  13.393   8.579  0.0426 -0.0429 -0.0459
  500DPPI   C1B 7807   2.246  13.335   8.922 -0.1810  0.2276  0.0006
  500DPPI   C2B 7808   2.388  13.647   8.717 -0.0696  0.1324  0.0816
  500DPPI   C3B 7809   2.146  13.888   8.540 -0.0219 -0.0739 -0.1124
  500DPPI   C4B 7810   1.854  14.219   8.288 -0.1676  0.1060  0.1813
  501DPPI    C1 7811   7.321   8.215  10.406  0.0760 -0.0297  0.3261
  501DPPI    C2 7812   7.362   8.612  10.433  0.0332 -0.0070  0.0824
  501DPPI    C3 7813   7.069   8.427  10.633 -0.1327  0.1217 -0.0379
  501DPPI   PO4 7814   7.324   8.086   9.992  0.3206 -0.1381  0.0790
  501DPPI   GL1 7815   7.387   7.618   9.780  0.0432 -0.2689  0.1069
  501DPPI   GL2 7816   7.402   7.765   9.604  0.0430 -0.2247 -0.0746
  501DPPI   C1A 7817   7.034   7.483   9.506 -0.3428 -0.0929 -0.3273
  501DPPI   C2A 7818   6.706   7.386   9.291 -0.0326  0.2072 -0.1560
  501DPPI   C3A 7819   6.489   7.589   8.955 -0.1683 -0.0225 -0.2166
  501DPPI   C4A 7820   6.547   7.322   8.532  0.0728 -0.0619  0.1463
  501DPPI   C1B 7821   7.395   7.679   9.120  0.0320 -0.0295 -0.1382
  501DPPI   C2B 7822   7.594   7.816   8.716 -0.2970  0.0959  0.0868
  501DPPI   C3B 7823   7.786   7.745   8.243 -0.2693 -0.0280  0.3279
  501DPPI   C4B 7824   7.770   7.551   7.827  0.0901 -0.0637  0.1239
  502DPPI    C1 7825   1.640   2.276  10.762 -0.0271 -0.0902 -0.1062
  502DPPI    C2 7826   2.015   2.197  10.876 -0.0359 -0.2168 -0.1628
  502DPPI    C3 7827   1.801   2.472  11.071  0.0391 -0.2429 -0.0425
  502DPPI   PO4 7828   1.667   2.319  10.528 -0.1049 -0.1809  0.2061
  502DPPI   GL1 7829   1.714   2.039  10.056  0.3969  0.0197 -0.2788
  502DPPI   GL2 7830   1.911   2.044   9.873  0.0036  0.0859 -0.1733
  502DPPI   C1A 7831   1.477   1.816   9.700  0.0970  0.1376 -0.0082
  502DPPI   C2A 7832   1.370   1.754   9.267  0.1239 -0.0678 -0.1516
  502DPPI   C3A 7833   1.409   1.791   8.915  0.0799  0.0050  0.2005
  502DPPI   C4A 7834   1.337   1.471   8.519 -0.5049 -0.0039  0.0150
  502DPPI   C1B 7835   1.919   1.944   9.437 -0.2820  0.0852  0.1199
  502DPPI   C2B 7836   1.949   1.844   9.009 -0.0005 -0.3273  0.0155
  502DPPI   C3B 7837   1.797   1.859   8.638 -0.1873  0.0285  0.0860
  502DPPI   C4B 7838   1.983   1.973   8.223 -0.1388 -0.0190 -0.0823
  503DPPI    C1 7839   7.154  12.270  10.690 -0.0871  0.1225  0.0321
  503DPPI    C2 7840   6.780  12.376  10.785 -0.0708  0.0562  0.1733
  503DPPI    C3 7841   7.055  12.334  11.072  0.0165 -0.0075  0.0813
  503DPPI   PO4 7842   7.181  12.372  10.448 -0.0331  0.1508 -0.0578
  503DPPI   GL1 7843   6.878  12.319  10.036  0.1647  0.0961  0.2069
  503DPPI   GL2 7844   7.039  12.630   9.880 -0.1059  0.0002 -0.1929
  503DPPI   C1A 7845   6.799  12.199   9.677 -0.3267 -0.2057 -0.0666
  503DPPI   C2A 7846   6.798  12.262   9.287  0.1771  0.0100  0.1033
  503DPPI   C3A 7847   6.591  12.338   8.882  0.1600 -0.1479 -0.1256
  503DPPI   C4A 7848   6.429  12.408   8.428 -0.0864 -0.0101  0.2562
  503DPPI   C1B 7849   7.209  12.429   9.505  0.2179 -0.0521  0.3979
  503DPPI   C2B 7850   7.258  12.496   9.134 -0.0917  0.2579 -0.0090
  503DPPI   C3B 7851   7.055  12.476   8.746  0.0887 -0.1907  0.0783
  503DPPI   C4B 7852   6.970  12.209   8.347  0.1532  0.1571  0.0956
  504DPPI    C1 7853  17.556   6.937  10.400  0.0410  0.0371  0.0127
  504DPPI    C2 7854  17.489   6.671  10.691  0.1909 -0.0858 -0.0636
  504DPPI    C3 7855  17.529   7.059  10.780 -0.0901 -0.0787  0.0415
  504DPPI   PO4 7856  17.308   6.728  10.203  0.0734 -0.0019 -0.2901
  504DPPI   GL1 7857  17.374   6.668   9.819  0.2094  0.0850 -0.0755
  504DPPI   GL2 7858  17.097   6.602   9.618 -0.0023 -0.2713  0.0181
  504DPPI   C1A 7859  17.838   6.523   9.627  0.0502  0.2228  0.3126
  504DPPI   C2A 7860  18.044   6.446   9.179  0.0305  0.0231  0.0979
  504DPPI   C3A 7861  18.017   6.482   8.754 -0.3039 -0.0983  0.1068
  504DPPI   C4A 7862  18.111   6.387   8.432 -0.1778  0.2234 -0.0587
  504DPPI   C1B 7863  17.013   6.358   9.243  0.1346 -0.0791 -0.2424
  504DPPI   C2B 7864  16.999   6.155   8.878 -0.0604 -0.4579 -0.1734
  504DPPI   C3B 7865  17.206   5.847   8.590  0.2894 -0.2159 -0.0564
  504DPPI   C4B 7866  17.142   5.598   8.202 -0.3015  0.2858 -0.1755
  505DPPI    C1 7867   2.594   7.352  10.680 -0.1849 -0.1098 -0.2187
  505DPPI    C2 7868   2.782   7.705  10.692 -0.2116 -0.0973 -0.1613
  505DPPI    C3 7869   2.489   7.625  10.952 -0.1245 -0.2078 -0.0959
  505DPPI   PO4 7870   2.536   7.266  10.465  0.2259 -0.1282  0.2202
  505DPPI   GL1 7871   2.573   7.259  10.022  0.1112  0.1669 -0.0047
  505DPPI   GL2 7872   2.481   7.548  10.020  0.0911  0.0317 -0.5955
  505DPPI   C1A 7873   2.735   7.393   9.581 -0.0718  0.0173 -0.0556
  505DPPI   C2A 7874   2.809   7.320   9.186  0.1138  0.2839  0.4562
  505DPPI   C3A 7875   2.839   7.373   8.792 -0.4157  0.2542 -0.2568
  505DPPI   C4A 7876   3.253   7.373   8.658 -0.1253 -0.1585 -0.2959
  505DPPI   C1B 7877   2.229   7.638   9.642  0.0135  0.1136  0.1150
  505DPPI   C2B 7878   2.223   7.400   9.208  0.4428 -0.0224  0.0299
  505DPPI   C3B 7879   2.302   7.386   8.729 -0.0791 -0.1965  0.2960
  505DPPI   C4B 7880   2.381   7.117   8.405 -0.1082  0.2190 -0.0528
  506DPPI    C1 7881  11.649   2.343  10.530 -0.2281 -0.2569 -0.1409
  506DPPI    C2 7882  11.655   2.163  10.887 -0.3859 -0.3308 -0.1746
  506DPPI    C3 7883  11.908   2.463  10.811 -0.3962 -0.2708  0.0220
  506DPPI   PO4 7884  11.572   2.182  10.379  0.1341 -0.0747 -0.1114
  506DPPI   GL1 7885  11.735   1.960  10.016 -0.1449  0.2225 -0.3091
  506DPPI   GL2 7886  11.870   2.259   9.981 -0.1988  0.0737  0.1430
  506DPPI   C1A 7887  11.613   1.677   9.745  0.0142 -0.0051  0.1569
  506DPPI   C2A 7888  11.469   1.681   9.429  0.3872 -0.2371  0.1715
  506DPPI   C3A 7889  11.458   1.659   8.895 -0.2050 -0.1113 -0.1046
  506DPPI   C4A 7890  11.362   1.614   8.497  0.0185  0.2431 -0.2312
  506DPPI   C1B 7891  11.871   2.168   9.616  0.0274  0.2276  0.2814
  506DPPI   C2B 7892  11.822   2.127   9.074  0.0439  0.3257 -0.0639
  506DPPI   C3B 7893  11.793   1.970   8.600  0.2950  0.1729 -0.3376
  506DPPI   C4B 7894  11.753   1.972   8.249 -0.0006 -0.0313  0.3249
  507DPPI    C1 7895   4.555  10.084  10.400  0.1914  0.2288 -0.2600
  507DPPI    C2 7896   4.615  10.463  10.288 -0.0757  0.2907 -0.2003
  507DPPI    C3 7897   4.428  10.383  10.633  0.3106  0.1017 -0.0282
  507DPPI   PO4 7898   4.832  10.043  10.219 -0.1221 -0.1091 -0.1698
  507DPPI   GL1 7899   4.769   9.852   9.838 -0.0276  0.0004  0.2624
  507DPPI   GL2 7900   4.582   9.797   9.632 -0.0438 -0.3624  0.2837
  507DPPI   C1A 7901   4.913  10.085   9.464 -0.1643 -0.2475  0.3035
  507DPPI   C2A 7902   4.880  10.379   9.038  0.3285 -0.0322 -0.2165
  507DPPI   C3A 7903   4.802  10.397   8.563  0.2779 -0.1235 -0.0781
  507DPPI   C4A 7904   4.575  10.391   8.150 -0.2253 -0.1615  0.0384
  507DPPI   C1B 7905   4.503   9.616   9.240  0.1920  0.0599 -0.0213
  507DPPI   C2B 7906   4.445   9.485   8.917  0.0253  0.1785 -0.1927
  507DPPI   C3B 7907   4.549   9.266   8.547 -0.0123  0.1480  0.0858
  507DPPI   C4B 7908   4.607   9.321   8.079 -0.1393  0.0054  0.0775
  508DPPI    C1 7909   5.935   4.390  10.109  0.2816 -0.3088  0.0702
  508DPPI    C2 7910   5.991   4.742  10.291 -0.0210 -0.3153  0.1808
  508DPPI    C3 7911   5.723   4.483  10.436 -0.0121 -0.4684 -0.0710
  508DPPI   PO4 7912   6.026   4.407   9.850  0.2788 -0.0505  0.0503
  508DPPI   GL1 7913   6.001   4.281   9.351  0.2375  0.1555  0.2542
  508DPPI   GL2 7914   5.651   4.400   9.471  0.1952  0.0450  0.0691
  508DPPI   C1A 7915   6.039   4.430   8.868 -0.0998  0.1975 -0.4234
  508DPPI   C2A 7916   6.273   4.582   8.583  0.0753  0.0412  0.1544
  508DPPI   C3A 7917   6.504   4.351   8.320  0.2268  0.0550 -0.2022
  508DPPI   C4A 7918   6.718   4.382   7.988  0.0046 -0.1375 -0.3511
  508DPPI   C1B 7919   5.729   4.682   9.261 -0.3262  0.1538  0.1199
  508DPPI   C2B 7920   5.776   4.836   8.748 -0.0071  0.1688 -0.0987
  508DPPI   C3B 7921   5.661   4.611   8.393  0.0176 -0.0546 -0.1861
  508DPPI   C4B 7922   5.403   4.375   8.139  0.0478  0.0469 -0.5675
  509DPPI    C1 7923  17.120  17.464  10.884 -0.0398  0.1801  0.1437
  509DPPI    C2 7924  17.102  17.423  11.282 -0.1615  0.1753  0.1381
  509DPPI    C3 7925  16.830  17.646  11.092 -0.2513 -0.0226  0.0310
  509DPPI   PO4 7926  17.079  17.278  10.749 -0.3033 -0.0955 -0.1621
  509DPPI   GL1 7927  17.223  17.189  10.356  0.2891  0.4004  0.0703
  509DPPI   GL2 7928  17.491  17.343  10.166 -0.1114  0.0688  0.1842
  509DPPI   C1A 7929  17.055  17.289   9.978  0.0142  0.1148 -0.0589
  509DPPI   C2A 7930  16.789  17.499   9.738 -0.1650 -0.0119 -0.0637
  509DPPI   C3A 7931  16.542  17.436   9.341 -0.0371 -0.1603  0.1272
  509DPPI   C4A 7932  16.664  17.387   8.880  0.0167  0.0014 -0.0679
  509DPPI   C1B 7933  17.739  17.373   9.729 -0.0541 -0.0070  0.1364
  509DPPI   C2B 7934  17.847  17.262   9.258 -0.1048 -0.2273 -0.0016
  509DPPI   C3B 7935  17.475  17.175   8.997  0.1586 -0.2447  0.0895
  509DPPI   C4B 7936  17.179  16.889   8.938 -0.1848  0.2341  0.1210
  510DPPI    C1 7937   4.991   5.279  10.329 -0.0688  0.0774 -0.0472
  510DPPI    C2 7938   4.852   4.998  10.579 -0.0220 -0.0239 -0.1345
  510DPPI    C3 7939   4.791   5.385  10.660 -0.1080 -0.0596 -0.0261
  510DPPI   PO4 7940   5.128   5.306  10.156  0.2134  0.2208  0.2045
  510DPPI   GL1 7941   5.283   5.066   9.732  0.2617  0.0149 -0.1425
  510DPPI   GL2 7942   5.257   4.697   9.583  0.0149 -0.0542 -0.1597
  510DPPI   C1A 7943   5.212   5.092   9.259  0.2643 -0.0096 -0.1548
  510DPPI   C2A 7944   5.296   5.027   8.759  0.0908 -0.2818 -0.3053
  510DPPI   C3A 7945   5.277   5.274   8.381  0.0590  0.1211 -0.0921
  510DPPI   C4A 7946   5.557   4.977   8.078 -0.4363  0.1501 -0.2813
  510DPPI   C1B 7947   5.321   4.609   9.067  0.0774 -0.1904 -0.0770
  510DPPI   C2B 7948   5.154   4.468   8.612 -0.3067  0.0031 -0.2396
  510DPPI   C3B 7949   5.126   4.798   8.230  0.4260 -0.2257 -0.0758
  510DPPI   C4B 7950   5.099   5.118   7.877 -0.0941 -0.1903  0.0696
  511DPPI    C1 7951   4.403   7.122  10.204  0.1182  0.1973  0.0248
  511DPPI    C2 7952   4.071   7.307  10.078 -0.0865 -0.1371  0.0605
  511DPPI    C3 7953   4.168   7.312  10.466 -0.0555 -0.0496  0.0518
  511DPPI   PO4 7954   4.402   6.966  10.038 -0.1371  0.3040  0.0970
  511DPPI   GL1 7955   4.359   6.840   9.681  0.0950  0.0813 -0.2666
  511DPPI   GL2 7956   4.020   6.994   9.601 -0.3394 -0.1792 -0.4417
  511DPPI   C1A 7957   4.330   6.902   9.210 -0.0128 -0.0897 -0.3762
  511DPPI   C2A 7958   4.408   6.945   8.811  0.0694 -0.0142  0.1331
  511DPPI   C3A 7959   4.439   7.047   8.454 -0.0571 -0.1169  0.1104
  511DPPI   C4A 7960   4.497   7.135   7.995 -0.0509 -0.1489 -0.0648
  511DPPI   C1B 7961   3.771   6.965   9.178 -0.1569  0.0568  0.0244
  511DPPI   C2B 7962   3.896   7.103   8.803  0.0079  0.5200 -0.2696
  511DPPI   C3B 7963   3.644   7.156   8.434  0.1513  0.3893 -0.1246
  511DPPI   C4B 7964   3.361   7.022   8.307  0.0205 -0.2047  0.0561
  512DPPI    C1 7965  12.265   7.517  10.264 -0.0573 -0.2196  0.2253
  512DPPI    C2 7966  12.363   7.777  10.551 -0.1468 -0.0894  0.1391
  512DPPI    C3 7967  12.613   7.479  10.458 -0.0106  0.0081  0.1892
  512DPPI   PO4 7968  12.207   7.764  10.040 -0.1261 -0.0172  0.3623
  512DPPI   GL1 7969  11.868   7.709   9.713  0.0626  0.3671  0.0322
  512DPPI   GL2 7970  11.859   7.807   9.331 -0.1070  0.1938  0.0977
  512DPPI   C1A 7971  11.746   7.345   9.521  0.1903 -0.2905  0.1897
  512DPPI   C2A 7972  11.828   7.274   9.059 -0.0207  0.1719  0.1877
  512DPPI   C3A 7973  12.063   7.277   8.777 -0.1526  0.0416 -0.1046
  512DPPI   C4A 7974  12.189   6.959   8.429  0.1789  0.3355 -0.2792
  512DPPI   C1B 7975  11.848   7.768   8.897 -0.2511 -0.0463  0.4019
  512DPPI   C2B 7976  12.005   7.696   8.472 -0.0829  0.3610  0.0692
  512DPPI   C3B 7977  12.089   7.793   8.015 -0.1726  0.1229  0.5708
  512DPPI   C4B 7978  12.251   8.137   7.686 -0.1293 -0.1302  0.1800
  513PYPI    C1 7979   0.106   1.999  10.622 -0.0432 -0.2322 -0.0941
  513PYPI    C2 7980   0.111   1.707  10.895  0.1391 -0.0838  0.0638
  513PYPI    C3 7981  -0.158   2.002  10.922  0.0409 -0.1650 -0.0203
  513PYPI   PO4 7982   0.062   1.876  10.404  0.2008  0.0689  0.0219
  513PYPI   GL1 7983   0.150   2.032  10.037  0.0241 -0.0134 -0.3512
  513PYPI   GL2 7984   0.175   1.652   9.977 -0.1111  0.2027  0.1775
  513PYPI   C1A 7985   0.015   1.910   9.651  0.2533 -0.1307  0.1608
  513PYPI   C2A 7986  -0.156   1.621   9.279  0.3236 -0.0001  0.0566
  513PYPI   D3A 7987  -0.450   1.741   8.968 -0.0307  0.0535  0.1479
  513PYPI   C4A 7988  -0.439   1.591   8.590 -0.1960  0.3212  0.1113
  513PYPI   C1B 7989   0.142   1.278   9.687  0.2242  0.4767  0.0368
  513PYPI   C2B 7990   0.264   1.064   9.274  0.0833  0.2753  0.0600
  513PYPI   C3B 7991   0.221   0.889   8.866  0.1150  0.1453  0.3373
  513PYPI   C4B 7992  -0.062   0.822   8.497 -0.0718  0.0089  0.1918
  514PYPI    C1 7993   4.152  15.914  10.462 -0.1370  0.1097 -0.1229
  514PYPI    C2 7994   4.448  15.907  10.730 -0.0869  0.1289 -0.1775
  514PYPI    C3 7995   4.141  15.654  10.766  0.0461 -0.0440 -0.2452
  514PYPI   PO4 7996   4.138  16.080  10.377 -0.0470 -0.1838  0.0420
  514PYPI   GL1 7997   3.999  16.291   9.984 -0.0813  0.0626  0.0129
  514PYPI   GL2 7998   4.227  16.537  10.025 -0.1072  0.2991  0.0615
  514PYPI   C1A 7999   3.930  16.473   9.572  0.1043 -0.0917  0.0599
  514PYPI   C2A 8000   3.830  16.531   9.146 -0.0187  0.2698  0.2697
  514PYPI   D3A 8001   4.005  16.560   8.762  0.4366  0.1820  0.0082
  514PYPI   C4A 8002   3.791  16.769   8.480  0.3787 -0.1897  0.0402
  514PYPI   C1B 8003   4.394  16.641   9.623  0.0792  0.2378  0.0891
  514PYPI   C2B 8004   4.437  16.704   9.219 -0.0525 -0.1900 -0.1662
  514PYPI   C3B 8005   4.472  16.659   8.763 -0.0665  0.2147  0.0555
  514PYPI   C4B 8006   4.357  16.679   8.318 -0.1656  0.0039  0.1437
  515PYPI    C1 8007   4.613  15.408  10.665 -0.1138  0.0825  0.1115
  515PYPI    C2 8008   4.732  15.115  10.911 -0.0920 -0.1221 -0.1386
  515PYPI    C3 8009   4.360  15.262  10.939  0.0025  0.0631  0.2094
  515PYPI   PO4 8010   4.580  15.297  10.337  0.2405  0.0077 -0.0458
  515PYPI   GL1 8011   4.705  15.193   9.906 -0.3193  0.0737  0.0927
  515PYPI   GL2 8012   4.593  14.824   9.881  0.2786 -0.0432  0.2278
  515PYPI   C1A 8013   4.724  15.189   9.542  0.1686 -0.0184 -0.0954
  515PYPI   C2A 8014   4.801  15.270   9.140  0.2638  0.2107 -0.1807
  515PYPI   D3A 8015   4.666  15.064   8.811 -0.1844  0.0671 -0.0103
  515PYPI   C4A 8016   4.532  15.118   8.273 -0.0040 -0.0877  0.0562
  515PYPI   C1B 8017   4.671  14.725   9.442 -0.1582 -0.0981 -0.1827
  515PYPI   C2B 8018   4.678  14.620   9.062  0.2487 -0.2887 -0.0008
  515PYPI   C3B 8019   4.787  14.547   8.573  0.4258  0.1113  0.1566
  515PYPI   C4B 8020   4.677  14.697   8.127 -0.4017  0.3575 -0.3147
  516PYPI    C1 8021   3.017  13.035  10.269  0.1319 -0.1211 -0.1473
  516PYPI    C2 8022   2.750  12.946  10.553 -0.0311  0.5867 -0.0589
  516PYPI    C3 8023   3.111  13.085  10.655  0.4447 -0.4648 -0.1727
  516PYPI   PO4 8024   2.827  13.190  10.103  0.0916 -0.1484 -0.1150
  516PYPI   GL1 8025   2.756  13.351   9.705  0.1342  0.3687 -0.0231
  516PYPI   GL2 8026   2.700  12.986   9.644 -0.1621 -0.3340  0.1067
  516PYPI   C1A 8027   2.704  13.677   9.470 -0.1658 -0.1563 -0.2452
  516PYPI   C2A 8028   2.796  13.993   9.124 -0.2050 -0.3006 -0.0991
  516PYPI   D3A 8029   2.752  14.255   8.697  0.2591 -0.1477 -0.0041
  516PYPI   C4A 8030   2.582  14.052   8.419 -0.0658  0.1603 -0.0601
  516PYPI   C1B 8031   2.715  13.225   9.222 -0.1132  0.0347 -0.0989
  516PYPI   C2B 8032   2.719  13.307   8.815  0.0072  0.0337  0.1072
  516PYPI   C3B 8033   2.680  13.379   8.378 -0.3009 -0.0510 -0.2314
  516PYPI   C4B 8034   2.650  13.286   7.955 -0.0657 -0.0888  0.0050
  517PYPI    C1 8035   0.847  18.287  10.766 -0.1201  0.3827 -0.0859
  517PYPI    C2 8036   0.524  18.452  10.936 -0.1603  0.0695  0.1510
  517PYPI    C3 8037   0.885  18.617  10.987 -0.2156  0.1487  0.2887
  517PYPI   PO4 8038   0.896  18.224  10.451 -0.1582  0.1486  0.2562
  517PYPI   GL1 8039   0.699  18.368  10.140  0.0681  0.0443  0.3616
  517PYPI   GL2 8040   0.445  17.989  10.130 -0.3877 -0.1540  0.1748
  517PYPI   C1A 8041   1.075  18.552   9.918 -0.0664 -0.2252  0.0949
  517PYPI   C2A 8042   1.224  18.692   9.546  0.2535 -0.1348 -0.0723
  517PYPI   D3A 8043   1.249  18.715   9.156  0.0944 -0.0333  0.1884
  517PYPI   C4A 8044   1.523  18.441   8.736 -0.1108  0.4613  0.1077
  517PYPI   C1B 8045   0.448  18.065   9.724  0.1695 -0.0517 -0.2250
  517PYPI   C2B 8046   0.576  18.024   9.285 -0.0131 -0.1793  0.0268
  517PYPI   C3B 8047   0.552  17.849   8.824  0.2097  0.1471  0.0268
  517PYPI   C4B 8048   0.630  17.463   8.492 -0.1670 -0.0929  0.0647
  518PYPI    C1 8049   3.968   6.691  10.008  0.1510  0.0819 -0.1887
  518PYPI    C2 8050   3.740   6.876  10.279  0.0719 -0.2786 -0.0021
  518PYPI    C3 8051   4.109   6.757  10.376  0.1065 -0.2588 -0.1076
  518PYPI   PO4 8052   3.812   6.558   9.833  0.2997  0.0569  0.0879
  518PYPI   GL1 8053   3.838   6.552   9.408  0.1073 -0.0972 -0.2023
  518PYPI   GL2 8054   3.878   6.197   9.417 -0.2340  0.1343 -0.1794
  518PYPI   C1A 8055   3.994   6.498   9.101  0.3382 -0.0870  0.0144
  518PYPI   C2A 8056   4.061   6.482   8.656 -0.2313  0.0041 -0.1082
  518PYPI   D3A 8057   4.211   6.643   8.351  0.0059 -0.3520 -0.0783
  518PYPI   C4A 8058   4.026   7.063   8.175  0.2634  0.1020 -0.0187
  518PYPI   C1B 8059   3.735   6.085   8.929  0.1032 -0.3047 -0.0714
  518PYPI   C2B 8060   3.590   6.152   8.563 -0.0159  0.0338  0.0027
  518PYPI   C3B 8061   3.653   5.912   8.171  0.2251 -0.0153  0.0232
  518PYPI   C4B 8062   3.992   5.947   7.790  0.0145 -0.2757  0.3365
  519PYPI    C1 8063   0.693  14.882  10.851 -0.0347 -0.1468 -0.0101
  519PYPI    C2 8064   0.775  15.045  11.207 -0.1169  0.0195 -0.0665
  519PYPI    C3 8065   0.448  14.819  11.161 -0.0545 -0.0822 -0.0125
  519PYPI   PO4 8066   0.655  15.121  10.627 -0.2239 -0.1739 -0.1075
  519PYPI   GL1 8067   0.457  15.224  10.228 -0.2128 -0.1439 -0.3398
  519PYPI   GL2 8068   0.473  15.542  10.296 -0.0550  0.2893  0.2366
  519PYPI   C1A 8069   0.605  15.328   9.801 -0.0933  0.0188 -0.1175
  519PYPI   C2A 8070   0.502  15.564   9.477  0.0206  0.3340  0.0068
  519PYPI   D3A 8071   0.167  15.857   9.304 -0.0871 -0.2031 -0.1498
  519PYPI   C4A 8072  -0.007  15.892   9.679 -0.1869 -0.0520 -0.0012
  519PYPI   C1B 8073   0.457  15.823   9.928 -0.1359  0.3395  0.0526
  519PYPI   C2B 8074   0.562  16.098   9.658 -0.2725  0.1689 -0.1616
  519PYPI   C3B 8075   0.571  16.173   9.175  0.2428 -0.1911  0.0578
  519PYPI   C4B 8076   0.376  16.535   8.882  0.3023 -0.0271 -0.2748
  520PYPI    C1 8077  13.211   8.154  10.286 -0.0173 -0.0500 -0.0143
  520PYPI    C2 8078  13.351   7.969  10.611 -0.0471  0.0388  0.0496
  520PYPI    C3 8079  13.185   8.331  10.644 -0.2406 -0.0414 -0.0337
  520PYPI   PO4 8080  13.272   8.019  10.090  0.1437  0.2249 -0.1221
  520PYPI   GL1 8081  13.118   7.932   9.756  0.1122 -0.2456  0.1361
  520PYPI   GL2 8082  13.118   8.353   9.727 -0.0074  0.3440 -0.2893
  520PYPI   C1A 8083  12.997   7.629   9.477  0.1214  0.2418 -0.2301
  520PYPI   C2A 8084  13.301   7.311   9.288  0.2336  0.2069  0.0484
  520PYPI   D3A 8085  13.565   7.113   9.120 -0.0346  0.0071 -0.1193
  520PYPI   C4A 8086  13.491   7.184   8.668 -0.0051 -0.3725 -0.0172
  520PYPI   C1B 8087  13.119   8.305   9.276  0.0362 -0.3776  0.2336
  520PYPI   C2B 8088  13.245   8.258   8.927 -0.0274  0.0316  0.1581
  520PYPI   C3B 8089  13.188   8.490   8.531 -0.1220  0.2259  0.1954
  520PYPI   C4B 8090  13.058   8.496   8.130 -0.0052 -0.0410  0.0156
  521PYPI    C1 8091   5.760   0.425  10.324 -0.0917 -0.2213 -0.1206
  521PYPI    C2 8092   6.131   0.359  10.191 -0.1018 -0.0782 -0.2219
  521PYPI    C3 8093   6.059   0.667  10.436 -0.1603 -0.0841 -0.2317
  521PYPI   PO4 8094   5.594   0.432  10.069  0.1189  0.1532 -0.2097
  521PYPI   GL1 8095   5.714   0.640   9.749  0.0104  0.1464  0.1521
  521PYPI   GL2 8096   5.951   0.816   9.956  0.1417 -0.0767 -0.1420
  521PYPI   C1A 8097   5.796   0.569   9.340  0.0789 -0.0212  0.0103
  521PYPI   C2A 8098   5.655   0.656   8.876 -0.0939 -0.2339 -0.1396
  521PYPI   D3A 8099   5.592   0.529   8.501  0.0535 -0.0885 -0.0992
  521PYPI   C4A 8100   5.312   0.751   8.061  0.1778 -0.1512  0.4427
  521PYPI   C1B 8101   6.192   0.806   9.584  0.2131 -0.1657  0.0739
  521PYPI   C2B 8102   6.146   0.779   9.148 -0.1758 -0.1064  0.0038
  521PYPI   C3B 8103   6.231   0.453   8.709 -0.3974 -0.0554  0.1509
  521PYPI   C4B 8104   6.210   0.362   8.270 -0.0246  0.2586 -0.1432
  522PYPI    C1 8105  16.804   7.037  10.203 -0.1006 -0.2510 -0.1050
  522PYPI    C2 8106  16.727   6.683  10.373  0.1248 -0.3174 -0.1381
  522PYPI    C3 8107  16.986   6.935  10.544 -0.0580 -0.1540 -0.0985
  522PYPI   PO4 8108  16.899   7.010   9.918 -0.0232  0.1812 -0.2536
  522PYPI   GL1 8109  17.162   7.138   9.571 -0.1409 -0.0319 -0.0233
  522PYPI   GL2 8110  17.006   7.383   9.496  0.3173 -0.0237  0.0054
  522PYPI   C1A 8111  17.130   6.924   9.181 -0.0476 -0.0099  0.0394
  522PYPI   C2A 8112  17.061   6.641   8.828 -0.0605  0.0419 -0.1984
  522PYPI   D3A 8113  17.152   6.705   8.532  0.5043  0.2771  0.0169
  522PYPI   C4A 8114  17.160   6.286   8.352 -0.2212 -0.1347  0.0173
  522PYPI   C1B 8115  17.057   7.400   9.017 -0.1813  0.0669  0.2095
  522PYPI   C2B 8116  17.216   7.181   8.642 -0.0836  0.0700 -0.1023
  522PYPI   C3B 8117  17.530   7.334   8.313 -0.0964  0.1423 -0.0312
  522PYPI   C4B 8118  17.513   7.145   8.040  0.1547 -0.0231 -0.0104
  523PYPI    C1 8119   1.888  14.102  10.337 -0.2245 -0.1459 -0.0600
  523PYPI    C2 8120   2.178  13.967  10.577 -0.1127 -0.0804 -0.1572
  523PYPI    C3 8121   1.941  14.265  10.699 -0.0227 -0.0123 -0.1476
  523PYPI   PO4 8122   1.965  14.011  10.092 -0.1906  0.1589  0.1790
  523PYPI   GL1 8123   1.876  14.125   9.694 -0.1669 -0.0592  0.0252
  523PYPI   GL2 8124   2.123  13.926   9.569  0.0750  0.0096  0.0849
  523PYPI   C1A 8125   1.524  14.193   9.400 -0.0890 -0.2665 -0.1515
  523PYPI   C2A 8126   1.296  14.077   9.031 -0.0461 -0.2995  0.0270
  523PYPI   D3A 8127   1.179  14.087   8.597  0.1514 -0.2062 -0.1859
  523PYPI   C4A 8128   1.377  14.412   8.343 -0.3255 -0.1628  0.1845
  523PYPI   C1B 8129   2.270  13.818   9.176  0.1087 -0.0001 -0.1303
  523PYPI   C2B 8130   2.358  14.127   8.926  0.3163  0.1715  0.0938
  523PYPI   C3B 8131   2.079  14.395   8.758 -0.0751 -0.2279 -0.1082
  523PYPI   C4B 8132   1.829  14.681   8.607  0.1654  0.3405  0.3922
  524PYPI    C1 8133  14.803   6.487  10.207  0.0021 -0.0136 -0.1522
  524PYPI    C2 8134  14.981   6.777   9.998  0.0523 -0.0866 -0.2113
  524PYPI    C3 8135  14.715   6.870  10.282  0.2582  0.0275 -0.0535
  524PYPI   PO4 8136  14.659   6.277  10.014 -0.0927 -0.0315  0.0309
  524PYPI   GL1 8137  14.777   6.445   9.637  0.3027 -0.0080  0.0708
  524PYPI   GL2 8138  14.416   6.433   9.592 -0.0904  0.0584 -0.0810
  524PYPI   C1A 8139  14.818   6.458   9.273  0.0976 -0.1400  0.2079
  524PYPI   C2A 8140  14.672   6.440   8.869 -0.1498  0.0356 -0.0024
  524PYPI   D3A 8141  14.744   6.448   8.489 -0.1143  0.0504 -0.3764
  524PYPI   C4A 8142  15.027   6.610   8.267  0.0528 -0.1535 -0.3029
  524PYPI   C1B 8143  14.282   6.466   9.216  0.0448 -0.1425  0.0602
  524PYPI   C2B 8144  14.200   6.374   8.785 -0.0287 -0.2830  0.1361
  524PYPI   C3B 8145  14.252   6.305   8.363 -0.0188 -0.1582 -0.1254
  524PYPI   C4B 8146  14.044   6.238   7.897  0.0319 -0.0767  0.0290
  525PYPI    C1 8147  16.289   7.049   9.875  0.3091  0.0317  0.1185
  525PYPI    C2 8148  16.092   7.216  10.180  0.1877 -0.0134  0.0657
  525PYPI    C3 8149  16.290   6.873  10.234 -0.0239 -0.1414  0.0390
  525PYPI   PO4 8150  16.173   7.036   9.691  0.5098 -0.3084 -0.2285
  525PYPI   GL1 8151  16.146   7.123   9.266  0.4369 -0.0189  0.1463
  525PYPI   GL2 8152  15.974   7.466   9.232 -0.0023 -0.0637  0.0161
  525PYPI   C1A 8153  16.026   7.149   8.780 -0.0416 -0.3369  0.2491
  525PYPI   C2A 8154  15.789   7.051   8.461  0.1913 -0.0419 -0.2311
  525PYPI   D3A 8155  15.316   6.976   8.414  0.0105  0.0436 -0.0157
  525PYPI   C4A 8156  15.080   7.186   8.131 -0.1958  0.1047 -0.0249
  525PYPI   C1B 8157  15.906   7.621   8.835 -0.0592 -0.0924  0.0491
  525PYPI   C2B 8158  15.871   7.522   8.413 -0.0048 -0.2733 -0.3240
  525PYPI   C3B 8159  16.155   7.656   8.068 -0.0593 -0.1604 -0.3375
  525PYPI   C4B 8160  16.362   7.595   7.629  0.0485  0.0166  0.0349
  526PYPI    C1 8161  17.054  16.585  11.129 -0.0733  0.0749 -0.0811
  526PYPI    C2 8162  17.266  16.252  11.190 -0.2539 -0.0707 -0.2364
  526PYPI    C3 8163  17.223  16.518  11.486 -0.1192 -0.1900 -0.1077
  526PYPI   PO4 8164  16.806  16.481  10.976  0.4058  0.2373  0.1519
  526PYPI   GL1 8165  16.745  16.499  10.469  0.2098  0.1428  0.2532
  526PYPI   GL2 8166  16.372  16.427  10.301  0.0415 -0.0732 -0.0286
  526PYPI   C1A 8167  16.897  16.634  10.031  0.1866  0.0871 -0.0805
  526PYPI   C2A 8168  16.893  16.854   9.616  0.0942  0.2235 -0.0542
  526PYPI   D3A 8169  16.840  17.048   9.217  0.3926 -0.0217  0.1247
  526PYPI   C4A 8170  17.041  17.489   9.161 -0.0103  0.3452  0.2121
  526PYPI   C1B 8171  16.335  16.451   9.871 -0.0490  0.0675 -0.0338
  526PYPI   C2B 8172  16.300  16.395   9.296  0.0242  0.0928 -0.2318
  526PYPI   C3B 8173  16.021  16.489   8.899  0.2909 -0.2533  0.1448
  526PYPI   C4B 8174  15.891  16.710   8.514 -0.0495  0.1925 -0.2850
  527PYPI    C1 8175   5.794   6.641  10.230 -0.0302  0.0081 -0.0474
  527PYPI    C2 8176   5.645   6.568  10.594  0.0659  0.0791  0.0065
  527PYPI    C3 8177   5.991   6.401  10.483  0.0127  0.0194 -0.0701
  527PYPI   PO4 8178   5.580   6.714  10.117  0.0642  0.1199  0.1630
  527PYPI   GL1 8179   5.549   7.052   9.740  0.3082 -0.1171 -0.2118
  527PYPI   GL2 8180   5.316   7.290   9.758  0.0421  0.3191  0.1259
  527PYPI   C1A 8181   5.836   6.882   9.344  0.0683  0.0956  0.4445
  527PYPI   C2A 8182   5.957   6.675   8.993 -0.3362 -0.0248 -0.1406
  527PYPI   D3A 8183   5.911   6.761   8.592  0.0808 -0.0203 -0.1871
  527PYPI   C4A 8184   6.290   6.863   8.617 -0.3389  0.0932  0.2157
  527PYPI   C1B 8185   5.522   7.407   9.384 -0.3861 -0.2410 -0.0237
  527PYPI   C2B 8186   5.645   7.322   8.906  0.1168  0.0088  0.2298
  527PYPI   C3B 8187   5.457   6.889   8.673 -0.1242 -0.0140  0.0354
  527PYPI   C4B 8188   5.146   6.549   8.491  0.4640  0.2349  0.1430
  528PYPI    C1 8189   1.345  14.618  11.067  0.2079  0.2731  0.3289
  528PYPI    C2 8190   1.294  15.011  11.119 -0.3324  0.2498  0.0441
  528PYPI    C3 8191   1.178  14.755  11.404 -0.1061  0.2865  0.1714
  528PYPI   PO4 8192   1.423  14.659  10.728  0.1211 -0.0459  0.0198
  528PYPI   GL1 8193   1.703  14.732  10.255 -0.1027 -0.2610 -0.1646
  528PYPI   GL2 8194   1.845  14.530  10.048 -0.1599 -0.0000 -0.0796
  528PYPI   C1A 8195   1.478  15.009  10.128 -0.1895 -0.0222 -0.0763
  528PYPI   C2A 8196   1.165  15.105   9.864 -0.0723 -0.1459  0.4008
  528PYPI   D3A 8197   0.928  15.290   9.452 -0.1480 -0.0146 -0.2130
  528PYPI   C4A 8198   1.170  15.383   9.099  0.0751  0.1073  0.2111
  528PYPI   C1B 8199   1.678  14.583   9.661 -0.2111 -0.0771 -0.1828
  528PYPI   C2B 8200   1.299  14.773   9.567 -0.3128  0.1318  0.0519
  528PYPI   C3B 8201   1.176  14.868   9.182 -0.3164  0.3027 -0.1562
  528PYPI   C4B 8202   1.229  15.026   8.744  0.0479 -0.0180 -0.1413
  529PYPI    C1 8203   0.122   0.757  10.544 -0.0604  0.2120 -0.1115
  529PYPI    C2 8204   0.353   1.073  10.622  0.1214  0.0133  0.1757
  529PYPI    C3 8205   0.519   0.728  10.508 -0.0781  0.0274 -0.1710
  529PYPI   PO4 8206  -0.003   0.825  10.411  0.0850  0.0923  0.0612
  529PYPI   GL1 8207  -0.297   1.066  10.074  0.0542  0.0058  0.0928
  529PYPI   GL2 8208   0.011   0.899   9.930 -0.0676  0.3776 -0.0055
  529PYPI   C1A 8209  -0.318   1.198   9.697  0.0373 -0.0508  0.1054
  529PYPI   C2A 8210  -0.318   1.094   9.260 -0.0331  0.1355  0.3548
  529PYPI   D3A 8211  -0.340   1.086   8.808 -0.0886 -0.0295 -0.1267
  529PYPI   C4A 8212  -0.583   0.876   8.546  0.0871 -0.0428  0.3907
  529PYPI   C1B 8213  -0.044   0.810   9.522  0.1410  0.1323 -0.0155
  529PYPI   C2B 8214  -0.257   0.599   9.111  0.1343 -0.0497  0.2719
  529PYPI   C3B 8215  -0.297   0.379   8.694  0.2218 -0.0367 -0.0421
  529PYPI   C4B 8216  -0.380   0.409   8.331 -0.1562 -0.0322  0.2934
  530PYPI    C1 8217  12.741   1.220  10.408 -0.0493 -0.1885 -0.3093
  530PYPI    C2 8218  13.002   1.107  10.690 -0.0570  0.1514 -0.1608
  530PYPI    C3 8219  12.611   1.040  10.740 -0.0723  0.3345 -0.0235
  530PYPI   PO4 8220  12.984   1.127  10.184 -0.0714  0.2763 -0.1108
  530PYPI   GL1 8221  13.049   0.816   9.941 -0.0968 -0.2435 -0.1001
  530PYPI   GL2 8222  12.740   0.920   9.745  0.2414 -0.0981 -0.2364
  530PYPI   C1A 8223  13.187   0.910   9.471  0.0830 -0.2434 -0.2489
  530PYPI   C2A 8224  13.554   0.713   9.282 -0.4139 -0.3737  0.0251
  530PYPI   D3A 8225  13.705   0.809   8.889  0.1509  0.0026  0.0714
  530PYPI   C4A 8226  13.383   0.903   8.838  0.3273 -0.0541  0.2643
  530PYPI   C1B 8227  12.701   1.035   9.340  0.2016  0.1334 -0.0748
  530PYPI   C2B 8228  12.948   1.085   9.029  0.1789  0.1865  0.0453
  530PYPI   C3B 8229  13.034   1.221   8.592  0.0145  0.1144 -0.1767
  530PYPI   C4B 8230  13.021   1.416   8.086 -0.1905  0.1971 -0.1419
  531PYPI    C1 8231   8.096   3.332  10.687  0.1809 -0.0728 -0.0035
  531PYPI    C2 8232   8.153   3.061  10.398  0.0521 -0.0584 -0.0431
  531PYPI    C3 8233   7.934   2.968  10.719 -0.0937  0.0371 -0.1137
  531PYPI   PO4 8234   8.110   3.542  10.560  0.2184 -0.2891  0.2079
  531PYPI   GL1 8235   8.305   3.761  10.153  0.0891  0.3620 -0.2038
  531PYPI   GL2 8236   8.447   3.378  10.188  0.1235 -0.0121  0.1156
  531PYPI   C1A 8237   7.968   3.783   9.742  0.1452  0.1967  0.2942
  531PYPI   C2A 8238   7.592   4.070   9.612  0.0952 -0.1344 -0.4376
  531PYPI   D3A 8239   7.601   4.189   9.252 -0.1988 -0.0099  0.0105
  531PYPI   C4A 8240   7.440   4.236   8.763 -0.2164  0.0765 -0.0858
  531PYPI   C1B 8241   8.356   3.457   9.754  0.0160 -0.0720  0.0639
  531PYPI   C2B 8242   8.337   3.329   9.227  0.1514  0.0689  0.2883
  531PYPI   C3B 8243   8.261   3.539   8.895  0.1157 -0.1476 -0.1417
  531PYPI   C4B 8244   8.137   3.582   8.384 -0.1785 -0.1814 -0.0138
  532PYPI    C1 8245  17.971   4.984  10.040  0.1565  0.0821  0.1902
  532PYPI    C2 8246  17.807   4.882  10.391 -0.1223  0.2046  0.0984
  532PYPI    C3 8247  17.653   5.183  10.177 -0.0340  0.0487 -0.1906
  532PYPI   PO4 8248  18.165   5.083  10.067 -0.2849 -0.0524  0.1741
  532PYPI   GL1 8249  18.418   5.108   9.696  0.0364 -0.2700 -0.1264
  532PYPI   GL2 8250  18.339   5.499   9.885 -0.0827  0.0639  0.1183
  532PYPI   C1A 8251  18.352   5.150   9.219 -0.0705 -0.1418  0.3143
  532PYPI   C2A 8252  18.426   5.179   8.841 -0.1370  0.2165 -0.0896
  532PYPI   D3A 8253  18.699   5.291   8.463  0.1023  0.2473  0.2484
  532PYPI   C4A 8254  18.601   5.560   8.146  0.1480  0.1095 -0.2162
  532PYPI   C1B 8255  18.439   5.617   9.487  0.1895 -0.0682 -0.0474
  532PYPI   C2B 8256  18.587   5.609   9.119  0.3301  0.0952 -0.1415
  532PYPI   C3B 8257  18.506   5.690   8.655  0.3329 -0.0028  0.3348
  532PYPI   C4B 8258  18.160   5.882   8.337 -0.0852  0.4511  0.0252
  533PYPI    C1 8259  17.870   7.334  10.294 -0.1283  0.0762 -0.1731
  533PYPI    C2 8260  17.663   7.669  10.364  0.0704  0.1959 -0.1498
  533PYPI    C3 8261  17.818   7.463  10.669 -0.5774 -0.2640 -0.1099
  533PYPI   PO4 8262  17.812   7.390   9.903  0.1738  0.0731 -0.2430
  533PYPI   GL1 8263  17.932   7.594   9.521 -0.2231 -0.0400 -0.0775
  533PYPI   GL2 8264  18.113   7.340   9.408 -0.0724  0.0580 -0.1828
  533PYPI   C1A 8265  17.877   7.806   9.175  0.2366  0.2364 -0.2121
  533PYPI   C2A 8266  17.912   8.050   8.746 -0.0701 -0.0832  0.1818
  533PYPI   D3A 8267  18.014   8.317   8.362 -0.2431  0.4337  0.1459
  533PYPI   C4A 8268  18.384   8.536   8.139  0.2940  0.0610  0.1670
  533PYPI   C1B 8269  18.165   7.460   8.915  0.3093  0.0987  0.0637
  533PYPI   C2B 8270  18.111   7.297   8.465  0.2602 -0.0137  0.2744
  533PYPI   C3B 8271  18.051   7.234   8.068  0.0727  0.1815 -0.0557
  533PYPI   C4B 8272  17.744   6.953   7.642 -0.2344  0.1735  0.0782
  534PYPI    C1 8273   7.685  17.919  10.430  0.0135 -0.1565  0.0681
  534PYPI    C2 8274   7.642  17.533  10.524 -0.0744 -0.0994  0.2682
  534PYPI    C3 8275   7.359  17.796  10.627  0.0172  0.0297  0.1928
  534PYPI   PO4 8276   7.753  17.866  10.093 -0.2129  0.1063  0.0574
  534PYPI   GL1 8277   7.900  17.754   9.758 -0.2072  0.2553  0.4232
  534PYPI   GL2 8278   8.065  18.094   9.770 -0.0551 -0.0196 -0.3087
  534PYPI   C1A 8279   7.852  17.568   9.482 -0.0104 -0.4838  0.1487
  534PYPI   C2A 8280   7.814  17.552   9.066  0.0928 -0.4128  0.0539
  534PYPI   D3A 8281   7.784  17.645   8.652 -0.0214  0.3296 -0.0709
  534PYPI   C4A 8282   7.713  17.427   8.334 -0.4161  0.0026  0.0792
  534PYPI   C1B 8283   8.184  18.006   9.331  0.0044 -0.0852  0.0029
  534PYPI   C2B 8284   8.313  17.933   8.914  0.0844  0.1238  0.1436
  534PYPI   C3B 8285   8.591  17.888   8.593  0.1245 -0.2130  0.1707
  534PYPI   C4B 8286   8.799  18.165   8.260 -0.1311 -0.1257 -0.0754
  535PYPI    C1 8287  12.531   4.757  10.095  0.0300 -0.0701  0.1771
  535PYPI    C2 8288  12.373   4.430  10.262 -0.0883 -0.0514  0.1027
  535PYPI    C3 8289  12.516   4.724  10.493 -0.1796 -0.0601  0.1708
  535PYPI   PO4 8290  12.344   4.886   9.943 -0.1396  0.1500  0.3950
  535PYPI   GL1 8291  12.137   4.900   9.536 -0.0915 -0.1094 -0.3109
  535PYPI   GL2 8292  11.817   4.974   9.714  0.0052  0.1706 -0.3819
  535PYPI   C1A 8293  12.093   5.086   9.091 -0.0143 -0.0487 -0.3718
  535PYPI   C2A 8294  11.923   5.041   8.697  0.1705  0.0589  0.1089
  535PYPI   D3A 8295  11.909   4.932   8.226  0.0352  0.1499  0.2651
  535PYPI   C4A 8296  11.547   4.818   8.008 -0.3446  0.4338 -0.3092
  535PYPI   C1B 8297  11.646   4.992   9.287 -0.2557 -0.2773  0.0365
  535PYPI   C2B 8298  11.494   4.988   8.954 -0.0504  0.2489 -0.1339
  535PYPI   C3B 8299  11.446   4.796   8.551 -0.3059 -0.2057  0.1569
  535PYPI   C4B 8300  11.142   4.649   8.258  0.1998 -0.1398  0.1629
  536PYPI    C1 8301   3.589  11.916  10.190  0.1626  0.0969 -0.2365
  536PYPI    C2 8302   3.846  12.122  10.418 -0.0409 -0.0360  0.1206
  536PYPI    C3 8303   3.473  12.258  10.363 -0.0965 -0.1760  0.1465
  536PYPI   PO4 8304   3.732  11.821   9.985  0.6087  0.0391 -0.0615
  536PYPI   GL1 8305   3.723  11.731   9.576  0.2330 -0.3162 -0.1789
  536PYPI   GL2 8306   3.946  11.466   9.699 -0.1627 -0.1862  0.1999
  536PYPI   C1A 8307   3.547  11.747   9.132 -0.0809  0.0295  0.1268
  536PYPI   C2A 8308   3.729  11.647   8.760  0.0210  0.2674 -0.0330
  536PYPI   D3A 8309   4.108  11.495   8.533  0.0049  0.2281  0.1179
  536PYPI   C4A 8310   3.980  11.158   8.227  0.1322 -0.1773 -0.1380
  536PYPI   C1B 8311   3.905  11.342   9.294 -0.0160  0.0795  0.0619
  536PYPI   C2B 8312   4.066  11.198   8.987  0.1594 -0.0401  0.3094
  536PYPI   C3B 8313   3.932  10.960   8.728 -0.3084 -0.0266  0.0935
  536PYPI   C4B 8314   3.594  10.698   8.777 -0.1571  0.2267 -0.1316
  537PYPI    C1 8315   6.007   5.707  10.017 -0.0359 -0.2078  0.2961
  537PYPI    C2 8316   6.378   5.681  10.165  0.0244 -0.0158  0.1835
  537PYPI    C3 8317   6.143   5.988  10.267  0.0107  0.0338  0.0056
  537PYPI   PO4 8318   6.071   5.530   9.774 -0.1771  0.1472 -0.2799
  537PYPI   GL1 8319   6.031   5.511   9.415 -0.0965  0.1080  0.1652
  537PYPI   GL2 8320   6.225   5.708   9.315 -0.2587  0.1889  0.0458
  537PYPI   C1A 8321   6.127   5.384   8.975  0.1907 -0.2238  0.1380
  537PYPI   C2A 8322   6.111   5.630   8.658 -0.0369 -0.0091 -0.2037
  537PYPI   D3A 8323   5.959   5.899   8.291 -0.1566  0.1581 -0.0132
  537PYPI   C4A 8324   5.998   5.839   7.867 -0.1520 -0.1197 -0.1913
  537PYPI   C1B 8325   6.148   5.965   9.006  0.0534 -0.1138 -0.1599
  537PYPI   C2B 8326   6.050   6.309   8.674 -0.0761  0.3438 -0.0621
  537PYPI   C3B 8327   6.124   6.406   8.226 -0.0447 -0.0339  0.1520
  537PYPI   C4B 8328   6.403   6.640   7.976 -0.5931  0.0854  0.0086
  538PYPI    C1 8329   4.742   7.950  10.083 -0.1551  0.0080 -0.1743
  538PYPI    C2 8330   4.549   7.601  10.048  0.2075 -0.2307  0.1139
  538PYPI    C3 8331   4.635   7.746  10.411  0.1309  0.1231 -0.0052
  538PYPI   PO4 8332   4.660   8.134   9.913  0.2868  0.1932  0.0880
  538PYPI   GL1 8333   4.533   8.127   9.521  0.3283 -0.0260  0.2499
  538PYPI   GL2 8334   4.295   8.153   9.262  0.1017 -0.4654 -0.2514
  538PYPI   C1A 8335   4.472   7.716   9.222  0.2767 -0.3228 -0.1417
  538PYPI   C2A 8336   4.550   7.495   8.954  0.2945  0.0901 -0.0191
  538PYPI   D3A 8337   4.746   7.440   8.541  0.0262  0.2896  0.0339
  538PYPI   C4A 8338   4.469   7.632   8.271  0.2083  0.0680 -0.2423
  538PYPI   C1B 8339   4.466   8.210   8.866 -0.1419  0.1405  0.2723
  538PYPI   C2B 8340   4.630   8.144   8.491 -0.4803 -0.0101 -0.3756
  538PYPI   C3B 8341   4.440   8.080   8.074 -0.3502  0.0993 -0.0883
  538PYPI   C4B 8342   4.276   7.743   7.753 -0.2461  0.3518  0.0125
  539PYPI    C1 8343  17.604  11.314  10.047 -0.1955 -0.0348 -0.0545
  539PYPI    C2 8344  17.429  11.470  10.371 -0.1487 -0.0186 -0.0370
  539PYPI    C3 8345  17.729  11.209  10.412 -0.2424 -0.1316 -0.0660
  539PYPI   PO4 8346  17.615  11.554   9.910  0.1169 -0.0330  0.2156
  539PYPI   GL1 8347  17.897  11.771   9.629 -0.2139  0.2923 -0.0726
  539PYPI   GL2 8348  17.742  12.011   9.551 -0.0741 -0.1110  0.1959
  539PYPI   C1A 8349  18.264  11.812   9.509  0.0263  0.0421  0.2342
  539PYPI   C2A 8350  18.547  11.932   9.191 -0.0397  0.2987 -0.3098
  539PYPI   D3A 8351  18.906  11.668   8.994  0.1322 -0.2590 -0.1491
  539PYPI   C4A 8352  18.899  11.294   8.873  0.0798 -0.0665  0.1908
  539PYPI   C1B 8353  17.544  11.864   9.184 -0.0828  0.0322  0.1480
  539PYPI   C2B 8354  17.664  11.973   8.714  0.1785 -0.1084  0.2376
  539PYPI   C3B 8355  17.910  12.127   8.540  0.2154 -0.2880  0.0202
  539PYPI   C4B 8356  18.404  12.147   8.290 -0.0774 -0.3068 -0.2037
  540ERGO   ROH 8357  11.166   1.941  10.130  0.1076 -0.3450 -0.0443
  540ERGO    R1 8358  11.148   2.110   9.904 -0.0707 -0.2860  0.0127
  540ERGO    R2 8359  11.368   2.188   9.758 -0.1450  0.0286  0.0596
  540ERGO    R3 8360  11.226   2.088   9.549 -0.0064 -0.0699  0.0114
  540ERGO    R4 8361  11.410   2.282   9.428 -0.1899  0.1628  0.0922
  540ERGO    R5 8362  11.193   2.276   9.405 -0.1833 -0.0630  0.0573
  540ERGO    C1 8363  11.300   2.243   9.040 -0.0859  0.1484  0.0659
  540ERGO    C2 8364  11.420   2.182   8.870 -0.1523 -0.1385 -0.1802
  541ERGO   ROH 8365  10.739   4.689   9.607  0.3964  0.1128  0.0061
  541ERGO    R1 8366  10.584   4.599   9.388  0.2590  0.0038  0.1456
  541ERGO    R2 8367  10.576   4.732   9.147 -0.0738  0.0142  0.1566
  541ERGO    R3 8368  10.648   4.490   9.047  0.0254  0.0747  0.0788
  541ERGO    R4 8369  10.447   4.593   8.858 -0.2119 -0.0675  0.2564
  541ERGO    R5 8370  10.443   4.400   8.960  0.0211 -0.0766  0.2462
  541ERGO    C1 8371  10.439   4.284   8.596 -0.1992 -0.0582  0.2415
  541ERGO    C2 8372  10.287   4.116   8.349  0.1707 -0.2668  0.0287
  542ERGO   ROH 8373  14.146  12.641   9.717 -0.1149 -0.1414  0.0599
  542ERGO    R1 8374  14.023  12.789   9.509 -0.1153 -0.1710  0.0380
  542ERGO    R2 8375  14.167  12.897   9.299 -0.0975 -0.0994  0.0806
  542ERGO    R3 8376  13.988  12.757   9.148 -0.0051 -0.1594  0.0271
  542ERGO    R4 8377  14.123  12.935   8.958 -0.1245 -0.0060  0.0949
  542ERGO    R5 8378  13.908  12.917   8.989 -0.1091 -0.1572  0.0860
  542ERGO    C1 8379  13.929  12.826   8.619 -0.0536 -0.0078  0.0531
  542ERGO    C2 8380  13.879  12.869   8.261  0.0975  0.2985 -0.1412
  543ERGO   ROH 8381   8.450   0.439   9.892 -0.0375 -0.1362 -0.0301
  543ERGO    R1 8382   8.499   0.579   9.651 -0.0071 -0.1148 -0.0119
  543ERGO    R2 8383   8.617   0.461   9.431 -0.0282 -0.1109 -0.0273
  543ERGO    R3 8384   8.395   0.552   9.303 -0.0098 -0.0502 -0.0159
  543ERGO    R4 8385   8.603   0.548   9.097 -0.0297 -0.1276 -0.0314
  543ERGO    R5 8386   8.477   0.717   9.152  0.0280 -0.0861 -0.0329
  543ERGO    C1 8387   8.386   0.684   8.782 -0.0133 -0.0804 -0.0231
  543ERGO    C2 8388   8.556   0.766   8.459  0.0351  0.1671  0.1658
  544ERGO   ROH 8389   1.858   0.904  10.105  0.1115  0.1271 -0.1773
  544ERGO    R1 8390   1.787   0.987   9.844  0.0293  0.1353 -0.1525
  544ERGO    R2 8391   1.973   1.021   9.643 -0.0556 -0.0300 -0.2582
  544ERGO    R3 8392   1.810   0.851   9.507 -0.2506  0.0647 -0.1470
  544ERGO    R4 8393   1.974   0.981   9.300 -0.0092 -0.3294 -0.2252
  544ERGO    R5 8394   1.756   0.970   9.306 -0.0341 -0.0302 -0.2693
  544ERGO    C1 8395   1.822   0.797   8.973 -0.1652 -0.4149 -0.1015
  544ERGO    C2 8396   2.009   0.734   8.663  0.0304  0.0172  0.0932
  545ERGO   ROH 8397   0.263   2.574   9.899 -0.2444 -0.0891 -0.0136
  545ERGO    R1 8398   0.417   2.448   9.698 -0.1270 -0.0737  0.0655
  545ERGO    R2 8399   0.433   2.174   9.673 -0.2587 -0.0700 -0.0560
  545ERGO    R3 8400   0.354   2.225   9.418  0.0069  0.1015 -0.1078
  545ERGO    R4 8401   0.519   1.984   9.397 -0.2551 -0.0943 -0.0380
  545ERGO    R5 8402   0.544   2.169   9.284  0.0557 -0.0844  0.0325
  545ERGO    C1 8403   0.495   1.922   8.997 -0.0037  0.0525 -0.0762
  545ERGO    C2 8404   0.514   1.688   8.745  0.4290  0.0021 -0.2660
  546ERGO   ROH 8405  13.583  13.699  10.059 -0.1184 -0.2177 -0.0483
  546ERGO    R1 8406  13.471  13.664   9.802 -0.1094 -0.0937 -0.0699
  546ERGO    R2 8407  13.470  13.865   9.612 -0.0437 -0.0227  0.0025
  546ERGO    R3 8408  13.590  13.676   9.458 -0.0817  0.0023 -0.0571
  546ERGO    R4 8409  13.419  13.825   9.272 -0.2331 -0.0547  0.0340
  546ERGO    R5 8410  13.420  13.609   9.302 -0.1557 -0.0527  0.0460
  546ERGO    C1 8411  13.502  13.625   8.930 -0.3791 -0.0500 -0.0036
  546ERGO    C2 8412  13.475  13.729   8.597  0.1987 -0.1687 -0.1967
  547ERGO   ROH 8413   6.101   3.424   9.600  0.2535  0.0759  0.1001
  547ERGO    R1 8414   6.051   3.593   9.378  0.0924 -0.0104  0.0690
  547ERGO    R2 8415   6.212   3.809   9.316 -0.1599  0.1881  0.0821
  547ERGO    R3 8416   6.225   3.687   9.073  0.0480  0.1723  0.0994
  547ERGO    R4 8417   6.233   3.974   9.013 -0.3333  0.1809  0.0651
  547ERGO    R5 8418   6.095   3.828   8.929 -0.1216 -0.0210  0.0589
  547ERGO    C1 8419   6.258   3.957   8.609 -0.2390  0.1620  0.0714
  547ERGO    C2 8420   6.309   3.895   8.243 -0.0506 -0.1210 -0.0296
  548ERGO   ROH 8421   2.100  15.729   9.994  0.1698  0.2167 -0.0526
  548ERGO    R1 8422   1.933  15.648   9.780  0.0599  0.0612  0.0899
  548ERGO    R2 8423   1.907  15.794   9.547 -0.2408  0.0153  0.0892
  548ERGO    R3 8424   1.976  15.558   9.430 -0.1503  0.0535  0.0651
  548ERGO    R4 8425   1.964  15.750   9.209 -0.3687  0.0399  0.0643
  548ERGO    R5 8426   1.859  15.560   9.221 -0.2470 -0.0238  0.1184
  548ERGO    C1 8427   2.061  15.504   8.902 -0.3583  0.0901  0.0273
  548ERGO    C2 8428   2.343  15.587   8.675  0.0928 -0.0001  0.0335
  549ERGO   ROH 8429   6.044   0.284   9.708  0.1608 -0.3901 -0.2861
  549ERGO    R1 8430   5.868   0.105   9.578 -0.0514 -0.2545 -0.1916
  549ERGO    R2 8431   5.611   0.059   9.666 -0.0283 -0.0892 -0.0237
  549ERGO    R3 8432   5.545   0.126   9.411 -0.1514 -0.0108  0.0281
  549ERGO    R4 8433   5.372  -0.102   9.474  0.0467 -0.1773 -0.0429
  549ERGO    R5 8434   5.505  -0.084   9.302 -0.0157  0.0147 -0.0689
  549ERGO    C1 8435   5.172  -0.133   9.123 -0.0252 -0.1552 -0.0055
  549ERGO    C2 8436   4.861  -0.061   8.984 -0.0431 -0.1225  0.3561
  550ERGO   ROH 8437  15.510   6.657   9.048  0.0221 -0.0745 -0.1415
  550ERGO    R1 8438  15.568   6.692   8.773  0.1100 -0.0713 -0.1228
  550ERGO    R2 8439  15.741   6.526   8.635  0.1410 -0.0809 -0.0745
  550ERGO    R3 8440  15.529   6.498   8.468  0.1901 -0.0603 -0.1400
  550ERGO    R4 8441  15.760   6.405   8.312  0.2090 -0.2024 -0.0254
  550ERGO    R5 8442  15.616   6.557   8.252  0.2881 -0.1698 -0.1305
  550ERGO    C1 8443  15.571   6.308   7.967  0.2949 -0.2539 -0.0582
  550ERGO    C2 8444  15.391   6.370   7.598  0.0548 -0.3654  0.0493
  551ERGO   ROH 8445   6.879  10.660   9.570  0.2303 -0.0231  0.0350
  551ERGO    R1 8446   6.824  10.791   9.325  0.1028 -0.0439  0.0533
  551ERGO    R2 8447   6.998  10.783   9.110  0.0145 -0.0118 -0.0096
  551ERGO    R3 8448   6.777  10.694   8.977 -0.0167 -0.0608  0.0712
  551ERGO    R4 8449   6.967  10.767   8.766 -0.1047  0.0140 -0.0019
  551ERGO    R5 8450   6.762  10.837   8.786 -0.1245 -0.0397  0.0870
  551ERGO    C1 8451   6.743  10.674   8.441 -0.2035 -0.0168  0.0785
  551ERGO    C2 8452   6.677  10.730   8.127  0.0578 -0.4745  0.1338
  552ERGO   ROH 8453   8.272  17.473   9.839  0.1941  0.2754 -0.0785
  552ERGO    R1 8454   8.414  17.478   9.594  0.0570  0.2593 -0.1603
  552ERGO    R2 8455   8.381  17.286   9.399  0.1346  0.0992 -0.0240
  552ERGO    R3 8456   8.331  17.502   9.241 -0.1623 -0.0441 -0.1317
  552ERGO    R4 8457   8.333  17.274   9.056  0.1585 -0.1303 -0.0195
  552ERGO    R5 8458   8.451  17.456   9.038 -0.0949  0.0254 -0.1049
  552ERGO    C1 8459   8.259  17.468   8.709 -0.1065 -0.3984 -0.1181
  552ERGO    C2 8460   8.186  17.296   8.461  0.2782 -0.0135 -0.2774
  553ERGO   ROH 8461   3.703  17.921   9.955  0.0543  0.1772 -0.2927
  553ERGO    R1 8462   3.530  17.820   9.756  0.0196  0.1365 -0.2423
  553ERGO    R2 8463   3.501  17.941   9.508  0.0641  0.0204 -0.3034
  553ERGO    R3 8464   3.564  17.693   9.416 -0.0244 -0.0492 -0.1790
  553ERGO    R4 8465   3.384  17.804   9.213  0.1182 -0.0278 -0.3025
  553ERGO    R5 8466   3.361  17.613   9.316 -0.0266  0.0208 -0.2359
  553ERGO    C1 8467   3.375  17.491   8.955  0.0665 -0.1213 -0.1850
  553ERGO    C2 8468   3.449  17.529   8.624  0.1407 -0.0731  0.0646
  554ERGO   ROH 8469   6.495  15.116   9.873  0.0391 -0.1193 -0.1127
  554ERGO    R1 8470   6.446  15.036   9.606 -0.0629 -0.0470 -0.1164
  554ERGO    R2 8471   6.377  15.216   9.407 -0.0244  0.0229 -0.0670
  554ERGO    R3 8472   6.590  15.106   9.279 -0.1074 -0.0559 -0.1379
  554ERGO    R4 8473   6.461  15.276   9.077 -0.0918  0.0214 -0.0843
  554ERGO    R5 8474   6.510  15.064   9.057 -0.1884  0.0014 -0.1202
  554ERGO    C1 8475   6.709  15.207   8.764 -0.2090 -0.0535 -0.1609
  554ERGO    C2 8476   6.894  15.283   8.463 -0.2161  0.2605 -0.0715
  555ERGO   ROH 8477   6.312  17.078   9.821 -0.0914 -0.0952 -0.0230
  555ERGO    R1 8478   6.191  17.227   9.613  0.0241 -0.0431 -0.0535
  555ERGO    R2 8479   6.336  17.391   9.444  0.1363 -0.0959 -0.0122
  555ERGO    R3 8480   6.216  17.243   9.250  0.1303 -0.0468 -0.0459
  555ERGO    R4 8481   6.337  17.469   9.107  0.0966  0.0007  0.0097
  555ERGO    R5 8482   6.128  17.405   9.097  0.1033 -0.0116  0.0097
  555ERGO    C1 8483   6.224  17.376   8.729  0.0679  0.1031 -0.0091
  555ERGO    C2 8484   6.090  17.381   8.385  0.1477  0.1414 -0.2884
  556ERGO   ROH 8485  10.740   0.905   9.413  0.1563  0.0886 -0.0146
  556ERGO    R1 8486  10.822   0.899   9.143  0.1513  0.0423 -0.0146
  556ERGO    R2 8487  10.969   0.690   9.036  0.0844 -0.0089  0.0013
  556ERGO    R3 8488  10.767   0.684   8.854  0.0830  0.0378  0.0003
  556ERGO    R4 8489  11.006   0.604   8.704  0.0465 -0.1703  0.0375
  556ERGO    R5 8490  10.867   0.765   8.652  0.1413 -0.1040 -0.0318
  556ERGO    C1 8491  10.838   0.549   8.339  0.0232 -0.2203  0.0576
  556ERGO    C2 8492  10.734   0.530   7.921 -0.2973 -0.1809 -0.0073
  557ERGO   ROH 8493  18.392   3.933   9.450 -0.0435  0.1402 -0.1664
  557ERGO    R1 8494  18.380   3.784   9.210 -0.0586  0.1855 -0.1942
  557ERGO    R2 8495  18.576   3.798   9.016 -0.0183  0.1442 -0.1589
  557ERGO    R3 8496  18.581   3.528   9.047 -0.1266  0.1373 -0.2015
  557ERGO    R4 8497  18.713   3.575   8.790  0.1030  0.1403 -0.0823
  557ERGO    R5 8498  18.544   3.441   8.827  0.0317  0.1856 -0.2463
  557ERGO    C1 8499  18.797   3.191   8.688  0.0719  0.1315 -0.0775
  557ERGO    C2 8500  18.838   2.927   8.706  0.1817 -0.1800 -0.1056
  558ERGO   ROH 8501  12.018   6.420   9.297 -0.1789  0.2362  0.0226
  558ERGO    R1 8502  12.098   6.361   9.032 -0.0860  0.1278  0.0742
  558ERGO    R2 8503  11.919   6.286   8.836 -0.0225  0.0949  0.0318
  558ERGO    R3 8504  12.030   6.494   8.700  0.0712  0.0247 -0.0012
  558ERGO    R4 8505  11.855   6.362   8.505 -0.0465  0.1110  0.0396
  558ERGO    R5 8506  12.066   6.408   8.479 -0.0222 -0.0118 -0.0049
  558ERGO    C1 8507  11.921   6.601   8.184  0.0274  0.0545  0.0133
  558ERGO    C2 8508  11.726   6.867   8.050 -0.3277  0.0543 -0.0307
  559ERGO   ROH 8509   6.891   7.918   9.761  0.0508 -0.1611 -0.1253
  559ERGO    R1 8510   6.860   8.011   9.496 -0.3594 -0.1876 -0.0924
  559ERGO    R2 8511   7.065   8.005   9.311 -0.3656  0.5854 -0.1578
  559ERGO    R3 8512   6.883   7.870   9.161  0.0456 -0.0336 -0.1345
  559ERGO    R4 8513   7.051   8.010   8.965 -0.4707  0.5902 -0.1541
  559ERGO    R5 8514   6.833   8.018   8.979 -0.5174 -0.1620 -0.1009
  559ERGO    C1 8515   6.872   7.886   8.624 -0.1458  0.0120 -0.1301
  559ERGO    C2 8516   6.803   7.738   8.377 -0.0532 -0.3315 -0.0556
  560ERGO   ROH 8517   7.943   6.762   9.811  0.3866  0.1678  0.0820
  560ERGO    R1 8518   7.985   6.896   9.565  0.0972  0.0799 -0.0193
  560ERGO    R2 8519   8.225   6.886   9.429  0.0420  0.2931 -0.1346
  560ERGO    R3 8520   8.068   6.803   9.223  0.0341 -0.0166 -0.0091
  560ERGO    R4 8521   8.340   6.793   9.117 -0.0114  0.4309 -0.1969
  560ERGO    R5 8522   8.170   6.896   9.028 -0.2574  0.1275 -0.1010
  560ERGO    C1 8523   8.260   6.660   8.742 -0.0501  0.2205 -0.1154
  560ERGO    C2 8524   8.481   6.298   8.557 -0.1267  0.0981  0.0463
  561ERGO   ROH 8525  10.428   7.158   9.687 -0.0168  0.2598 -0.0101
  561ERGO    R1 8526  10.297   7.283   9.469  0.0772  0.2327 -0.0830
  561ERGO    R2 8527  10.427   7.340   9.231  0.1290  0.0201 -0.1101
  561ERGO    R3 8528  10.222   7.198   9.123  0.0382  0.0984 -0.0421
  561ERGO    R4 8529  10.347   7.336   8.895  0.0056  0.0631 -0.0813
  561ERGO    R5 8530  10.136   7.341   8.951  0.0274  0.1368 -0.0046
  561ERGO    C1 8531  10.108   7.200   8.597 -0.1515  0.1617 -0.0008
  561ERGO    C2 8532  10.147   7.094   8.195 -0.2479 -0.0151 -0.0948
  562ERGO   ROH 8533   8.395  16.313   9.900 -0.2002 -0.1762  0.1901
  562ERGO    R1 8534   8.292  16.183   9.670 -0.0344 -0.1790  0.1162
  562ERGO    R2 8535   8.145  16.316   9.477 -0.1007 -0.2314  0.1310
  562ERGO    R3 8536   8.332  16.213   9.310  0.0289 -0.0104  0.1358
  562ERGO    R4 8537   8.121  16.314   9.133 -0.0615 -0.2028  0.1282
  562ERGO    R5 8538   8.205  16.113   9.133  0.1512 -0.1181  0.1063
  562ERGO    C1 8539   8.283  16.216   8.774  0.0829  0.0214  0.1309
  562ERGO    C2 8540   8.429  16.218   8.533  0.0767 -0.1139  0.1627
  563ERGO   ROH 8541  17.272  17.686  10.420  0.0510  0.1286  0.1737
  563ERGO    R1 8542  17.044  17.733  10.259  0.1209 -0.0473  0.0204
  563ERGO    R2 8543  16.918  17.979  10.248 -0.1119 -0.1685  0.0071
  563ERGO    R3 8544  16.957  17.950   9.980  0.1106 -0.0460  0.0231
  563ERGO    R4 8545  16.769  18.173  10.004 -0.0228 -0.1427 -0.0283
  563ERGO    R5 8546  16.743  17.993   9.883  0.1576 -0.1137 -0.1228
  563ERGO    C1 8547  16.719  18.259   9.611  0.2381 -0.0127 -0.0338
  563ERGO    C2 8548  16.751  18.522   9.445  0.2021 -0.1449  0.1138
  564ERGO   ROH 8549  15.131   2.091  10.069  0.0049 -0.0403  0.0445
  564ERGO    R1 8550  15.040   2.046   9.805  0.1596 -0.1039  0.0001
  564ERGO    R2 8551  14.894   2.234   9.664 -0.1032 -0.2862  0.0136
  564ERGO    R3 8552  15.090   2.199   9.479  0.0211  0.0872  0.0683
  564ERGO    R4 8553  14.844   2.230   9.322  0.0038 -0.4035 -0.0011
  564ERGO    R5 8554  14.987   2.066   9.308  0.3305 -0.1252  0.0442
  564ERGO    C1 8555  14.998   2.196   8.949  0.1830 -0.1212  0.0415
  564ERGO    C2 8556  15.060   2.267   8.643 -0.1632 -0.2716 -0.3056
  565ERGO   ROH 8557  17.530   1.805   9.830  0.0132  0.1837  0.2200
  565ERGO    R1 8558  17.450   1.791   9.559 -0.1062  0.1744  0.2557
  565ERGO    R2 8559  17.370   2.013   9.416  0.1282  0.2228  0.1974
  565ERGO    R3 8560  17.562   1.932   9.242 -0.0387 -0.0998  0.1542
  565ERGO    R4 8561  17.330   1.995   9.073  0.0467  0.3745  0.1975
  565ERGO    R5 8562  17.443   1.808   9.075 -0.2976  0.1563  0.1399
  565ERGO    C1 8563  17.488   1.909   8.710 -0.1572  0.1601  0.1569
  565ERGO    C2 8564  17.387   2.175   8.435  0.4850  0.2312  0.1549
  566ERGO   ROH 8565   9.740   2.333   9.965  0.1643 -0.0939  0.0510
  566ERGO    R1 8566   9.690   2.318   9.687  0.0278 -0.1182  0.0755
  566ERGO    R2 8567   9.833   2.464   9.502 -0.2320  0.0654  0.0075
  566ERGO    R3 8568   9.876   2.220   9.390 -0.0222  0.1204 -0.0354
  566ERGO    R4 8569   9.896   2.409   9.166 -0.0696  0.1797  0.0184
  566ERGO    R5 8570   9.767   2.233   9.176  0.0498  0.0909 -0.0708
  566ERGO    C1 8571   9.971   2.148   8.866  0.2219  0.2979 -0.0154
  566ERGO    C2 8572  10.022   2.109   8.509  0.0978  0.2315 -0.1340
  567ERGO   ROH 8573  12.269   4.217   5.613  0.0450  0.0705  0.0171
  567ERGO    R1 8574  12.487   4.216   5.794  0.0691 -0.0380 -0.0115
  567ERGO    R2 8575  12.499   4.384   6.013  0.2029 -0.0114 -0.0381
  567ERGO    R3 8576  12.536   4.151   6.149  0.0750 -0.0145 -0.0080
  567ERGO    R4 8577  12.612   4.360   6.339  0.1484 -0.0288 -0.0206
  567ERGO    R5 8578  12.732   4.188   6.280  0.0757 -0.0926  0.0139
  567ERGO    C1 8579  12.712   4.128   6.656 -0.0033 -0.0417  0.0179
  567ERGO    C2 8580  12.606   4.280   6.973 -0.2424  0.0516  0.3443
  568ERGO   ROH 8581   9.451  15.052  10.195  0.0615 -0.0900 -0.2427
  568ERGO    R1 8582   9.352  15.117   9.938  0.0150 -0.1914 -0.2509
  568ERGO    R2 8583   9.502  15.256   9.752 -0.0846 -0.1029 -0.2657
  568ERGO    R3 8584   9.443  15.043   9.594  0.0714 -0.1652 -0.2418
  568ERGO    R4 8585   9.425  15.275   9.415 -0.3199 -0.1692 -0.2177
  568ERGO    R5 8586   9.272  15.123   9.447 -0.1210 -0.3585 -0.1299
  568ERGO    C1 8587   9.326  15.086   9.071 -0.3105 -0.2662 -0.1674
  568ERGO    C2 8588   9.354  14.834   8.823 -0.0079 -0.0612 -0.0859
  569ERGO   ROH 8589  10.404   3.207  10.261 -0.0130  0.0351  0.0075
  569ERGO    R1 8590  10.291   3.263  10.007  0.2723  0.1555 -0.0962
  569ERGO    R2 8591  10.442   3.269   9.776  0.4425 -0.3380 -0.0089
  569ERGO    R3 8592  10.257   3.090   9.689  0.0606  0.0375 -0.0120
  569ERGO    R4 8593  10.381   3.196   9.444  0.5532 -0.4686 -0.0023
  569ERGO    R5 8594  10.167   3.189   9.490  0.4806  0.1038 -0.1800
  569ERGO    C1 8595  10.172   2.984   9.169  0.2592 -0.1921 -0.0012
  569ERGO    C2 8596   9.980   2.939   8.908 -0.0493 -0.1465 -0.0048
  570ERGO   ROH 8597   2.704  11.565   9.618 -0.0373 -0.2992 -0.1004
  570ERGO    R1 8598   2.632  11.732   9.400 -0.1258 -0.3186 -0.0860
  570ERGO    R2 8599   2.797  11.932   9.305 -0.2814 -0.1444  0.0075
  570ERGO    R3 8600   2.763  11.804   9.068 -0.0906 -0.1268 -0.0317
  570ERGO    R4 8601   2.818  12.082   8.995 -0.1018 -0.1067  0.0361
  570ERGO    R5 8602   2.647  11.962   8.931 -0.0324 -0.1378 -0.0943
  570ERGO    C1 8603   2.798  12.049   8.592  0.1819 -0.0682  0.0160
  570ERGO    C2 8604   3.066  12.220   8.445  0.2485  0.2584 -0.1251
  571ERGO   ROH 8605  13.574   8.422   9.948 -0.0490  0.4315 -0.0822
  571ERGO    R1 8606  13.602   8.418   9.667  0.1331  0.2001 -0.0638
  571ERGO    R2 8607  13.848   8.391   9.542  0.2056  0.0033  0.1142
  571ERGO    R3 8608  13.724   8.184   9.417  0.2042 -0.0466  0.1975
  571ERGO    R4 8609  13.859   8.331   9.202 -0.0116  0.0133  0.1037
  571ERGO    R5 8610  13.648   8.277   9.209  0.0170 -0.0765  0.2521
  571ERGO    C1 8611  13.750   8.102   8.886 -0.1393 -0.0278  0.1757
  571ERGO    C2 8612  13.649   8.025   8.584  0.1405  0.0939  0.1219
  572ERGO   ROH 8613  14.387   1.661  10.227 -0.1423 -0.0333  0.0508
  572ERGO    R1 8614  14.417   1.811   9.989 -0.1435  0.0554  0.1062
  572ERGO    R2 8615  14.628   1.773   9.814 -0.0421  0.2495  0.1840
  572ERGO    R3 8616  14.429   1.741   9.632  0.0563  0.1646  0.0897
  572ERGO    R4 8617  14.672   1.775   9.472  0.1282  0.1982  0.2044
  572ERGO    R5 8618  14.487   1.889   9.454  0.1068  0.1472  0.0915
  572ERGO    C1 8619  14.510   1.745   9.101  0.3199  0.0885  0.1278
  572ERGO    C2 8620  14.744   1.757   8.771  0.0736 -0.1599 -0.2247
  573ERGO   ROH 8621   9.578   0.064   9.711  0.0743  0.1105 -0.0477
  573ERGO    R1 8622   9.584  -0.124   9.499  0.0878  0.0704 -0.0124
  573ERGO    R2 8623   9.385  -0.139   9.308  0.0853  0.0154 -0.0071
  573ERGO    R3 8624   9.592  -0.111   9.135  0.0802  0.0023 -0.0148
  573ERGO    R4 8625   9.392  -0.265   8.987  0.1013 -0.0616  0.0237
  573ERGO    R5 8626   9.601  -0.320   9.018  0.1088 -0.0246  0.0359
  573ERGO    C1 8627   9.592  -0.312   8.637  0.1059 -0.1189  0.0343
  573ERGO    C2 8628   9.630  -0.206   8.323 -0.2287 -0.3164  0.0809
  574ERGO   ROH 8629   9.446  11.512  10.015  0.0144 -0.2874 -0.0615
  574ERGO    R1 8630   9.483  11.461   9.739  0.0052 -0.0149 -0.1154
  574ERGO    R2 8631   9.300  11.540   9.547  0.0082  0.1857 -0.0303
  574ERGO    R3 8632   9.518  11.659   9.436  0.0104  0.2852  0.0746
  574ERGO    R4 8633   9.308  11.681   9.232  0.1486 -0.0165 -0.1200
  574ERGO    R5 8634   9.507  11.596   9.205  0.2465  0.1191  0.1007
  574ERGO    C1 8635   9.517  11.874   8.943  0.2325 -0.0409 -0.0737
  574ERGO    C2 8636   9.464  11.983   8.709 -0.2102  0.0691  0.1154
  575ERGO   ROH 8637   1.255   3.574   9.375  0.0005  0.2613 -0.0516
  575ERGO    R1 8638   1.197   3.624   9.102  0.0766  0.1738 -0.0841
  575ERGO    R2 8639   1.390   3.704   8.921  0.1698 -0.0846 -0.1035
  575ERGO    R3 8640   1.302   3.489   8.781 -0.0003 -0.0815 -0.0044
  575ERGO    R4 8641   1.362   3.691   8.577  0.1058 -0.2031 -0.0944
  575ERGO    R5 8642   1.174   3.583   8.601  0.0351 -0.0656 -0.0212
  575ERGO    C1 8643   1.264   3.481   8.245 -0.0912 -0.2692  0.0039
  575ERGO    C2 8644   1.406   3.627   7.982  0.1260 -0.4854  0.0334
  576ERGO   ROH 8645   7.586  17.095   9.609 -0.0531  0.0805  0.0233
  576ERGO    R1 8646   7.410  17.065   9.390 -0.0439  0.0699  0.0168
  576ERGO    R2 8647   7.392  17.251   9.187 -0.0570  0.0759  0.0209
  576ERGO    R3 8648   7.440  17.035   9.028 -0.0290  0.0852  0.0172
  576ERGO    R4 8649   7.328  17.237   8.847 -0.0466  0.0743  0.0195
  576ERGO    R5 8650   7.257  17.033   8.874 -0.0236  0.0669  0.0129
  576ERGO    C1 8651   7.335  17.026   8.501 -0.0142  0.0821  0.0151
  576ERGO    C2 8652   7.261  17.192   8.216 -0.1293 -0.0860  0.2357
  577ERGO   ROH 8653   5.051  17.449   9.698  0.2440  0.4632  0.0325
  577ERGO    R1 8654   5.144  17.472   9.432  0.2597  0.0464 -0.0045
  577ERGO    R2 8655   5.258  17.260   9.295 -0.1461 -0.3015  0.1708
  577ERGO    R3 8656   5.066  17.318   9.111 -0.0659 -0.1114  0.1452
  577ERGO    R4 8657   5.305  17.261   8.953 -0.0657 -0.2027  0.1819
  577ERGO    R5 8658   5.181  17.439   8.940  0.0506 -0.1203  0.2180
  577ERGO    C1 8659   5.153  17.315   8.581  0.0564  0.0334  0.1642
  577ERGO    C2 8660   5.110  17.357   8.221 -0.0888 -0.0249  0.1542
  578ERGO   ROH 8661  15.340   8.241   9.485 -0.3165  0.1418  0.1245
  578ERGO    R1 8662  15.198   8.278   9.243 -0.1156 -0.0506 -0.0264
  578ERGO    R2 8663  15.125   8.527   9.150 -0.3347 -0.1448 -0.1135
  578ERGO    R3 8664  15.256   8.447   8.926  0.0014  0.0043  0.0236
  578ERGO    R4 8665  15.108   8.687   8.844 -0.2301 -0.1910 -0.1436
  578ERGO    R5 8666  15.102   8.491   8.748  0.1219 -0.2108 -0.1384
  578ERGO    C1 8667  15.222   8.705   8.455  0.1465 -0.0779 -0.0323
  578ERGO    C2 8668  15.217   8.781   8.074  0.0451  0.0150 -0.1101
  579ERGO   ROH 8669  12.423   6.047   9.271 -0.0984 -0.0374 -0.0523
  579ERGO    R1 8670  12.472   6.019   8.993 -0.1435 -0.2215 -0.0422
  579ERGO    R2 8671  12.272   5.963   8.811 -0.2534  0.1153 -0.0249
  579ERGO    R3 8672  12.366   6.186   8.688  0.1918 -0.1017 -0.0998
  579ERGO    R4 8673  12.275   6.014   8.469 -0.3789  0.0762 -0.0327
  579ERGO    R5 8674  12.472   6.104   8.489 -0.1332 -0.3783 -0.1740
  579ERGO    C1 8675  12.365   6.252   8.155 -0.0341 -0.1502 -0.1075
  579ERGO    C2 8676  12.487   6.382   7.894  0.1308  0.0895 -0.1395
  580ERGO   ROH 8677  14.394   0.376   9.981 -0.0409  0.0251  0.0027
  580ERGO    R1 8678  14.468   0.382   9.708  0.0338 -0.0472  0.0206
  580ERGO    R2 8679  14.481   0.155   9.551 -0.0965 -0.0687  0.0374
  580ERGO    R3 8680  14.314   0.296   9.389  0.0482  0.0477 -0.0120
  580ERGO    R4 8681  14.470   0.129   9.207 -0.0674 -0.1164  0.0402
  580ERGO    R5 8682  14.446   0.345   9.196  0.1191 -0.0971 -0.0006
  580ERGO    C1 8683  14.307   0.247   8.854  0.0853 -0.0349 -0.0045
  580ERGO    C2 8684  14.382   0.243   8.499 -0.0097 -0.0818 -0.0416
  581ERGO   ROH 8685   0.122  15.454   9.842  0.1689  0.2612 -0.1363
  581ERGO    R1 8686   0.016  15.332   9.609  0.1224  0.1490 -0.0592
  581ERGO    R2 8687  -0.240  15.382   9.519  0.0096 -0.0821  0.0991
  581ERGO    R3 8688  -0.112  15.444   9.287 -0.1869  0.0176  0.0165
  581ERGO    R4 8689  -0.343  15.285   9.204  0.0078 -0.3445  0.1799
  581ERGO    R5 8690  -0.135  15.247   9.152  0.0350 -0.0623  0.0995
  581ERGO    C1 8691  -0.283  15.286   8.803 -0.1776 -0.4038  0.1494
  581ERGO    C2 8692  -0.127  15.275   8.462  0.0001 -0.1058 -0.2457
  582ERGO   ROH 8693   6.572  12.730   9.817  0.3188  0.3135 -0.1105
  582ERGO    R1 8694   6.640  12.848   9.569  0.3826  0.1486 -0.1727
  582ERGO    R2 8695   6.830  12.739   9.400  0.1570 -0.1737 -0.2285
  582ERGO    R3 8696   6.629  12.751   9.219  0.0917  0.0666 -0.1433
  582ERGO    R4 8697   6.872  12.796   9.062  0.0498  0.1697 -0.1874
  582ERGO    R5 8698   6.695  12.923   9.066  0.0802  0.2121  0.0109
  582ERGO    C1 8699   6.706  12.840   8.694 -0.0741  0.5953 -0.0835
  582ERGO    C2 8700   6.855  12.742   8.374  0.0038 -0.0864  0.0643
  583ERGO   ROH 8701  10.830  10.016   9.818  0.1543  0.1356  0.0391
  583ERGO    R1 8702  10.639  10.073   9.616  0.2007  0.0959 -0.0173
  583ERGO    R2 8703  10.539  10.327   9.573  0.1300  0.0706 -0.0206
  583ERGO    R3 8704  10.623  10.282   9.318  0.2315  0.1258  0.0027
  583ERGO    R4 8705  10.465  10.529   9.302  0.0263 -0.0114 -0.0534
  583ERGO    R5 8706  10.437  10.348   9.183  0.2095 -0.0418 -0.0483
  583ERGO    C1 8707  10.500  10.603   8.905  0.0612 -0.0075 -0.0507
  583ERGO    C2 8708  10.355  10.948   8.758  0.2554  0.2020  0.0906
  584ERGO   ROH 8709  14.166   4.987   9.833 -0.2635 -0.0611 -0.0721
  584ERGO    R1 8710  14.167   5.051   9.557 -0.4621 -0.2989 -0.1310
  584ERGO    R2 8711  14.399   5.114   9.419 -0.6354  0.2740 -0.1797
  584ERGO    R3 8712  14.316   4.914   9.254 -0.0501 -0.1373 -0.0103
  584ERGO    R4 8713  14.462   5.098   9.080 -0.8445  0.3572 -0.2244
  584ERGO    R5 8714  14.259   5.025   9.050 -0.6354 -0.4171 -0.0256
  584ERGO    C1 8715  14.421   4.902   8.728 -0.4169  0.0194 -0.0914
  584ERGO    C2 8716  14.429   4.967   8.417  0.0574  0.0290  0.0419
  585ERGO   ROH 8717  17.542  12.935   9.459 -0.0494 -0.0901  0.1719
  585ERGO    R1 8718  17.480  12.842   9.199  0.0284  0.0114  0.1166
  585ERGO    R2 8719  17.223  12.778   9.121  0.0681 -0.0566  0.0483
  585ERGO    R3 8720  17.275  12.953   8.920  0.0245  0.0626  0.1388
  585ERGO    R4 8721  17.012  12.841   8.855  0.1478 -0.1464 -0.0372
  585ERGO    R5 8722  17.187  12.847   8.724  0.2158  0.0513  0.0532
  585ERGO    C1 8723  16.938  13.042   8.510  0.1533 -0.0868 -0.0020
  585ERGO    C2 8724  16.643  13.232   8.439 -0.0187 -0.0077  0.1723
  586ERGO   ROH 8725  10.495   6.116   9.724 -0.2192 -0.2406  0.0478
  586ERGO    R1 8726  10.517   6.234   9.468  0.0078 -0.1429  0.1061
  586ERGO    R2 8727  10.523   6.084   9.235  0.0290 -0.0547  0.0309
  586ERGO    R3 8728  10.316   6.246   9.164  0.1780  0.1239  0.0060
  586ERGO    R4 8729  10.397   6.115   8.915 -0.0855 -0.1165  0.0721
  586ERGO    R5 8730  10.377   6.329   8.948  0.1647 -0.0849 -0.0669
  586ERGO    C1 8731  10.129   6.283   8.662 -0.0125  0.0152  0.0727
  586ERGO    C2 8732  10.034   6.183   8.375 -0.4934 -0.0531  0.1769
  587ERGO   ROH 8733  12.386   4.352   9.721 -0.1748 -0.4308 -0.1542
  587ERGO    R1 8734  12.470   4.475   9.480 -0.1602 -0.0593  0.0330
  587ERGO    R2 8735  12.473   4.341   9.238  0.2860  0.1653 -0.0976
  587ERGO    R3 8736  12.322   4.552   9.157 -0.0017 -0.0105 -0.0286
  587ERGO    R4 8737  12.488   4.485   8.924  0.1301  0.3260 -0.0331
  587ERGO    R5 8738  12.469   4.681   9.018 -0.1623  0.2609  0.0483
  587ERGO    C1 8739  12.355   4.765   8.664 -0.2308  0.2546  0.0693
  587ERGO    C2 8740  12.377   4.694   8.363 -0.3204  0.0819 -0.0170
  588ERGO   ROH 8741   4.406   6.394   9.360  0.2127  0.0193  0.0144
  588ERGO    R1 8742   4.565   6.367   9.128  0.1945 -0.0011  0.0040
  588ERGO    R2 8743   4.469   6.256   8.893  0.1971 -0.0887  0.0429
  588ERGO    R3 8744   4.557   6.490   8.785  0.1247 -0.0941 -0.0281
  588ERGO    R4 8745   4.551   6.302   8.560  0.2042 -0.1703  0.0334
  588ERGO    R5 8746   4.721   6.423   8.624  0.1583 -0.0914  0.0053
  588ERGO    C1 8747   4.682   6.548   8.265  0.1403 -0.2229 -0.0386
  588ERGO    C2 8748   4.725   6.566   7.881 -0.0568  0.0615  0.1663
  589ERGO   ROH 8749  13.440   1.147   9.898  0.0103  0.1877  0.0698
  589ERGO    R1 8750  13.551   1.292   9.682  0.0464  0.0831  0.0173
  589ERGO    R2 8751  13.742   1.185   9.512 -0.0171 -0.0425  0.0244
  589ERGO    R3 8752  13.565   1.259   9.320 -0.0087 -0.0214  0.0246
  589ERGO    R4 8753  13.822   1.236   9.180 -0.0052 -0.0196  0.0307
  589ERGO    R5 8754  13.689   1.408   9.180  0.0008 -0.0148  0.0399
  589ERGO    C1 8755  13.702   1.334   8.806  0.0096  0.0136  0.0346
  589ERGO    C2 8756  13.597   1.180   8.520  0.0437 -0.2458 -0.0962
  590ERGO   ROH 8757   4.467  16.162   9.836  0.0378 -0.2091  0.1726
  590ERGO    R1 8758   4.425  16.055   9.578  0.1238 -0.2100  0.1590
  590ERGO    R2 8759   4.257  16.174   9.393 -0.0269 -0.3581  0.2003
  590ERGO    R3 8760   4.477  16.165   9.235 -0.0329 -0.0917  0.1712
  590ERGO    R4 8761   4.252  16.181   9.048 -0.0713 -0.2118  0.2027
  590ERGO    R5 8762   4.410  16.031   9.048  0.0652 -0.0724  0.1202
  590ERGO    C1 8763   4.456  16.175   8.698 -0.1027  0.1235  0.1768
  590ERGO    C2 8764   4.565  16.206   8.290  0.0965  0.2005 -0.0048
  591ERGO   ROH 8765  17.501   3.303   9.641 -0.0295  0.1482  0.0147
  591ERGO    R1 8766  17.666   3.217   9.427  0.0578  0.2725  0.0305
  591ERGO    R2 8767  17.587   3.025   9.245  0.2771  0.0996  0.1088
  591ERGO    R3 8768  17.650   3.217   9.064  0.0176  0.1152  0.0322
  591ERGO    R4 8769  17.683   2.964   8.919  0.2138  0.1096  0.0889
  591ERGO    R5 8770  17.831   3.123   8.938  0.0638  0.2623 -0.0108
  591ERGO    C1 8771  17.798   3.109   8.558 -0.0666  0.1299  0.0053
  591ERGO    C2 8772  17.936   3.049   8.142  0.0878 -0.1236 -0.2098
  592ERGO   ROH 8773   3.525   8.559   9.553 -0.3820  0.1253  0.0095
  592ERGO    R1 8774   3.401   8.661   9.320 -0.1909  0.0497 -0.1281
  592ERGO    R2 8775   3.523   8.847   9.156 -0.0976  0.0781 -0.0308
  592ERGO    R3 8776   3.470   8.662   8.963  0.1658  0.0331 -0.0620
  592ERGO    R4 8777   3.572   8.896   8.817 -0.0307  0.1501 -0.0104
  592ERGO    R5 8778   3.384   8.791   8.780  0.0933 -0.0472 -0.0836
  592ERGO    C1 8779   3.551   8.752   8.439  0.2554  0.1497 -0.0278
  592ERGO    C2 8780   3.741   8.703   8.212 -0.1339  0.1704 -0.0157
  593ERGO   ROH 8781  11.039   7.396   9.851 -0.0200 -0.2160 -0.1116
  593ERGO    R1 8782  11.088   7.569   9.633 -0.0184 -0.1349 -0.0471
  593ERGO    R2 8783  11.339   7.599   9.519 -0.0292 -0.1442 -0.0771
  593ERGO    R3 8784  11.207   7.535   9.291 -0.0846 -0.0200 -0.0811
  593ERGO    R4 8785  11.448   7.673   9.200 -0.0566 -0.0796 -0.0723
  593ERGO    R5 8786  11.243   7.722   9.146 -0.0429  0.0111 -0.0261
  593ERGO    C1 8787  11.388   7.656   8.799 -0.1246  0.0746 -0.0733
  593ERGO    C2 8788  11.541   7.512   8.606 -0.0771  0.0757 -0.0857
  594ERGO   ROH 8789  15.222   5.792   9.170 -0.1984  0.2643 -0.0286
  594ERGO    R1 8790  15.297   5.715   8.908 -0.0899  0.2293  0.0115
  594ERGO    R2 8791  15.191   5.493   8.782 -0.0053  0.1825  0.0114
  594ERGO    R3 8792  15.132   5.673   8.587  0.0300  0.1395 -0.0379
  594ERGO    R4 8793  15.070   5.412   8.468 -0.4381  0.1491  0.1799
  594ERGO    R5 8794  15.200   5.566   8.384 -0.3215 -0.0739 -0.0476
  594ERGO    C1 8795  14.945   5.533   8.102 -0.6570  0.0894  0.2316
  594ERGO    C2 8796  14.861   5.413   7.811  0.3319 -0.1746  0.2469
  595ERGO   ROH 8797  12.815   2.487   9.965 -0.1418  0.2921 -0.1843
  595ERGO    R1 8798  12.817   2.324   9.734 -0.0820  0.1968 -0.1166
  595ERGO    R2 8799  12.631   2.124   9.692  0.0365  0.0629  0.0006
  595ERGO    R3 8800  12.590   2.255   9.458 -0.0902 -0.0616 -0.0490
  595ERGO    R4 8801  12.445   2.002   9.428 -0.1566 -0.0592  0.1889
  595ERGO    R5 8802  12.595   2.082   9.292 -0.2265 -0.1604  0.0447
  595ERGO    C1 8803  12.299   2.053   9.053 -0.3881 -0.2472  0.2519
  595ERGO    C2 8804  12.238   1.906   8.787  0.2930 -0.1402  0.1639
  596ERGO   ROH 8805  15.458  14.970   9.979 -0.1801  0.0137 -0.1249
  596ERGO    R1 8806  15.476  14.823   9.738 -0.0328 -0.0617 -0.0693
  596ERGO    R2 8807  15.459  14.943   9.490 -0.1070 -0.1665 -0.1150
  596ERGO    R3 8808  15.696  14.817   9.448  0.0044  0.0145 -0.0432
  596ERGO    R4 8809  15.583  14.854   9.179 -0.0580 -0.2860 -0.0618
  596ERGO    R5 8810  15.652  14.666   9.267  0.1207 -0.1618  0.0719
  596ERGO    C1 8811  15.878  14.683   8.960  0.0751 -0.1857  0.0366
  596ERGO    C2 8812  15.974  14.544   8.589  0.1460  0.2278 -0.1780
  597ERGO   ROH 8813   0.077  17.665  10.141  0.1665 -0.1488 -0.1421
  597ERGO    R1 8814   0.148  17.702   9.870  0.1479 -0.2450 -0.1600
  597ERGO    R2 8815   0.348  17.556   9.746  0.0749 -0.3505 -0.1452
  597ERGO    R3 8816   0.152  17.501   9.567  0.0353 -0.3221 -0.1120
  597ERGO    R4 8817   0.366  17.621   9.407 -0.1319  0.0350 -0.0877
  597ERGO    R5 8818   0.157  17.684   9.414 -0.1886 -0.1436  0.0812
  597ERGO    C1 8819   0.191  17.608   9.042 -0.2896  0.2861 -0.0232
  597ERGO    C2 8820   0.106  17.568   8.796  0.1493 -0.3176  0.0124
  598ERGO   ROH 8821  16.131   3.902   9.907  0.2916  0.1038  0.0477
  598ERGO    R1 8822  16.291   3.919   9.673  0.2624 -0.2566 -0.0047
  598ERGO    R2 8823  16.363   3.696   9.526 -0.2639 -0.4368 -0.0199
  598ERGO    R3 8824  16.253   3.836   9.321 -0.0336 -0.2012  0.0124
  598ERGO    R4 8825  16.431   3.641   9.192 -0.0994 -0.2293 -0.0220
  598ERGO    R5 8826  16.431   3.857   9.162  0.0781 -0.2082  0.1389
  598ERGO    C1 8827  16.367   3.741   8.804  0.2126  0.1127  0.0069
  598ERGO    C2 8828  16.312   3.669   8.592 -0.4067 -0.1739 -0.1226
  599ERGO   ROH 8829  18.287  11.289   9.704 -0.2758 -0.1112  0.0030
  599ERGO    R1 8830  18.298  11.241   9.425 -0.1267 -0.0847  0.0028
  599ERGO    R2 8831  18.179  11.409   9.241 -0.0731 -0.0927 -0.0445
  599ERGO    R3 8832  18.428  11.414   9.133 -0.0181 -0.0293  0.0842
  599ERGO    R4 8833  18.249  11.483   8.911  0.1003  0.0762  0.0289
  599ERGO    R5 8834  18.398  11.325   8.912  0.1018  0.0832  0.0247
  599ERGO    C1 8835  18.524  11.531   8.617  0.2531  0.2339  0.1927
  599ERGO    C2 8836  18.521  11.643   8.298 -0.4386 -0.1937  0.1142
  600ERGO   ROH 8837   8.439  11.460   9.641 -0.0089 -0.2213 -0.1926
  600ERGO    R1 8838   8.347  11.505   9.377  0.0426 -0.0700 -0.1863
  600ERGO    R2 8839   8.418  11.728   9.231  0.2595 -0.0981 -0.1312
  600ERGO    R3 8840   8.496  11.543   9.048  0.0933 -0.1309 -0.1697
  600ERGO    R4 8841   8.504  11.798   8.903  0.2400 -0.1226 -0.1411
  600ERGO    R5 8842   8.398  11.617   8.842  0.1031 -0.0412 -0.1401
  600ERGO    C1 8843   8.626  11.665   8.541  0.0727 -0.1677 -0.1831
  600ERGO    C2 8844   8.795  11.652   8.252  0.3726  0.1536 -0.1396
  601ERGO   ROH 8845  13.286   8.874   9.711  0.0603  0.1143 -0.0593
  601ERGO    R1 8846  13.196   8.773   9.462 -0.1237  0.0237  0.0437
  601ERGO    R2 8847  12.934   8.799   9.378 -0.0710  0.4496  0.0098
  601ERGO    R3 8848  13.050   8.910   9.158  0.1619 -0.0093 -0.1142
  601ERGO    R4 8849  12.806   8.780   9.057 -0.1761  0.4387  0.0515
  601ERGO    R5 8850  13.010   8.751   8.983 -0.2346 -0.0982  0.0384
  601ERGO    C1 8851  12.840   8.874   8.664 -0.0188  0.0016 -0.0409
  601ERGO    C2 8852  12.738   8.835   8.330  0.0221  0.0298  0.0716
  602ERGO   ROH 8853   9.144   9.071   9.874  0.1598 -0.0894 -0.2049
  602ERGO    R1 8854   9.170   8.967   9.612  0.0329 -0.1889 -0.1796
  602ERGO    R2 8855   9.028   8.746   9.525 -0.1772 -0.0924 -0.0985
  602ERGO    R3 8856   8.952   8.914   9.326 -0.0545 -0.0776 -0.1331
  602ERGO    R4 8857   9.055   8.678   9.187 -0.1944 -0.1619 -0.0855
  602ERGO    R5 8858   9.117   8.884   9.155 -0.0622 -0.2085 -0.1153
  602ERGO    C1 8859   8.999   8.796   8.803 -0.0893 -0.1885 -0.1105
  602ERGO    C2 8860   9.006   8.720   8.409 -0.0568 -0.1920  0.3090
  603ERGO   ROH 8861  16.468   7.516   9.340 -0.2967  0.0677  0.0881
  603ERGO    R1 8862  16.562   7.535   9.073 -0.2782 -0.1084  0.0820
  603ERGO    R2 8863  16.395   7.504   8.855 -0.3357  0.1156  0.0962
  603ERGO    R3 8864  16.497   7.746   8.784  0.0313 -0.0429  0.0553
  603ERGO    R4 8865  16.436   7.613   8.530 -0.3811  0.0741  0.0762
  603ERGO    R5 8866  16.627   7.701   8.588 -0.1794 -0.2537 -0.0455
  603ERGO    C1 8867  16.555   7.904   8.274 -0.0629 -0.0988  0.0262
  603ERGO    C2 8868  16.538   8.021   7.808  0.2247  0.0845  0.1118
  604ERGO   ROH 8869  17.776  16.964  10.294 -0.1640 -0.0694  0.1524
  604ERGO    R1 8870  17.846  16.963  10.020 -0.2044  0.0656  0.1403
  604ERGO    R2 8871  17.876  16.729   9.875  0.1481  0.1189  0.1171
  604ERGO    R3 8872  17.696  16.847   9.709 -0.0733 -0.1536  0.1567
  604ERGO    R4 8873  17.828  16.644   9.544  0.2172  0.0567  0.1230
  604ERGO    R5 8874  17.808  16.856   9.497 -0.1255  0.0318  0.1356
  604ERGO    C1 8875  17.631  16.705   9.195  0.0494 -0.2352  0.1635
  604ERGO    C2 8876  17.575  16.574   8.866  0.3186  0.1372 -0.0137
  605ERGO   ROH 8877  14.721   7.744   9.824  0.0011 -0.3914  0.2228
  605ERGO    R1 8878  14.693   7.711   9.544 -0.1994 -0.2404  0.2229
  605ERGO    R2 8879  14.909   7.691   9.374 -0.3150  0.1638  0.0137
  605ERGO    R3 8880  14.786   7.461   9.296 -0.0765  0.0469 -0.0270
  605ERGO    R4 8881  14.916   7.561   9.053 -0.1993  0.2411 -0.0154
  605ERGO    R5 8882  14.706   7.508   9.076 -0.1434  0.0108 -0.0106
  605ERGO    C1 8883  14.804   7.270   8.794  0.0920  0.1764 -0.0706
  605ERGO    C2 8884  14.819   7.097   8.560 -0.1454 -0.0432  0.1837
  606ERGO   ROH 8885   8.035  10.670   9.534  0.0339  0.3164  0.0979
  606ERGO    R1 8886   7.940  10.741   9.277  0.0785  0.3378  0.0881
  606ERGO    R2 8887   8.109  10.804   9.067  0.1287 -0.0825 -0.0002
  606ERGO    R3 8888   7.968  10.610   8.938 -0.2593  0.0869  0.1496
  606ERGO    R4 8889   8.050  10.798   8.727  0.2675 -0.2962 -0.0228
  606ERGO    R5 8890   7.847  10.729   8.769  0.0764  0.2008 -0.0275
  606ERGO    C1 8891   7.883  10.613   8.408 -0.0160 -0.2618  0.1045
  606ERGO    C2 8892   8.183  10.659   8.174  0.1480  0.1223 -0.4014
  607ERGO   ROH 8893   2.238   8.734   9.604 -0.0931 -0.4409 -0.0217
  607ERGO    R1 8894   2.202   8.597   9.359 -0.0736 -0.1959 -0.1648
  607ERGO    R2 8895   2.286   8.701   9.117  0.2680 -0.1062 -0.0132
  607ERGO    R3 8896   2.417   8.463   9.097 -0.0305 -0.2691 -0.0928
  607ERGO    R4 8897   2.455   8.591   8.836  0.4551 -0.0454  0.0741
  607ERGO    R5 8898   2.376   8.391   8.872  0.1350  0.0171 -0.2210
  607ERGO    C1 8899   2.677   8.304   8.654  0.2838 -0.1627  0.0503
  607ERGO    C2 8900   2.683   8.122   8.261 -0.0545  0.0020 -0.1145
  608ERGO   ROH 8901   3.014   2.499   9.883 -0.2096 -0.0507  0.1082
  608ERGO    R1 8902   3.028   2.340   9.649 -0.1370  0.0003  0.0771
  608ERGO    R2 8903   3.109   2.076   9.654  0.0432  0.0493  0.0178
  608ERGO    R3 8904   2.872   2.035   9.527  0.0490 -0.0839  0.0490
  608ERGO    R4 8905   3.034   1.799   9.462  0.1982  0.0509 -0.0460
  608ERGO    R5 8906   2.933   1.931   9.320  0.0811  0.0171  0.0106
  608ERGO    C1 8907   2.768   1.599   9.230  0.2940 -0.0731 -0.0539
  608ERGO    C2 8908   2.703   1.210   9.205 -0.1187  0.0632  0.0457
  609ERGO   ROH 8909  10.441   8.241   9.538  0.0496 -0.1312 -0.0128
  609ERGO    R1 8910  10.417   8.214   9.257 -0.0124 -0.1271 -0.0082
  609ERGO    R2 8911  10.398   8.432   9.088 -0.2129 -0.1254  0.0117
  609ERGO    R3 8912  10.609   8.313   8.965 -0.1640  0.0298 -0.0560
  609ERGO    R4 8913  10.500   8.498   8.764 -0.2923  0.0290  0.0171
  609ERGO    R5 8914  10.537   8.284   8.738 -0.1777  0.0589 -0.0539
  609ERGO    C1 8915  10.757   8.424   8.460 -0.2928  0.2644 -0.0432
  609ERGO    C2 8916  10.799   8.366   8.108 -0.1341 -0.1119  0.0927
  610ERGO   ROH 8917  12.853  11.650   9.909 -0.1667 -0.2587  0.0711
  610ERGO    R1 8918  12.644  11.603   9.723 -0.0718 -0.1440 -0.0666
  610ERGO    R2 8919  12.493  11.807   9.616 -0.0390 -0.0791  0.0071
  610ERGO    R3 8920  12.570  11.698   9.380  0.0887  0.1007 -0.0359
  610ERGO    R4 8921  12.335  11.859   9.313 -0.2237 -0.2997  0.0630
  610ERGO    R5 8922  12.365  11.648   9.267  0.1378 -0.2431  0.0158
  610ERGO    C1 8923  12.316  11.787   8.915 -0.2115 -0.2593  0.0551
  610ERGO    C2 8924  12.151  11.861   8.575  0.1471 -0.1388  0.1845
  611ERGO   ROH 8925   9.902   1.314   9.938  0.1000 -0.0666 -0.1239
  611ERGO    R1 8926   9.762   1.222   9.710  0.0436 -0.0005 -0.1168
  611ERGO    R2 8927   9.694   1.388   9.500  0.0828  0.0390 -0.0994
  611ERGO    R3 8928   9.825   1.201   9.352  0.0009  0.0014 -0.1244
  611ERGO    R4 8929   9.712   1.386   9.155  0.0697  0.0712 -0.0999
  611ERGO    R5 8930   9.686   1.170   9.159 -0.0193  0.0807 -0.1232
  611ERGO    C1 8931   9.845   1.210   8.815 -0.0149  0.0548 -0.1236
  611ERGO    C2 8932  10.009   1.173   8.564  0.1317 -0.3545  0.0083
  612ERGO   ROH 8933  15.657  11.027   9.340 -0.3929 -0.2731  0.0034
  612ERGO    R1 8934  15.740  11.075   9.074 -0.1261 -0.0845  0.1146
  612ERGO    R2 8935  15.682  10.901   8.866  0.1501  0.0133 -0.0600
  612ERGO    R3 8936  15.579  11.125   8.751  0.1915  0.0492 -0.0253
  612ERGO    R4 8937  15.656  10.954   8.526  0.0917  0.0606 -0.0475
  612ERGO    R5 8938  15.715  11.161   8.558  0.1536  0.0320 -0.0463
  612ERGO    C1 8939  15.543  11.195   8.220  0.0967  0.1218 -0.0077
  612ERGO    C2 8940  15.505  11.254   7.883  0.2223  0.0463 -0.3701
  613ERGO   ROH 8941  10.245   1.573   9.828 -0.0032 -0.1555 -0.1210
  613ERGO    R1 8942  10.145   1.522   9.568 -0.0180  0.0167 -0.1494
  613ERGO    R2 8943  10.066   1.725   9.396  0.2139  0.1440 -0.1042
  613ERGO    R3 8944  10.242   1.605   9.227  0.1157  0.0102 -0.1147
  613ERGO    R4 8945  10.061   1.752   9.052  0.0423 -0.0735 -0.1215
  613ERGO    R5 8946  10.111   1.541   9.039  0.0077 -0.0941 -0.0098
  613ERGO    C1 8947  10.223   1.656   8.693 -0.1498 -0.3258 -0.1414
  613ERGO    C2 8948  10.227   1.607   8.373 -0.1283 -0.3153  0.1107
  614ERGO   ROH 8949  12.933  17.372  10.023  0.0244  0.2208 -0.0642
  614ERGO    R1 8950  12.991  17.398   9.748  0.1247 -0.0452 -0.0686
  614ERGO    R2 8951  12.988  17.184   9.574 -0.3828 -0.1219  0.0390
  614ERGO    R3 8952  12.816  17.340   9.434  0.0134  0.2435 -0.0674
  614ERGO    R4 8953  12.955  17.179   9.230 -0.5258 -0.4539  0.0523
  614ERGO    R5 8954  12.937  17.397   9.234  0.1306 -0.3608 -0.1986
  614ERGO    C1 8955  12.773  17.322   8.898 -0.2370 -0.3040 -0.0400
  614ERGO    C2 8956  12.570  17.123   8.735 -0.0205 -0.0366  0.0602
  615ERGO   ROH 8957   4.524  17.165   9.848  0.1738  0.2440  0.0738
  615ERGO    R1 8958   4.478  17.231   9.577  0.1600  0.3545  0.1036
  615ERGO    R2 8959   4.651  17.388   9.430  0.4178 -0.0041  0.0192
  615ERGO    R3 8960   4.647  17.177   9.259 -0.1254  0.0044  0.0024
  615ERGO    R4 8961   4.659  17.413   9.086  0.4805  0.0125  0.0209
  615ERGO    R5 8962   4.513  17.252   9.075  0.0534  0.3745  0.0086
  615ERGO    C1 8963   4.660  17.230   8.724  0.0070  0.0302  0.0060
  615ERGO    C2 8964   4.674  17.488   8.341 -0.0950  0.0176  0.3369
  616ERGO   ROH 8965   0.662   8.946   9.482  0.0858  0.0891  0.0601
  616ERGO    R1 8966   0.582   9.009   9.218  0.0665  0.0907  0.0663
  616ERGO    R2 8967   0.324   9.088   9.155  0.0295 -0.0216  0.0680
  616ERGO    R3 8968   0.452   9.301   9.044 -0.0650  0.0563  0.1065
  616ERGO    R4 8969   0.242   9.231   8.852  0.1388 -0.1700 -0.0333
  616ERGO    R5 8970   0.455   9.252   8.809  0.1526 -0.0034  0.1210
  616ERGO    C1 8971   0.314   9.514   8.570  0.1136 -0.1832 -0.0562
  616ERGO    C2 8972   0.325   9.630   8.185 -0.0988  0.1383 -0.1257
  617ERGO   ROH 8973  13.014  11.230   9.864  0.0851 -0.1419  0.2138
  617ERGO    R1 8974  13.041  11.300   9.591  0.1939 -0.0403  0.2503
  617ERGO    R2 8975  13.287  11.332   9.469  0.2439 -0.3002  0.2835
  617ERGO    R3 8976  13.186  11.151   9.293  0.0182 -0.0823  0.1852
  617ERGO    R4 8977  13.365  11.318   9.132  0.2283 -0.2199  0.2759
  617ERGO    R5 8978  13.155  11.275   9.090  0.1736  0.0635  0.2498
  617ERGO    C1 8979  13.315  11.140   8.771  0.0075  0.0315  0.1791
  617ERGO    C2 8980  13.404  11.050   8.379 -0.0748  0.0241 -0.1545
  618ERGO   ROH 8981   2.757   3.275   9.621 -0.0523 -0.0630  0.0064
  618ERGO    R1 8982   2.653   3.259   9.359 -0.0601  0.0010  0.0036
  618ERGO    R2 8983   2.584   3.482   9.211  0.1125  0.0526 -0.0161
  618ERGO    R3 8984   2.752   3.374   9.028  0.0398 -0.0911  0.0032
  618ERGO    R4 8985   2.562   3.530   8.870  0.2022  0.0652 -0.0190
  618ERGO    R5 8986   2.612   3.320   8.842  0.0240  0.0288 -0.0128
  618ERGO    C1 8987   2.707   3.456   8.499  0.1862 -0.0624 -0.0025
  618ERGO    C2 8988   2.720   3.482   8.082  0.1530  0.2113  0.1360
  619ERGO   ROH 8989   2.508   6.378   9.548 -0.1524 -0.3842  0.0392
  619ERGO    R1 8990   2.411   6.251   9.314 -0.3273 -0.1795 -0.0049
  619ERGO    R2 8991   2.158   6.299   9.213 -0.2668  0.2201 -0.0124
  619ERGO    R3 8992   2.295   6.355   8.985 -0.1583  0.0920  0.0224
  619ERGO    R4 8993   2.042   6.241   8.892 -0.0269 -0.1029 -0.0447
  619ERGO    R5 8994   2.242   6.175   8.837  0.0297 -0.0496  0.1369
  619ERGO    C1 8995   2.103   6.261   8.492  0.2147 -0.4111 -0.0307
  619ERGO    C2 8996   1.899   6.405   8.197  0.0702  0.2161 -0.1231
  620ERGO   ROH 8997   7.095   1.764   9.685  0.0710  0.0881  0.0542
  620ERGO    R1 8998   6.961   1.890   9.470  0.1540  0.0651 -0.0115
  620ERGO    R2 8999   6.734   2.043   9.505  0.0075 -0.1158 -0.1426
  620ERGO    R3 9000   6.879   2.231   9.373 -0.0197  0.0399  0.0457
  620ERGO    R4 9001   6.605   2.263   9.272  0.0595 -0.1975 -0.2493
  620ERGO    R5 9002   6.786   2.234   9.152  0.2192 -0.0125 -0.0579
  620ERGO    C1 9003   6.667   2.569   9.012  0.0642 -0.0989 -0.1347
  620ERGO    C2 9004   6.464   2.776   8.756 -0.1390 -0.0985  0.0246
  621ERGO   ROH 9005   5.548  12.593   9.748 -0.0650 -0.1356 -0.0004
  621ERGO    R1 9006   5.677  12.587   9.496 -0.0919 -0.0946 -0.0163
  621ERGO    R2 9007   5.540  12.546   9.259 -0.1113 -0.1229 -0.0070
  621ERGO    R3 9008   5.663  12.778   9.187 -0.1798 -0.0872 -0.0057
  621ERGO    R4 9009   5.573  12.660   8.934 -0.0195 -0.1680 -0.0134
  621ERGO    R5 9010   5.775  12.725   8.982 -0.0726 -0.0745  0.0551
  621ERGO    C1 9011   5.707  12.944   8.678 -0.0303 -0.1608 -0.0160
  621ERGO    C2 9012   5.687  13.026   8.368  0.1326 -0.2472 -0.0085
  622ERGO   ROH 9013   1.485   2.340   9.731 -0.1229  0.0218  0.0690
  622ERGO    R1 9014   1.489   2.449   9.470 -0.1909  0.0608  0.0839
  622ERGO    R2 9015   1.651   2.349   9.270 -0.2363  0.0960  0.0289
  622ERGO    R3 9016   1.417   2.332   9.133 -0.2698  0.1083  0.0844
  622ERGO    R4 9017   1.622   2.363   8.926 -0.3352  0.2581  0.0429
  622ERGO    R5 9018   1.443   2.486   8.951 -0.3568  0.2038  0.1517
  622ERGO    C1 9019   1.385   2.356   8.597 -0.4243  0.3640  0.1030
  622ERGO    C2 9020   1.264   2.050   8.407 -0.0168  0.0371  0.1253
  623ERGO   ROH 9021  17.788  10.500   9.775  0.0761 -0.1791  0.0343
  623ERGO    R1 9022  17.577  10.451   9.593  0.0664 -0.1122  0.0268
  623ERGO    R2 9023  17.597  10.509   9.323  0.0575 -0.0264  0.0431
  623ERGO    R3 9024  17.528  10.248   9.295  0.0469 -0.0149 -0.0362
  623ERGO    R4 9025  17.531  10.353   9.022  0.0243  0.0720 -0.0005
  623ERGO    R5 9026  17.367  10.247   9.118  0.0311  0.0463 -0.0207
  623ERGO    C1 9027  17.427  10.018   8.820 -0.0052  0.1401 -0.1006
  623ERGO    C2 9028  17.508   9.821   8.634 -0.0520 -0.1188  0.1258
  624ERGO   ROH 9029  16.101   9.044   9.757  0.2784  0.0700 -0.0616
  624ERGO    R1 9030  16.127   9.141   9.492  0.3567 -0.1622 -0.1416
  624ERGO    R2 9031  16.217   8.983   9.284 -0.0213 -0.4832 -0.0720
  624ERGO    R3 9032  15.985   9.063   9.167  0.0741 -0.1275 -0.0294
  624ERGO    R4 9033  16.152   8.970   8.945 -0.0863 -0.3364 -0.0662
  624ERGO    R5 9034  16.054   9.164   8.961  0.1944 -0.1927 -0.0222
  624ERGO    C1 9035  15.896   9.037   8.637 -0.0345  0.0833 -0.0228
  624ERGO    C2 9036  15.664   8.949   8.433 -0.2697  0.2090 -0.0374
  625ERGO   ROH 9037  11.532   9.406   9.427  0.0156  0.2453  0.0552
  625ERGO    R1 9038  11.513   9.545   9.182 -0.0341  0.1747  0.0185
  625ERGO    R2 9039  11.735   9.636   9.045 -0.0667  0.2376  0.0042
  625ERGO    R3 9040  11.627   9.494   8.840  0.0039  0.1368  0.0376
  625ERGO    R4 9041  11.803   9.690   8.710  0.0895  0.0322  0.0009
  625ERGO    R5 9042  11.592   9.657   8.667  0.1055  0.0407 -0.0733
  625ERGO    C1 9043  11.741   9.588   8.323  0.2466 -0.1821  0.0303
  625ERGO    C2 9044  11.813   9.627   7.913  0.2096 -0.0106 -0.2080
  626ERGO   ROH 9045  12.882  18.356   9.994  0.2452 -0.3504  0.0611
  626ERGO    R1 9046  12.982  18.473   9.757  0.1341 -0.1814  0.0954
  626ERGO    R2 9047  13.074  18.323   9.544  0.1949 -0.0316  0.0105
  626ERGO    R3 9048  12.894  18.472   9.404  0.0764 -0.0808  0.1100
  626ERGO    R4 9049  12.991  18.273   9.212  0.2483  0.1410 -0.0292
  626ERGO    R5 9050  12.989  18.489   9.185  0.0684  0.1574  0.1258
  626ERGO    C1 9051  12.775  18.384   8.887  0.1679  0.1952  0.0412
  626ERGO    C2 9052  12.730  18.082   8.591 -0.2294  0.0568  0.1665
  627ERGO   ROH 9053   0.943   1.138   9.838  0.3212 -0.0480 -0.1131
  627ERGO    R1 9054   0.825   1.035   9.602  0.0298  0.0455 -0.0132
  627ERGO    R2 9055   0.740   1.198   9.395  0.1307  0.1075 -0.0092
  627ERGO    R3 9056   0.901   1.037   9.246 -0.1815 -0.1663 -0.0617
  627ERGO    R4 9057   0.726   1.169   9.051 -0.0351  0.1162 -0.0035
  627ERGO    R5 9058   0.758   0.954   9.073 -0.3800  0.0605 -0.0098
  627ERGO    C1 9059   0.869   1.001   8.711 -0.4247 -0.1358 -0.0495
  627ERGO    C2 9060   0.920   1.177   8.413 -0.1363  0.4741  0.1018
  628ERGO   ROH 9061   1.467   4.976   9.893 -0.0105 -0.0177  0.1590
  628ERGO    R1 9062   1.331   5.008   9.647  0.0606  0.0681  0.1297
  628ERGO    R2 9063   1.390   5.213   9.470  0.2206  0.0415  0.1423
  628ERGO    R3 9064   1.420   5.008   9.294  0.1400  0.0227  0.1513
  628ERGO    R4 9065   1.304   5.225   9.135  0.1368  0.0143  0.1628
  628ERGO    R5 9066   1.228   5.022   9.152  0.1111  0.0347  0.2000
  628ERGO    C1 9067   1.283   5.040   8.775  0.0124 -0.0192  0.1833
  628ERGO    C2 9068   1.378   5.079   8.430 -0.0339  0.1745 -0.1292
  629ERGO   ROH 9069   7.846   9.629   9.581 -0.0310 -0.1911 -0.2222
  629ERGO    R1 9070   7.997   9.716   9.359  0.0699 -0.1307 -0.1308
  629ERGO    R2 9071   8.058   9.550   9.146  0.1522 -0.0689 -0.1550
  629ERGO    R3 9072   7.944   9.749   9.000  0.2261 -0.0178 -0.1444
  629ERGO    R4 9073   8.036   9.554   8.801 -0.1649 -0.2150 -0.1400
  629ERGO    R5 9074   8.083   9.767   8.805  0.0669 -0.2599 -0.2851
  629ERGO    C1 9075   7.916   9.742   8.463 -0.2802 -0.2521 -0.1214
  629ERGO    C2 9076   8.082   9.735   8.052  0.2848  0.2424 -0.2906
  630ERGO   ROH 9077  17.722  14.495  10.103  0.0175  0.2433  0.0648
  630ERGO    R1 9078  17.704  14.440   9.825  0.0446  0.1920  0.0724
  630ERGO    R2 9079  17.906  14.505   9.648  0.0633  0.1619  0.0772
  630ERGO    R3 9080  17.890  14.241   9.583  0.0713  0.1495  0.1289
  630ERGO    R4 9081  17.987  14.372   9.339  0.0182  0.1050  0.0903
  630ERGO    R5 9082  17.814  14.241   9.356  0.0335  0.0976  0.1443
  630ERGO    C1 9083  18.019  14.047   9.099 -0.0006  0.0599  0.1465
  630ERGO    C2 9084  18.290  13.927   8.864  0.1160  0.0042 -0.1193
  631ERGO   ROH 9085   6.710   9.124   7.942  0.2245  0.0619  0.1362
  631ERGO    R1 9086   6.949   9.049   7.811  0.1295  0.1373 -0.0829
  631ERGO    R2 9087   7.016   8.786   7.762  0.2629  0.1505  0.0474
  631ERGO    R3 9088   7.039   8.873   7.506 -0.0930 -0.0323 -0.0542
  631ERGO    R4 9089   7.130   8.594   7.498  0.3942  0.1040  0.1354
  631ERGO    R5 9090   7.239   8.768   7.425  0.0372  0.2424 -0.1091
  631ERGO    C1 9091   7.218   8.564   7.103  0.1367 -0.0948  0.0914
  631ERGO    C2 9092   7.332   8.548   6.780  0.1760 -0.4147 -0.0250
  632ERGO   ROH 9093  18.180   0.564  10.042 -0.1934 -0.0568  0.0010
  632ERGO    R1 9094  17.965   0.571   9.858 -0.2164  0.0990  0.0324
  632ERGO    R2 9095  17.872   0.807   9.747  0.1312  0.1441 -0.1769
  632ERGO    R3 9096  17.917   0.676   9.513 -0.1088 -0.1550 -0.0625
  632ERGO    R4 9097  17.703   0.865   9.451  0.1440  0.0955 -0.1941
  632ERGO    R5 9098  17.700   0.651   9.415 -0.1717  0.0580  0.0163
  632ERGO    C1 9099  17.648   0.777   9.059 -0.0736 -0.2136 -0.0969
  632ERGO    C2 9100  17.429   0.862   8.782  0.0012  0.0619 -0.2516
  633ERGO   ROH 9101  11.573   4.104   9.395 -0.0888  0.1307  0.0373
  633ERGO    R1 9102  11.601   4.175   9.122 -0.1592  0.2487  0.0602
  633ERGO    R2 9103  11.680   3.994   8.929  0.1903  0.4265  0.0291
  633ERGO    R3 9104  11.451   4.075   8.806  0.0671  0.0657  0.0077
  633ERGO    R4 9105  11.649   4.056   8.590  0.1311  0.4015  0.0297
  633ERGO    R5 9106  11.525   4.229   8.638 -0.1600  0.2024  0.0281
  633ERGO    C1 9107  11.416   4.168   8.278 -0.0190  0.0480  0.0098
  633ERGO    C2 9108  11.544   3.891   7.950 -0.3133 -0.0264 -0.1666
  634ERGO   ROH 9109   1.957  10.520   9.664 -0.0478  0.1618 -0.0857
  634ERGO    R1 9110   1.943  10.407   9.405 -0.1899 -0.3219  0.1211
  634ERGO    R2 9111   1.743  10.232   9.329 -0.7039  0.1478  0.3298
  634ERGO    R3 9112   1.708  10.411   9.127  0.0304 -0.1140 -0.0681
  634ERGO    R4 9113   1.543  10.180   9.052 -0.7954  0.2867  0.3684
  634ERGO    R5 9114   1.696  10.276   8.929 -0.3722 -0.5093  0.2050
  634ERGO    C1 9115   1.393  10.318   8.701 -0.1594  0.1219  0.0174
  634ERGO    C2 9116   1.302  10.384   8.368  0.1181  0.0659  0.1339
  635ERGO   ROH 9117   4.174  15.140   9.888 -0.0150  0.1209 -0.0274
  635ERGO    R1 9118   4.260  15.063   9.629  0.0643  0.0816  0.0098
  635ERGO    R2 9119   4.082  14.998   9.427  0.1241  0.1067 -0.0521
  635ERGO    R3 9120   4.219  15.188   9.290  0.2193  0.0652 -0.0152
  635ERGO    R4 9121   4.092  15.024   9.083  0.3321  0.0270 -0.0535
  635ERGO    R5 9122   4.304  15.074   9.098  0.3267  0.0155  0.0613
  635ERGO    C1 9123   4.227  15.219   8.753  0.5425 -0.0582 -0.0197
  635ERGO    C2 9124   4.089  15.269   8.526 -0.0546 -0.0221 -0.0925
  636ERGO   ROH 9125  15.557   4.541   9.588  0.2295 -0.2545  0.2200
  636ERGO    R1 9126  15.694   4.473   9.349  0.2581 -0.1311  0.2015
  636ERGO    R2 9127  15.562   4.406   9.115  0.2871 -0.2084  0.2129
  636ERGO    R3 9128  15.716   4.604   9.010  0.1305 -0.0861  0.2083
  636ERGO    R4 9129  15.616   4.457   8.778 -0.0240  0.0216  0.1928
  636ERGO    R5 9130  15.824   4.502   8.823  0.0060  0.0641  0.0462
  636ERGO    C1 9131  15.792   4.672   8.483 -0.3521  0.2704  0.1770
  636ERGO    C2 9132  15.787   4.923   8.070 -0.1138 -0.2491  0.0768
  637ERGO   ROH 9133  12.115   8.144   9.585  0.0066 -0.0336 -0.0269
  637ERGO    R1 9134  12.163   8.250   9.327  0.1932 -0.1836 -0.0571
  637ERGO    R2 9135  12.244   8.094   9.114 -0.1746 -0.4106 -0.0415
  637ERGO    R3 9136  12.027   8.203   8.993  0.0281  0.0354 -0.0226
  637ERGO    R4 9137  12.199   8.117   8.772 -0.1362 -0.2580 -0.0367
  637ERGO    R5 9138  12.116   8.316   8.801  0.2460 -0.0968 -0.0006
  637ERGO    C1 9139  11.969   8.233   8.459  0.0766  0.2496 -0.0164
  637ERGO    C2 9140  11.903   8.221   8.126 -0.0600 -0.7194 -0.2143
  638ERGO   ROH 9141  10.577   0.080   9.694 -0.1160 -0.1725  0.0582
  638ERGO    R1 9142  10.518  -0.099   9.482 -0.0558 -0.1133 -0.0090
  638ERGO    R2 9143  10.428  -0.013   9.236 -0.1010 -0.0515  0.0294
  638ERGO    R3 9144  10.639  -0.158   9.144 -0.0481  0.0661 -0.0389
  638ERGO    R4 9145  10.465  -0.124   8.910 -0.1435 -0.0308  0.0171
  638ERGO    R5 9146  10.542  -0.313   8.989 -0.0124  0.0113 -0.0073
  638ERGO    C1 9147  10.685  -0.325   8.635 -0.1188  0.0917 -0.0541
  638ERGO    C2 9148  10.704  -0.462   8.302  0.1127 -0.1504  0.0996
  639ERGO   ROH 9149  16.587  10.493   9.725  0.2054  0.1881  0.0036
  639ERGO    R1 9150  16.538  10.364   9.478  0.2240  0.1248  0.0319
  639ERGO    R2 9151  16.356  10.460   9.294 -0.0220 -0.1076  0.1385
  639ERGO    R3 9152  16.569  10.447   9.125 -0.0987  0.1773  0.0154
  639ERGO    R4 9153  16.333  10.445   8.949 -0.2057 -0.4622  0.1609
  639ERGO    R5 9154  16.496  10.300   8.949  0.0920 -0.1296  0.1923
  639ERGO    C1 9155  16.520  10.425   8.590 -0.3849 -0.4012  0.0583
  639ERGO    C2 9156  16.512  10.521   8.231 -0.1542  0.2619 -0.1065
  640ERGO   ROH 9157   8.345  15.095  10.018 -0.2396  0.1904 -0.0965
  640ERGO    R1 9158   8.339  15.027   9.743 -0.1472  0.0561 -0.0663
  640ERGO    R2 9159   8.141  15.114   9.572 -0.0817 -0.0119 -0.1815
  640ERGO    R3 9160   8.352  15.205   9.426 -0.0221 -0.0988 -0.1493
  640ERGO    R4 9161   8.163  15.101   9.227  0.0223 -0.1313 -0.1707
  640ERGO    R5 9162   8.373  15.046   9.247  0.0050 -0.1612 -0.0893
  640ERGO    C1 9163   8.373  15.178   8.889  0.1387 -0.2825 -0.1341
  640ERGO    C2 9164   8.417  15.269   8.602 -0.0974 -0.0020 -0.0539
  641ERGO   ROH 9165   3.469   5.914   9.541 -0.1777 -0.0117  0.0230
  641ERGO    R1 9166   3.297   5.844   9.327 -0.0277 -0.0191 -0.0957
  641ERGO    R2 9167   3.277   5.995   9.097  0.0946 -0.0001 -0.0892
  641ERGO    R3 9168   3.335   5.759   8.975  0.2111  0.0241 -0.0839
  641ERGO    R4 9169   3.226   5.927   8.762 -0.2963 -0.1682 -0.0016
  641ERGO    R5 9170   3.157   5.728   8.818  0.0165 -0.2399  0.1698
  641ERGO    C1 9171   3.250   5.666   8.453 -0.4147 -0.2434  0.0545
  641ERGO    C2 9172   3.239   5.510   8.066  0.4258  0.2146 -0.0662
  642ERGO   ROH 9173   4.682   1.116  10.026  0.0453 -0.0872  0.0101
  642ERGO    R1 9174   4.848   1.306   9.898 -0.1805  0.0785 -0.0397
  642ERGO    R2 9175   5.076   1.235   9.758  0.0508  0.3315  0.2097
  642ERGO    R3 9176   4.958   1.375   9.557 -0.0340 -0.0577 -0.0229
  642ERGO    R4 9177   5.241   1.368   9.485  0.0565  0.3484  0.2201
  642ERGO    R5 9178   5.116   1.545   9.502 -0.2677  0.1644 -0.0488
  642ERGO    C1 9179   5.226   1.576   9.138 -0.0199 -0.0071  0.0077
  642ERGO    C2 9180   5.183   1.450   8.805 -0.1598 -0.4786  0.0772
  643ERGO   ROH 9181   6.591   5.331   9.542 -0.0757  0.2514  0.0697
  643ERGO    R1 9182   6.597   5.436   9.279 -0.0832  0.2167  0.0542
  643ERGO    R2 9183   6.815   5.405   9.111 -0.0552  0.2538  0.0717
  643ERGO    R3 9184   6.629   5.302   8.942 -0.0163  0.1741  0.0793
  643ERGO    R4 9185   6.810   5.454   8.769 -0.0968  0.2398  0.0714
  643ERGO    R5 9186   6.594   5.475   8.780 -0.0981  0.1482  0.0774
  643ERGO    C1 9187   6.632   5.386   8.411 -0.0846  0.1568  0.0785
  643ERGO    C2 9188   6.500   5.303   8.135 -0.1941  0.0214 -0.1725
  644ERGO   ROH 9189  15.802   2.877   9.884 -0.0552 -0.1689  0.0230
  644ERGO    R1 9190  15.660   2.917   9.643 -0.0592 -0.0983  0.0369
  644ERGO    R2 9191  15.743   3.096   9.449 -0.0392 -0.0735  0.0690
  644ERGO    R3 9192  15.727   2.878   9.287 -0.0813 -0.0384  0.0259
  644ERGO    R4 9193  15.706   3.109   9.106  0.0018  0.0038  0.0673
  644ERGO    R5 9194  15.567   2.941   9.120 -0.0464  0.0385  0.0202
  644ERGO    C1 9195  15.670   2.912   8.753 -0.0137  0.0817  0.0258
  644ERGO    C2 9196  15.520   3.011   8.428 -0.3140 -0.2048 -0.0859
  645ERGO   ROH 9197   1.149   6.357   9.885  0.0156 -0.1383 -0.0828
  645ERGO    R1 9198   1.183   6.398   9.607 -0.0535 -0.2078 -0.1019
  645ERGO    R2 9199   1.431   6.422   9.489 -0.0872  0.0095 -0.1345
  645ERGO    R3 9200   1.340   6.220   9.330  0.1083 -0.1484 -0.0486
  645ERGO    R4 9201   1.549   6.353   9.171 -0.2233  0.1834 -0.2245
  645ERGO    R5 9202   1.344   6.313   9.109 -0.2154 -0.1512 -0.0593
  645ERGO    C1 9203   1.534   6.124   8.838 -0.1190  0.1365 -0.1963
  645ERGO    C2 9204   1.554   6.154   8.522 -0.1617  0.1407 -0.0159
  646ERGO   ROH 9205  13.144   6.784   9.491  0.1328 -0.0591  0.1325
  646ERGO    R1 9206  13.090   6.712   9.222  0.0907 -0.0348  0.1360
  646ERGO    R2 9207  12.987   6.892   9.039  0.1681  0.0066  0.1456
  646ERGO    R3 9208  13.204   6.817   8.893  0.1235 -0.0913  0.1259
  646ERGO    R4 9209  13.007   6.904   8.694  0.0870 -0.0882  0.1362
  646ERGO    R5 9210  13.112   6.713   8.698  0.0439 -0.1246  0.1706
  646ERGO    C1 9211  13.223   6.842   8.356 -0.0022 -0.2354  0.1121
  646ERGO    C2 9212  13.217   6.998   8.124  0.2017 -0.3663 -0.0331
  647ERGO   ROH 9213   9.444  18.206   9.995 -0.1798  0.1158 -0.0826
  647ERGO    R1 9214   9.634  18.071   9.834 -0.0364  0.2552 -0.0331
  647ERGO    R2 9215   9.603  17.807   9.758  0.2600  0.1781  0.0973
  647ERGO    R3 9216   9.637  17.909   9.508  0.1182  0.0994  0.0447
  647ERGO    R4 9217   9.690  17.623   9.478  0.4545  0.1472  0.1764
  647ERGO    R5 9218   9.821  17.786   9.418  0.2573  0.2733  0.0885
  647ERGO    C1 9219   9.773  17.612   9.082  0.4347  0.0555  0.1731
  647ERGO    C2 9220   9.916  17.511   8.855  0.0868 -0.1341  0.0655
  648ERGO   ROH 9221  10.826   8.766   9.841 -0.0979  0.0653  0.0321
  648ERGO    R1 9222  10.874   8.659   9.583 -0.0054  0.0991  0.0346
  648ERGO    R2 9223  10.698   8.690   9.373 -0.0506 -0.0833  0.0402
  648ERGO    R3 9224  10.917   8.789   9.246 -0.1504  0.1274  0.0273
  648ERGO    R4 9225  10.705   8.796   9.044 -0.1337 -0.2017 -0.0000
  648ERGO    R5 9226  10.900   8.702   9.023 -0.0208  0.0215  0.0598
  648ERGO    C1 9227  10.914   8.950   8.733 -0.2757 -0.0729 -0.0356
  648ERGO    C2 9228  11.113   8.910   8.411  0.1676  0.1645 -0.1534
  649ERGO   ROH 9229  15.156  12.876   9.394 -0.1074 -0.3048  0.0037
  649ERGO    R1 9230  15.294  12.796   9.160 -0.0731 -0.1337 -0.0363
  649ERGO    R2 9231  15.350  12.531   9.103  0.1374 -0.0768 -0.1103
  649ERGO    R3 9232  15.224  12.588   8.869  0.0558 -0.1207 -0.0770
  649ERGO    R4 9233  15.452  12.422   8.791  0.0436 -0.1081 -0.1302
  649ERGO    R5 9234  15.401  12.618   8.711 -0.0007 -0.1255 -0.1398
  649ERGO    C1 9235  15.393  12.412   8.391 -0.0875 -0.1677 -0.1104
  649ERGO    C2 9236  15.340  12.464   8.031 -0.1610 -0.0542 -0.3234
  650ERGO   ROH 9237   7.919   6.253   9.810 -0.2652 -0.0624  0.0479
  650ERGO    R1 9238   7.935   6.372   9.554 -0.2404 -0.0235  0.0679
  650ERGO    R2 9239   8.135   6.311   9.373 -0.0878  0.1779  0.1673
  650ERGO    R3 9240   7.926   6.258   9.208  0.0463 -0.0004  0.0497
  650ERGO    R4 9241   8.149   6.321   9.028  0.0594  0.3507  0.1761
  650ERGO    R5 9242   7.952   6.414   9.028 -0.0568  0.1161  0.1322
  650ERGO    C1 9243   7.961   6.276   8.672  0.2711  0.2840  0.0709
  650ERGO    C2 9244   7.974   6.291   8.412 -0.0394  0.3325  0.1567
  651ERGO   ROH 9245  10.403   5.088   9.681 -0.0310  0.3651  0.1868
  651ERGO    R1 9246  10.439   5.064   9.401 -0.0281  0.2637  0.1954
  651ERGO    R2 9247  10.314   5.230   9.220 -0.1151  0.1284  0.1266
  651ERGO    R3 9248  10.568   5.272   9.132 -0.1369  0.2131  0.1039
  651ERGO    R4 9249  10.402   5.280   8.890 -0.1400  0.0115  0.1020
  651ERGO    R5 9250  10.578   5.155   8.923 -0.0780  0.1169  0.1616
  651ERGO    C1 9251  10.692   5.349   8.614 -0.1748  0.0230  0.0664
  651ERGO    C2 9252  10.795   5.526   8.272 -0.1856 -0.0772  0.1370
  652ERGO   ROH 9253  14.956  11.453   9.747 -0.1143  0.0732  0.0377
  652ERGO    R1 9254  14.885  11.634   9.542  0.0413  0.1551  0.0558
  652ERGO    R2 9255  15.052  11.691   9.329 -0.0070 -0.1581 -0.0644
  652ERGO    R3 9256  14.835  11.619   9.181 -0.2305  0.1716  0.0890
  652ERGO    R4 9257  15.002  11.773   8.996  0.1362 -0.4818 -0.1697
  652ERGO    R5 9258  14.792  11.809   9.041  0.2157  0.1067 -0.1608
  652ERGO    C1 9259  14.770  11.752   8.665  0.0098 -0.3608 -0.0870
  652ERGO    C2 9260  14.418  11.775   8.403  0.0094 -0.2417  0.2073
  653ERGO   ROH 9261   9.036   6.109   9.544  0.1308 -0.1417  0.1028
  653ERGO    R1 9262   8.960   6.118   9.272  0.0165 -0.2508  0.1300
  653ERGO    R2 9263   9.123   6.225   9.076 -0.1873 -0.0590  0.0630
  653ERGO    R3 9264   9.085   5.983   8.958  0.0685 -0.1150  0.0904
  653ERGO    R4 9265   9.199   6.152   8.746 -0.2817  0.0490  0.0172
  653ERGO    R5 9266   9.014   6.036   8.735 -0.1386 -0.2048  0.1299
  653ERGO    C1 9267   9.207   5.882   8.444 -0.0965  0.0592  0.0160
  653ERGO    C2 9268   9.249   5.851   8.074  0.4452  0.1346  0.2730
  654ERGO   ROH 9269  17.250  15.227   9.757  0.0061 -0.2277 -0.1138
  654ERGO    R1 9270  17.120  15.347   9.536 -0.0168 -0.1777 -0.0725
  654ERGO    R2 9271  17.246  15.390   9.294 -0.0499 -0.1426 -0.0792
  654ERGO    R3 9272  17.034  15.251   9.195 -0.0744 -0.1062 -0.0799
  654ERGO    R4 9273  17.187  15.333   8.958 -0.0546 -0.1230 -0.0822
  654ERGO    R5 9274  16.975  15.368   8.995 -0.0532 -0.0874 -0.0794
  654ERGO    C1 9275  16.954  15.170   8.670 -0.0803 -0.0774 -0.0846
  654ERGO    C2 9276  16.988  15.115   8.296 -0.1992  0.1685  0.2091
  655ERGO   ROH 9277   5.558   5.624   9.438 -0.0642 -0.1237  0.0096
  655ERGO    R1 9278   5.640   5.818   9.249 -0.0156 -0.2213 -0.0705
  655ERGO    R2 9279   5.642   5.769   8.976 -0.1988 -0.2747 -0.0640
  655ERGO    R3 9280   5.489   5.993   8.968 -0.0320 -0.1580 -0.0217
  655ERGO    R4 9281   5.685   6.031   8.755  0.0214 -0.2415  0.0158
  655ERGO    R5 9282   5.643   6.169   8.917  0.1033 -0.2559  0.0477
  655ERGO    C1 9283   5.567   6.394   8.618  0.3063 -0.1126  0.1019
  655ERGO    C2 9284   5.584   6.618   8.240  0.4298 -0.2004 -0.2423
  656ERGO   ROH 9285   6.761  16.281   9.927  0.1294  0.2728  0.0024
  656ERGO    R1 9286   6.919  16.300   9.693  0.0309  0.3838 -0.0546
  656ERGO    R2 9287   6.933  16.096   9.507  0.2457  0.3209  0.0368
  656ERGO    R3 9288   6.861  16.293   9.334 -0.0732  0.1475 -0.0370
  656ERGO    R4 9289   6.921  16.061   9.163  0.1719  0.1261  0.0569
  656ERGO    R5 9290   7.005  16.262   9.145 -0.0906  0.2376 -0.0720
  656ERGO    C1 9291   6.846  16.226   8.800 -0.1704 -0.1502 -0.0006
  656ERGO    C2 9292   6.913  16.195   8.453 -0.0217 -0.2914  0.1348
  657ERGO   ROH 9293  13.786  15.175  10.086  0.2193  0.1106  0.0845
  657ERGO    R1 9294  13.916  15.282   9.859  0.1221  0.0114 -0.0220
  657ERGO    R2 9295  13.870  15.190   9.603 -0.0493 -0.0497  0.0216
  657ERGO    R3 9296  13.817  15.452   9.552 -0.0090 -0.0498 -0.0119
  657ERGO    R4 9297  13.886  15.338   9.291 -0.0351 -0.0857  0.0070
  657ERGO    R5 9298  13.976  15.513   9.384 -0.0088 -0.0924 -0.0206
  657ERGO    C1 9299  13.845  15.670   9.062  0.0111 -0.1068 -0.0332
  657ERGO    C2 9300  13.738  15.916   8.873  0.3033  0.2164  0.0939
  658ERGO   ROH 9301   1.074  16.418  10.251 -0.0332 -0.1337 -0.0351
  658ERGO    R1 9302   1.149  16.446   9.979  0.0152 -0.0110 -0.0094
  658ERGO    R2 9303   1.246  16.235   9.829  0.0300  0.0552 -0.0900
  658ERGO    R3 9304   1.045  16.305   9.660  0.0643  0.1433 -0.0952
  658ERGO    R4 9305   1.266  16.224   9.484 -0.0229 -0.1364 -0.0883
  658ERGO    R5 9306   1.157  16.413   9.477  0.1356 -0.0421 -0.1660
  658ERGO    C1 9307   1.089  16.284   9.125 -0.0214 -0.1654 -0.0921
  658ERGO    C2 9308   0.942  16.235   8.800  0.0834 -0.0778  0.3813
  659ERGO   ROH 9309  15.561   7.145   9.193 -0.2151  0.0490  0.1238
  659ERGO    R1 9310  15.517   7.194   8.918  0.0255  0.0771  0.0889
  659ERGO    R2 9311  15.268   7.254   8.815  0.0838 -0.0798 -0.1466
  659ERGO    R3 9312  15.398   7.471   8.714  0.0307  0.0362  0.0287
  659ERGO    R4 9313  15.157   7.444   8.549  0.1351 -0.0192 -0.1252
  659ERGO    R5 9314  15.363   7.456   8.478  0.1747  0.1224 -0.0014
  659ERGO    C1 9315  15.214   7.759   8.299  0.1150  0.1250  0.0517
  659ERGO    C2 9316  15.019   7.789   8.016 -0.0663  0.1099  0.3260
  660ERGO   ROH 9317   1.430  12.277   9.742  0.0886  0.1158 -0.0540
  660ERGO    R1 9318   1.250  12.388   9.554  0.0944  0.0543 -0.0945
  660ERGO    R2 9319   1.326  12.455   9.297  0.0594 -0.1881 -0.1632
  660ERGO    R3 9320   1.117  12.295   9.228 -0.0404 -0.1376  0.0107
  660ERGO    R4 9321   1.122  12.504   9.022  0.1369 -0.3809 -0.2580
  660ERGO    R5 9322   0.951  12.447   9.145  0.0735 -0.1150 -0.2006
  660ERGO    C1 9323   0.807  12.382   8.798  0.0882 -0.4456 -0.1499
  660ERGO    C2 9324   0.617  12.411   8.464  0.0545 -0.2022  0.1182
  661ERGO   ROH 9325  12.578  10.667   9.862  0.0836  0.5178 -0.0239
  661ERGO    R1 9326  12.437  10.559   9.642  0.3006  0.2012 -0.0157
  661ERGO    R2 9327  12.201  10.668   9.548  0.0277 -0.3167  0.0031
  661ERGO    R3 9328  12.336  10.672   9.311  0.0161 -0.0063 -0.0005
  661ERGO    R4 9329  12.059  10.613   9.238  0.1047 -0.3274 -0.0292
  661ERGO    R5 9330  12.235  10.497   9.182  0.2493 -0.0612 -0.1003
  661ERGO    C1 9331  12.102  10.584   8.836  0.1386 -0.0422 -0.0514
  661ERGO    C2 9332  12.038  10.628   8.472  0.1705  0.1331 -0.0441
  662ERGO   ROH 9333  16.592   7.090   9.471 -0.2509  0.2600  0.1591
  662ERGO    R1 9334  16.679   7.121   9.204 -0.0565  0.2159  0.2152
  662ERGO    R2 9335  16.648   6.924   9.013  0.1199  0.1669  0.2332
  662ERGO    R3 9336  16.524   7.122   8.874  0.1871  0.1163  0.0993
  662ERGO    R4 9337  16.677   6.974   8.672  0.0954 -0.0971  0.1899
  662ERGO    R5 9338  16.685   7.189   8.710  0.1915 -0.0736  0.0274
  662ERGO    C1 9339  16.578   7.190   8.344  0.1441 -0.2985  0.0390
  662ERGO    C2 9340  16.595   7.428   8.046  0.2876  0.2136 -0.0818
  663ERGO   ROH 9341   9.533  16.972   9.875 -0.0085 -0.0344  0.0964
  663ERGO    R1 9342   9.519  16.812   9.642  0.0432  0.0288  0.0481
  663ERGO    R2 9343   9.291  16.797   9.486  0.0036 -0.0889  0.1056
  663ERGO    R3 9344   9.463  16.866   9.287 -0.1004  0.1074  0.0833
  663ERGO    R4 9345   9.244  16.728   9.151  0.0584 -0.1623  0.1136
  663ERGO    R5 9346   9.456  16.681   9.135  0.1101  0.0937  0.0937
  663ERGO    C1 9347   9.377  16.752   8.769 -0.0073 -0.0209  0.0974
  663ERGO    C2 9348   9.341  16.588   8.416  0.0452  0.3222 -0.2875
  664ERGO   ROH 9349  18.440  10.879   9.774  0.0466 -0.0246 -0.1287
  664ERGO    R1 9350  18.531  10.793   9.520  0.0430 -0.0693 -0.1169
  664ERGO    R2 9351  18.369  10.789   9.297  0.0364 -0.1032 -0.1228
  664ERGO    R3 9352  18.569  10.938   9.189  0.0392 -0.1208 -0.1371
  664ERGO    R4 9353  18.459  10.785   8.963  0.0943 -0.1796 -0.1051
  664ERGO    R5 9354  18.668  10.794   9.025  0.0758 -0.1476 -0.0813
  664ERGO    C1 9355  18.699  10.923   8.667  0.1308 -0.2407 -0.1083
  664ERGO    C2 9356  18.702  11.043   8.387 -0.2102 -0.1530  0.1773
  665ERGO   ROH 9357  13.119   5.083   9.533 -0.3203 -0.0732 -0.0122
  665ERGO    R1 9358  13.093   5.231   9.293 -0.2092 -0.1168 -0.0513
  665ERGO    R2 9359  13.309   5.292   9.132 -0.1161 -0.0352  0.1055
  665ERGO    R3 9360  13.158   5.174   8.939  0.0859 -0.1311  0.0023
  665ERGO    R4 9361  13.291   5.397   8.803  0.0501 -0.0521  0.0899
  665ERGO    R5 9362  13.077   5.356   8.807  0.0681 -0.1802 -0.0571
  665ERGO    C1 9363  13.139   5.347   8.431  0.3366 -0.1520 -0.0161
  665ERGO    C2 9364  12.986   5.471   8.212 -0.2079 -0.1364 -0.0415
  666ERGO   ROH 9365  11.006  17.203  10.041 -0.0497 -0.0534  0.0339
  666ERGO    R1 9366  10.840  17.118   9.828  0.0165 -0.0395 -0.0238
  666ERGO    R2 9367  10.930  17.101   9.568  0.0947 -0.0091 -0.0013
  666ERGO    R3 9368  10.838  16.846   9.587  0.1018 -0.0154 -0.0509
  666ERGO    R4 9369  10.966  16.860   9.323  0.2914 -0.0278  0.0449
  666ERGO    R5 9370  10.763  16.793   9.365  0.2679 -0.0404 -0.1004
  666ERGO    C1 9371  10.902  16.479   9.199  0.4126 -0.0444  0.0252
  666ERGO    C2 9372  11.097  16.150   9.071  0.1012 -0.4020  0.4228
  667ERGO   ROH 9373  17.911   5.397   9.691  0.1142  0.1922 -0.1866
  667ERGO    R1 9374  17.949   5.273   9.440 -0.0032  0.0238 -0.1239
  667ERGO    R2 9375  17.811   5.046   9.363 -0.2477  0.1322 -0.0210
  667ERGO    R3 9376  17.745   5.199   9.148 -0.0669  0.1011 -0.0990
  667ERGO    R4 9377  17.772   4.928   9.040 -0.2200  0.0427  0.0088
  667ERGO    R5 9378  17.873   5.107   8.968 -0.0699 -0.0541 -0.0222
  667ERGO    C1 9379  17.689   5.003   8.651 -0.0341 -0.0386 -0.0471
  667ERGO    C2 9380  17.747   4.825   8.368 -0.0966 -0.0702  0.2631
  668ERGO   ROH 9381   3.459   9.919   9.626 -0.1004 -0.2168 -0.0700
  668ERGO    R1 9382   3.679   9.922   9.447 -0.1891 -0.0332 -0.1783
  668ERGO    R2 9383   3.813   9.692   9.373  0.0309  0.0916 -0.1586
  668ERGO    R3 9384   3.757   9.779   9.122 -0.1864 -0.0612 -0.1668
  668ERGO    R4 9385   3.991   9.605   9.090 -0.1792 -0.0486 -0.2511
  668ERGO    R5 9386   3.972   9.811   9.021 -0.2661 -0.0862 -0.3566
  668ERGO    C1 9387   4.042   9.637   8.689 -0.5055 -0.2737 -0.3128
  668ERGO    C2 9388   4.230   9.617   8.470  0.1542  0.0358 -0.1567
  669ERGO   ROH 9389   4.455  11.631   9.737 -0.2938  0.0899  0.1809
  669ERGO    R1 9390   4.387  11.643   9.463 -0.0710  0.0478  0.1229
  669ERGO    R2 9391   4.149  11.751   9.373 -0.0502 -0.0781 -0.0775
  669ERGO    R3 9392   4.313  11.904   9.220 -0.0031  0.0027  0.0515
  669ERGO    R4 9393   4.079  11.855   9.051  0.2010 -0.2209 -0.1817
  669ERGO    R5 9394   4.287  11.817   8.999  0.2897 -0.0818  0.0441
  669ERGO    C1 9395   4.192  12.059   8.720  0.3916 -0.2281 -0.1212
  669ERGO    C2 9396   4.272  12.139   8.350 -0.3090  0.0195 -0.0619
  670ERGO   ROH 9397  17.716   6.995   9.592 -0.0931 -0.3220 -0.1847
  670ERGO    R1 9398  17.668   7.027   9.314 -0.2605 -0.1551 -0.1408
  670ERGO    R2 9399  17.523   7.239   9.212 -0.1673  0.0186  0.0533
  670ERGO    R3 9400  17.745   7.276   9.060 -0.2351 -0.0958 -0.0720
  670ERGO    R4 9401  17.549   7.465   8.952 -0.1472  0.0905  0.1198
  670ERGO    R5 9402  17.661   7.315   8.839 -0.3351  0.0506 -0.0023
  670ERGO    C1 9403  17.773   7.632   8.658 -0.1991  0.0249  0.0409
  670ERGO    C2 9404  17.620   7.823   8.376 -0.1342 -0.3866 -0.1182
  671ERGO   ROH 9405  16.580   5.664   9.522 -0.2034  0.1825  0.1050
  671ERGO    R1 9406  16.513   5.665   9.247 -0.1829  0.2968  0.0989
  671ERGO    R2 9407  16.477   5.898   9.103  0.1400  0.3664  0.1133
  671ERGO    R3 9408  16.663   5.787   8.939  0.0102  0.1268  0.1245
  671ERGO    R4 9409  16.547   6.007   8.783  0.0326  0.0177 -0.0323
  671ERGO    R5 9410  16.564   5.798   8.721 -0.0881 -0.0471  0.1629
  671ERGO    C1 9411  16.762   5.966   8.442 -0.1517 -0.4103 -0.1066
  671ERGO    C2 9412  16.844   5.927   8.101  0.1201  0.0374  0.1011
  672ERGO   ROH 9413  12.352  12.455   9.946  0.2145 -0.1046 -0.0135
  672ERGO    R1 9414  12.426  12.422   9.675  0.0124 -0.2293 -0.0549
  672ERGO    R2 9415  12.265  12.292   9.491 -0.3222  0.0623  0.0263
  672ERGO    R3 9416  12.295  12.523   9.351  0.0172  0.0192  0.0180
  672ERGO    R4 9417  12.243  12.319   9.147 -0.2476  0.0724  0.0216
  672ERGO    R5 9418  12.411  12.458   9.152 -0.0486 -0.1577  0.0331
  672ERGO    C1 9419  12.259  12.552   8.816  0.1143  0.0376  0.0112
  672ERGO    C2 9420  12.276  12.475   8.464 -0.3441 -0.1527 -0.0884
  673ERGO   ROH 9421  11.998   0.398   9.723  0.0645 -0.1088 -0.1716
  673ERGO    R1 9422  11.898   0.373   9.459  0.0842 -0.0937 -0.1803
  673ERGO    R2 9423  11.900   0.583   9.279  0.0179 -0.0593 -0.1390
  673ERGO    R3 9424  12.031   0.404   9.122  0.0868  0.0176 -0.1700
  673ERGO    R4 9425  11.911   0.595   8.934 -0.1021 -0.0683 -0.1440
  673ERGO    R5 9426  11.889   0.378   8.930  0.0400 -0.0861 -0.1237
  673ERGO    C1 9427  12.041   0.435   8.585 -0.1072 -0.0013 -0.1759
  673ERGO    C2 9428  12.259   0.343   8.275  0.1497 -0.0694 -0.0388
  674ERGO   ROH 9429   7.403  13.967  10.057  0.0691 -0.1390  0.0034
  674ERGO    R1 9430   7.399  13.770   9.855  0.1567 -0.1139 -0.0237
  674ERGO    R2 9431   7.202  13.758   9.662  0.1529 -0.1839 -0.0171
  674ERGO    R3 9432   7.413  13.763   9.491  0.1440 -0.0566 -0.0252
  674ERGO    R4 9433   7.188  13.667   9.329  0.2415 -0.4080  0.0387
  674ERGO    R5 9434   7.382  13.570   9.353  0.3522 -0.1804  0.0954
  674ERGO    C1 9435   7.378  13.619   8.974  0.2847 -0.4191  0.0636
  674ERGO    C2 9436   7.400  13.466   8.596  0.0700  0.0851 -0.0504
  675loPI    C1 9437  10.137   9.865   4.960 -0.3865 -0.0295  0.0320
  675loPI    C2 9438  10.264  10.186   4.758  0.1911 -0.2400  0.0409
  675loPI    C3 9439  10.163   9.853   4.561 -0.2500 -0.1140  0.0428
  675loPI   PO4 9440  10.038  10.042   5.171 -0.5638  0.2151  0.0643
  675loPI   GL1 9441  10.114   9.944   5.527  0.1630 -0.3895  0.0895
  675loPI   GL2 9442  10.014  10.193   5.757 -0.1363 -0.2921 -0.1971
  675loPI   C1A 9443  10.157   9.777   5.931 -0.0467 -0.0010 -0.3426
  675loPI   C2A 9444   9.847   9.732   6.362 -0.2501  0.0679 -0.0041
  675loPI   C3A 9445   9.862   9.802   6.857  0.1839 -0.0591  0.3263
  675loPI   C4A 9446   9.646   9.646   7.170  0.1884 -0.0629 -0.1102
  675loPI   C5A 9447   9.678   9.314   7.520 -0.1025 -0.2065  0.0987
  675loPI   C6A 9448   9.723   8.929   7.533 -0.1296 -0.0814 -0.1725
  675loPI   C1B 9449   9.693  10.207   6.105  0.0467  0.1613 -0.0003
  675loPI   C2B 9450   9.532  10.086   6.512 -0.0283 -0.0586  0.2063
  675loPI   C3B 9451   9.414   9.987   6.921 -0.2667 -0.2052  0.1003
  675loPI   C4B 9452   9.315  10.128   7.352  0.0598  0.3184  0.0823
  676loPI    C1 9453  11.859  17.536   5.704 -0.1021 -0.0304 -0.0211
  676loPI    C2 9454  11.910  17.806   5.414 -0.1740  0.0945  0.0811
  676loPI    C3 9455  12.001  17.422   5.348 -0.1099  0.1361 -0.0783
  676loPI   PO4 9456  12.024  17.691   5.928 -0.2942 -0.2123 -0.1928
  676loPI   GL1 9457  11.884  17.875   6.255  0.3540 -0.2061 -0.0523
  676loPI   GL2 9458  11.623  17.713   6.276 -0.2567 -0.0003 -0.0757
  676loPI   C1A 9459  11.976  17.552   6.574 -0.3303 -0.0879  0.3372
  676loPI   C2A 9460  12.166  17.594   7.046  0.0516  0.1520  0.1600
  676loPI   C3A 9461  12.234  17.730   7.490 -0.1611 -0.1798  0.1287
  676loPI   C4A 9462  12.420  17.623   7.872  0.2679  0.0035 -0.1836
  676loPI   C5A 9463  12.504  17.174   8.059 -0.2394  0.0006  0.2350
  676loPI   C6A 9464  12.791  16.769   8.101  0.0393 -0.2557 -0.0981
  676loPI   C1B 9465  11.588  17.858   6.745 -0.0035 -0.1218  0.1486
  676loPI   C2B 9466  11.732  17.804   7.169  0.3833  0.0277 -0.2311
  676loPI   C3B 9467  11.745  17.867   7.601 -0.3734  0.2144  0.0642
  676loPI   C4B 9468  11.976  18.014   7.840 -0.0782 -0.0231 -0.0043
  677loPI    C1 9469   0.583  18.010   5.727  0.1173  0.0815 -0.1981
  677loPI    C2 9470   0.522  18.333   5.500  0.0148  0.0505 -0.2156
  677loPI    C3 9471   0.562  17.974   5.330  0.1526  0.0565 -0.1978
  677loPI   PO4 9472   0.685  18.143   5.947 -0.1489 -0.2482  0.3272
  677loPI   GL1 9473   0.518  18.312   6.361  0.1904 -0.0798 -0.1357
  677loPI   GL2 9474   0.388  18.027   6.509 -0.2041 -0.1283  0.1837
  677loPI   C1A 9475   0.913  18.363   6.660 -0.0734  0.1998  0.0047
  677loPI   C2A 9476   1.038  18.380   7.055  0.3959 -0.1235  0.1687
  677loPI   C3A 9477   1.129  18.383   7.478  0.0901  0.2663 -0.1111
  677loPI   C4A 9478   1.164  18.376   7.936  0.1060  0.1117 -0.1160
  677loPI   C5A 9479   1.161  18.299   8.427  0.2944  0.1030 -0.1055
  677loPI   C6A 9480   0.932  18.294   8.737 -0.1093  0.0880  0.0102
  677loPI   C1B 9481   0.487  18.260   6.934 -0.0312  0.0111 -0.1544
  677loPI   C2B 9482   0.529  18.362   7.380 -0.0502 -0.1483 -0.2274
  677loPI   C3B 9483   0.672  18.049   7.698 -0.2273 -0.0100  0.0332
  677loPI   C4B 9484   0.962  17.942   8.156 -0.0472 -0.0822  0.2737
  678loPI    C1 9485   4.221   5.402   5.551 -0.2627 -0.0038 -0.0504
  678loPI    C2 9486   4.418   5.749   5.581 -0.2607 -0.0292  0.2531
  678loPI    C3 9487   4.617   5.413   5.495 -0.2834  0.0650 -0.1886
  678loPI   PO4 9488   3.969   5.528   5.492 -0.0985  0.3070 -0.2103
  678loPI   GL1 9489   3.867   5.561   5.837 -0.0361 -0.0156  0.0375
  678loPI   GL2 9490   3.899   5.794   5.939 -0.0240  0.1619  0.1145
  678loPI   C1A 9491   4.268   5.547   6.093 -0.0284 -0.0558  0.0988
  678loPI   C2A 9492   4.367   5.519   6.512  0.0186 -0.2680 -0.1087
  678loPI   C3A 9493   4.512   5.524   6.821 -0.1598 -0.3824 -0.2991
  678loPI   C4A 9494   4.471   5.493   7.224  0.3353  0.1033 -0.1595
  678loPI   C5A 9495   4.433   5.791   7.537 -0.2630  0.0944  0.1846
  678loPI   C6A 9496   4.428   5.804   7.988  0.1182 -0.1519 -0.5066
  678loPI   C1B 9497   3.889   5.693   6.400 -0.4038  0.1288  0.0435
  678loPI   C2B 9498   3.990   5.558   6.835  0.2127 -0.4745 -0.0972
  678loPI   C3B 9499   3.957   5.124   7.082 -0.1773  0.0865  0.2115
  678loPI   C4B 9500   4.189   4.998   7.436 -0.2444  0.0155  0.1373
  679loPI    C1 9501  13.588  15.037   5.948  0.0070 -0.1347  0.0979
  679loPI    C2 9502  13.718  14.795   5.657  0.0952 -0.0698  0.0830
  679loPI    C3 9503  13.629  15.177   5.576  0.0106 -0.0819  0.1180
  679loPI   PO4 9504  13.401  14.833   6.136  0.1820 -0.0458 -0.0507
  679loPI   GL1 9505  13.173  14.876   6.506  0.0060 -0.1335  0.1687
  679loPI   GL2 9506  12.847  14.934   6.351  0.0019 -0.0608 -0.1013
  679loPI   C1A 9507  13.207  14.724   6.915 -0.0880 -0.3211 -0.4029
  679loPI   C2A 9508  13.306  14.595   7.277 -0.1402  0.1092 -0.1384
  679loPI   C3A 9509  13.277  14.598   7.724  0.3811  0.0277  0.1527
  679loPI   C4A 9510  13.104  14.536   8.128  0.0670 -0.1746  0.0794
  679loPI   C5A 9511  12.820  14.283   8.327 -0.0940 -0.0801  0.0050
  679loPI   C6A 9512  12.637  14.200   8.760 -0.0504 -0.0559  0.2964
  679loPI   C1B 9513  12.681  14.828   6.669  0.1500  0.0852  0.0776
  679loPI   C2B 9514  12.757  14.735   7.087 -0.2530  0.1924  0.3268
  679loPI   C3B 9515  12.804  14.736   7.407 -0.1263  0.1462 -0.1690
  679loPI   C4B 9516  12.715  14.396   7.784  0.1265  0.0206 -0.0155
  680loPI    C1 9517   4.712   7.056   5.269 -0.0323 -0.0540 -0.0722
  680loPI    C2 9518   4.447   7.005   4.974 -0.0094 -0.1025 -0.0845
  680loPI    C3 9519   4.625   7.359   5.023  0.0092 -0.1030 -0.1475
  680loPI   PO4 9520   4.596   7.005   5.538 -0.3357  0.1802  0.1038
  680loPI   GL1 9521   4.276   7.226   5.743 -0.0797  0.0669 -0.1444
  680loPI   GL2 9522   4.208   6.901   5.916 -0.0928 -0.0112 -0.0160
  680loPI   C1A 9523   4.333   7.495   6.121  0.0841 -0.1166 -0.2042
  680loPI   C2A 9524   4.390   7.486   6.539  0.1562  0.2414  0.0306
  680loPI   C3A 9525   4.578   7.379   6.930  0.0146 -0.0555 -0.2092
  680loPI   C4A 9526   4.869   7.376   7.255  0.0144 -0.2364 -0.1148
  680loPI   C5A 9527   5.214   7.515   7.464  0.0822 -0.0406  0.0358
  680loPI   C6A 9528   5.432   7.876   7.567 -0.0500 -0.0376  0.1441
  680loPI   C1B 9529   4.285   7.016   6.345  0.2522 -0.1378 -0.3811
  680loPI   C2B 9530   4.306   6.923   6.790 -0.2815  0.0439 -0.2845
  680loPI   C3B 9531   4.405   6.961   7.142 -0.0900  0.1320 -0.1806
  680loPI   C4B 9532   4.504   7.257   7.526  0.0618  0.1237  0.2822
  681loPI    C1 9533   6.868   3.928   4.973  0.0325 -0.2461  0.0566
  681loPI    C2 9534   6.585   3.773   5.209 -0.0195  0.0973  0.2269
  681loPI    C3 9535   6.576   4.161   5.114  0.2398  0.0523  0.0029
  681loPI   PO4 9536   7.181   3.896   5.089  0.2555 -0.0538  0.0172
  681loPI   GL1 9537   7.282   3.935   5.621  0.0157 -0.0362  0.2109
  681loPI   GL2 9538   6.841   3.876   5.587 -0.1750 -0.0158 -0.3807
  681loPI   C1A 9539   7.131   3.840   6.082 -0.1104 -0.2559 -0.0992
  681loPI   C2A 9540   7.078   3.832   6.470  0.1561 -0.1504 -0.0020
  681loPI   C3A 9541   7.206   3.556   6.711 -0.0826 -0.2806 -0.1025
  681loPI   C4A 9542   7.165   3.471   7.091 -0.3302  0.1507  0.3334
  681loPI   C5A 9543   7.061   3.160   7.496  0.2560  0.0796 -0.0620
  681loPI   C6A 9544   6.897   2.798   7.692  0.1847  0.0117 -0.0913
  681loPI   C1B 9545   6.603   3.913   5.996 -0.0587  0.2904  0.1505
  681loPI   C2B 9546   6.434   3.843   6.406  0.2565 -0.1064  0.3503
  681loPI   C3B 9547   6.508   3.918   6.836  0.1259 -0.0236  0.0237
  681loPI   C4B 9548   6.859   3.890   7.086 -0.2026 -0.0831 -0.1481
  682loPI    C1 9549   3.814   0.747   5.324 -0.0015 -0.0468  0.0438
  682loPI    C2 9550   4.136   0.862   5.531  0.0572  0.0749 -0.1131
  682loPI    C3 9551   4.087   0.983   5.153 -0.0940 -0.0721 -0.1420
  682loPI   PO4 9552   3.636   0.790   5.602 -0.0120 -0.2057  0.0914
  682loPI   GL1 9553   3.461   0.760   6.067  0.1545 -0.0702 -0.1274
  682loPI   GL2 9554   3.204   0.487   6.202 -0.4590  0.1554  0.0260
  682loPI   C1A 9555   3.700   0.703   6.503 -0.3280 -0.0201 -0.2643
  682loPI   C2A 9556   3.922   0.887   6.713 -0.3412 -0.1415 -0.0099
  682loPI   C3A 9557   4.129   1.004   7.001 -0.4707 -0.0026 -0.3378
  682loPI   C4A 9558   4.214   1.363   7.415  0.0139  0.2790 -0.2689
  682loPI   C5A 9559   4.158   1.369   7.787 -0.1760 -0.0283  0.1744
  682loPI   C6A 9560   4.319   1.139   8.073  0.1195  0.0086 -0.2121
  682loPI   C1B 9561   3.090   0.688   6.540 -0.1272  0.0012 -0.1324
  682loPI   C2B 9562   3.140   0.482   6.980  0.2514  0.1101  0.2772
  682loPI   C3B 9563   2.820   0.386   7.215 -0.3136  0.1858  0.1107
  682loPI   C4B 9564   2.411   0.639   7.208 -0.0476  0.3193  0.2364
  683loPI    C1 9565   4.476   6.199   4.910  0.0158 -0.2842  0.1107
  683loPI    C2 9566   4.500   5.975   4.579  0.0152 -0.0692 -0.0364
  683loPI    C3 9567   4.709   6.315   4.607 -0.2233  0.0723  0.0579
  683loPI   PO4 9568   4.562   6.058   5.127  0.2224  0.2195  0.0446
  683loPI   GL1 9569   4.738   6.144   5.482 -0.3135 -0.3356 -0.1305
  683loPI   GL2 9570   4.830   5.809   5.799 -0.0527  0.0295  0.1108
  683loPI   C1A 9571   4.962   6.269   5.857  0.2421 -0.0146 -0.2032
  683loPI   C2A 9572   5.124   6.225   6.302 -0.0197  0.2118  0.3015
  683loPI   C3A 9573   5.242   6.551   6.557  0.1019 -0.0130 -0.3298
  683loPI   C4A 9574   5.362   6.645   6.886 -0.1695 -0.2890  0.1656
  683loPI   C5A 9575   5.370   6.741   7.438  0.4081 -0.2665  0.1113
  683loPI   C6A 9576   5.295   6.469   7.833 -0.0501 -0.0418  0.0416
  683loPI   C1B 9577   4.718   5.949   6.219 -0.2473  0.1561 -0.0646
  683loPI   C2B 9578   4.874   5.865   6.620 -0.0502 -0.3286 -0.2326
  683loPI   C3B 9579   5.011   5.481   6.995 -0.0097 -0.2955 -0.1550
  683loPI   C4B 9580   5.373   5.330   6.990 -0.0107  0.4290  0.1475
  684loPI    C1 9581   6.135  17.124   5.245  0.0144  0.1891  0.0026
  684loPI    C2 9582   6.432  17.101   5.512  0.1367 -0.2238 -0.1598
  684loPI    C3 9583   6.512  17.194   5.131  0.0231 -0.0932 -0.1526
  684loPI   PO4 9584   6.003  17.344   5.341 -0.2286 -0.0248 -0.0369
  684loPI   GL1 9585   5.999  17.608   5.666  0.0669 -0.1054  0.1426
  684loPI   GL2 9586   6.074  17.350   5.866  0.2424  0.0567 -0.1182
  684loPI   C1A 9587   6.268  17.750   6.052 -0.1037 -0.1195 -0.0470
  684loPI   C2A 9588   6.312  17.984   6.454  0.1656 -0.1010  0.0710
  684loPI   C3A 9589   6.315  17.971   6.937  0.1186 -0.1323  0.1487
  684loPI   C4A 9590   6.551  18.210   7.299  0.0013 -0.2531 -0.4486
  684loPI   C5A 9591   6.807  18.490   7.617  0.1619  0.0408  0.1122
  684loPI   C6A 9592   7.274  18.744   7.552  0.2189  0.0394 -0.0915
  684loPI   C1B 9593   5.926  17.450   6.231 -0.0899 -0.1941  0.1102
  684loPI   C2B 9594   5.917  17.610   6.609 -0.1974  0.1886  0.0862
  684loPI   C3B 9595   5.895  17.765   7.117  0.1315  0.1181  0.3990
  684loPI   C4B 9596   5.891  17.825   7.547 -0.0568  0.3168  0.2145
  685loPI    C1 9597   6.225   6.612   5.509  0.4581  0.1075  0.1023
  685loPI    C2 9598   6.323   6.503   5.137 -0.0571  0.1469 -0.0517
  685loPI    C3 9599   6.345   6.888   5.246  0.0384  0.1435 -0.0585
  685loPI   PO4 9600   6.029   6.530   5.542 -0.3524  0.1778 -0.1039
  685loPI   GL1 9601   5.758   6.814   5.803 -0.4636 -0.0294 -0.2680
  685loPI   GL2 9602   5.567   6.597   5.482 -0.2463  0.0782  0.1537
  685loPI   C1A 9603   5.785   6.760   6.168 -0.1136  0.2294  0.1904
  685loPI   C2A 9604   5.873   6.683   6.672 -0.3383  0.3416  0.1171
  685loPI   C3A 9605   5.833   6.839   7.110 -0.0675  0.0783 -0.1023
  685loPI   C4A 9606   5.865   6.813   7.536 -0.1892  0.1284 -0.1170
  685loPI   C5A 9607   6.006   6.904   7.975  0.1024 -0.2099  0.1894
  685loPI   C6A 9608   6.301   7.097   8.193 -0.3040  0.1478 -0.0382
  685loPI   C1B 9609   5.487   6.376   5.834 -0.2539 -0.2076  0.2763
  685loPI   C2B 9610   5.262   5.857   6.004  0.0046  0.3361 -0.4326
  685loPI   C3B 9611   5.035   5.557   6.196 -0.1052  0.1152 -0.1816
  685loPI   C4B 9612   5.216   5.184   6.207  0.2104 -0.2029  0.1813
  686loPI    C1 9613  11.406  13.188   5.331  0.0775  0.2791  0.0454
  686loPI    C2 9614  11.754  13.084   5.165  0.0692  0.0479  0.1696
  686loPI    C3 9615  11.461  13.233   4.937  0.1204 -0.0996  0.0054
  686loPI   PO4 9616  11.468  13.010   5.638 -0.0764  0.0983 -0.2727
  686loPI   GL1 9617  11.415  12.765   5.959  0.2754  0.2111 -0.0425
  686loPI   GL2 9618  11.312  12.488   5.833  0.0283 -0.0178  0.0793
  686loPI   C1A 9619  11.557  12.854   6.394  0.0352  0.0545 -0.0960
  686loPI   C2A 9620  11.632  12.776   6.772 -0.0532  0.0560  0.3258
  686loPI   C3A 9621  11.606  13.001   7.116  0.0406  0.0451  0.2170
  686loPI   C4A 9622  11.694  13.034   7.552  0.2219 -0.0678  0.1432
  686loPI   C5A 9623  11.715  13.093   8.115 -0.0820 -0.1340 -0.0193
  686loPI   C6A 9624  12.040  13.008   8.382  0.0302  0.0312  0.0772
  686loPI   C1B 9625  11.375  12.396   6.291 -0.0169  0.2549  0.0125
  686loPI   C2B 9626  11.338  12.341   6.703  0.2075 -0.0357  0.1972
  686loPI   C3B 9627  11.453  12.353   7.136  0.0806 -0.2255  0.0935
  686loPI   C4B 9628  11.258  12.186   7.546 -0.1054  0.2764 -0.1351
  687loPI    C1 9629  17.097   5.105   5.029  0.0404 -0.0381 -0.0159
  687loPI    C2 9630  17.375   5.384   4.957  0.1775 -0.0989  0.2635
  687loPI    C3 9631  17.277   5.120   4.672  0.0063  0.2653 -0.0231
  687loPI   PO4 9632  17.091   5.222   5.353  0.1304  0.0457  0.0336
  687loPI   GL1 9633  17.210   5.415   5.723 -0.4690 -0.0742  0.0484
  687loPI   GL2 9634  17.001   5.662   5.709 -0.1319  0.0464 -0.0072
  687loPI   C1A 9635  17.286   5.381   6.207  0.1073 -0.0096 -0.2774
  687loPI   C2A 9636  17.142   5.414   6.612  0.1121 -0.0353  0.2955
  687loPI   C3A 9637  17.223   5.473   6.941  0.3127 -0.1513 -0.1785
  687loPI   C4A 9638  16.899   5.660   7.208 -0.0611 -0.2614 -0.2400
  687loPI   C5A 9639  16.951   5.582   7.632  0.2569  0.2748 -0.0249
  687loPI   C6A 9640  17.001   5.246   7.911  0.1626  0.1172  0.1014
  687loPI   C1B 9641  16.902   5.761   6.181  0.0357  0.2646 -0.1264
  687loPI   C2B 9642  16.878   5.901   6.572  0.1915  0.1572 -0.1314
  687loPI   C3B 9643  17.154   6.000   6.969  0.1950 -0.1558  0.0869
  687loPI   C4B 9644  17.383   5.735   7.359 -0.0004  0.0147  0.1002
  688loPI    C1 9645  18.148  14.691   5.607  0.1463 -0.0033 -0.1793
  688loPI    C2 9646  17.915  14.866   5.333  0.0699  0.1126 -0.0414
  688loPI    C3 9647  18.254  15.043   5.449  0.0921  0.0732 -0.0459
  688loPI   PO4 9648  18.011  14.604   5.880 -0.1109 -0.0765  0.0412
  688loPI   GL1 9649  18.034  14.574   6.346 -0.2563  0.2818  0.2771
  688loPI   GL2 9650  18.151  14.183   6.333 -0.1257  0.3137 -0.0014
  688loPI   C1A 9651  18.243  14.592   6.731 -0.3273  0.1385  0.0907
  688loPI   C2A 9652  18.311  14.610   7.126 -0.1351 -0.2581 -0.2277
  688loPI   C3A 9653  18.638  14.609   7.426  0.2543  0.1218  0.1603
  688loPI   C4A 9654  18.859  14.310   7.623  0.2204  0.1163  0.0594
  688loPI   C5A 9655  19.137  14.266   7.934 -0.1043  0.0204  0.3143
  688loPI   C6A 9656  19.172  14.396   8.307  0.0859 -0.1059 -0.1122
  688loPI   C1B 9657  18.222  14.040   6.795 -0.1885 -0.3313 -0.1307
  688loPI   C2B 9658  18.021  14.157   7.143  0.1998 -0.0670  0.2664
  688loPI   C3B 9659  18.115  14.167   7.465  0.2785 -0.0084 -0.1099
  688loPI   C4B 9660  18.307  14.335   7.802 -0.2207  0.0054 -0.3399
  689loPI    C1 9661   5.130  17.234   5.221  0.0373 -0.0452  0.0564
  689loPI    C2 9662   4.879  17.387   4.950  0.1499  0.0636  0.0126
  689loPI    C3 9663   5.148  17.113   4.841 -0.0511 -0.1686  0.0908
  689loPI   PO4 9664   4.982  17.422   5.496  0.1464  0.4066 -0.1489
  689loPI   GL1 9665   5.000  17.319   5.976  0.3301 -0.2741  0.1448
  689loPI   GL2 9666   5.303  17.178   5.803  0.2596 -0.1627  0.2135
  689loPI   C1A 9667   4.714  17.034   6.285  0.1160 -0.2738  0.0822
  689loPI   C2A 9668   4.594  17.063   6.693  0.0642  0.0299  0.0817
  689loPI   C3A 9669   4.722  17.187   7.156 -0.3609 -0.0870  0.2349
  689loPI   C4A 9670   4.892  16.850   7.537 -0.1639  0.1392  0.1345
  689loPI   C5A 9671   5.197  16.658   7.659 -0.1057  0.2422  0.0703
  689loPI   C6A 9672   5.219  16.220   7.853  0.0205 -0.0258 -0.2944
  689loPI   C1B 9673   5.660  17.136   5.948 -0.0922 -0.0594  0.1669
  689loPI   C2B 9674   5.796  16.934   6.218  0.0808  0.3375  0.0066
  689loPI   C3B 9675   6.057  17.035   6.397 -0.3293 -0.3167 -0.3131
  689loPI   C4B 9676   5.979  17.124   6.753 -0.0048 -0.1299 -0.0960
  690loPI    C1 9677  11.269  10.529   5.365  0.2222  0.2886 -0.2027
  690loPI    C2 9678  11.081  10.449   5.021 -0.0294 -0.0931  0.0158
  690loPI    C3 9679  10.895  10.658   5.307  0.0843  0.0016  0.0216
  690loPI   PO4 9680  11.507  10.711   5.293  0.1495  0.2288  0.3043
  690loPI   GL1 9681  11.829  10.662   5.484 -0.1840  0.1145 -0.1416
  690loPI   GL2 9682  11.654  10.319   5.580 -0.1864 -0.1166 -0.0292
  690loPI   C1A 9683  11.880  10.561   5.922 -0.0705  0.1090  0.1169
  690loPI   C2A 9684  11.945  10.486   6.346  0.0528 -0.0155  0.3888
  690loPI   C3A 9685  11.997  10.535   6.852 -0.1439 -0.2477  0.1034
  690loPI   C4A 9686  12.087  10.413   7.266  0.0573  0.2251  0.0102
  690loPI   C5A 9687  11.801  10.517   7.510 -0.1471  0.0193 -0.0547
  690loPI   C6A 9688  11.405  10.313   7.661 -0.3562  0.2147 -0.2224
  690loPI   C1B 9689  11.414  10.416   5.897 -0.2644 -0.2314 -0.1348
  690loPI   C2B 9690  11.438  10.629   6.271  0.0440 -0.0374 -0.2408
  690loPI   C3B 9691  11.310  10.509   6.623  0.0603 -0.1779  0.0494
  690loPI   C4B 9692  11.515  10.435   7.074 -0.3196  0.1123 -0.1945
  691loPI    C1 9693  14.829   1.209   5.311  0.1944 -0.0105  0.1644
  691loPI    C2 9694  15.029   0.925   5.112  0.3396 -0.0531  0.3677
  691loPI    C3 9695  15.043   1.305   4.986  0.0425 -0.1512  0.0215
  691loPI   PO4 9696  14.880   1.146   5.535 -0.2228 -0.2391 -0.0409
  691loPI   GL1 9697  14.837   1.436   5.835  0.1542 -0.1796  0.1085
  691loPI   GL2 9698  14.543   1.587   5.930 -0.1564 -0.2835 -0.0638
  691loPI   C1A 9699  15.071   1.164   6.170 -0.1235 -0.2348 -0.0460
  691loPI   C2A 9700  15.424   1.157   6.481  0.0968 -0.1137  0.0337
  691loPI   C3A 9701  15.607   0.837   6.763 -0.1929 -0.2890  0.0641
  691loPI   C4A 9702  15.855   0.604   7.072 -0.1951  0.1598  0.1072
  691loPI   C5A 9703  15.803   0.732   7.473  0.1902 -0.0756 -0.2744
  691loPI   C6A 9704  15.613   0.658   7.886 -0.1024 -0.0639  0.0311
  691loPI   C1B 9705  14.607   1.387   6.408 -0.1572  0.1501  0.1191
  691loPI   C2B 9706  14.557   1.530   6.864  0.1080  0.0717  0.0336
  691loPI   C3B 9707  14.477   1.533   7.221  0.0816  0.1907 -0.0615
  691loPI   C4B 9708  14.558   1.569   7.635  0.0047 -0.1451  0.1913
  692loPI    C1 9709  16.561   5.171   4.828  0.1450  0.1894 -0.1897
  692loPI    C2 9710  16.745   4.829   4.735  0.0282 -0.0051  0.2708
  692loPI    C3 9711  16.514   5.011   4.464 -0.0466 -0.3810  0.0742
  692loPI   PO4 9712  16.520   5.024   5.129 -0.1442 -0.4111 -0.1716
  692loPI   GL1 9713  16.648   5.115   5.605 -0.0347  0.4633  0.2872
  692loPI   GL2 9714  16.618   4.819   5.673  0.3697  0.0021  0.0336
  692loPI   C1A 9715  16.945   5.065   6.048  0.0731  0.1223  0.0720
  692loPI   C2A 9716  17.186   4.840   6.368 -0.1723  0.2386  0.1043
  692loPI   C3A 9717  17.179   4.503   6.680 -0.1625  0.0689  0.2761
  692loPI   C4A 9718  16.976   4.446   7.168 -0.1357 -0.2007 -0.0524
  692loPI   C5A 9719  16.861   4.150   7.636  0.2093  0.1684  0.1298
  692loPI   C6A 9720  17.031   4.142   8.019  0.0869 -0.1338  0.0003
  692loPI   C1B 9721  16.514   4.839   6.103  0.0186  0.3171  0.2622
  692loPI   C2B 9722  16.706   4.854   6.496  0.3936 -0.2416 -0.1212
  692loPI   C3B 9723  16.847   4.970   6.956 -0.2422  0.0444  0.0613
  692loPI   C4B 9724  16.913   5.070   7.377 -0.0300  0.0398  0.1713
  693loPI    C1 9725   3.617  11.604   5.260  0.3238  0.0187  0.3630
  693loPI    C2 9726   3.739  11.685   4.888  0.1909  0.1852  0.3543
  693loPI    C3 9727   3.508  11.946   5.084 -0.0142 -0.0503  0.4310
  693loPI   PO4 9728   3.878  11.635   5.374 -0.0226  0.0416 -0.1674
  693loPI   GL1 9729   3.870  11.654   5.821  0.1631  0.3389 -0.0498
  693loPI   GL2 9730   3.976  11.327   5.948  0.2777  0.0424 -0.1557
  693loPI   C1A 9731   3.658  11.909   6.012 -0.4287 -0.0498  0.1278
  693loPI   C2A 9732   3.309  12.121   6.290 -0.0153  0.2585  0.0898
  693loPI   C3A 9733   3.388  12.297   6.684  0.0993  0.0116  0.0732
  693loPI   C4A 9734   3.476  12.415   7.096 -0.1826 -0.1099  0.1014
  693loPI   C5A 9735   3.579  12.515   7.578 -0.0022 -0.2883 -0.1293
  693loPI   C6A 9736   3.599  12.783   7.885  0.0569 -0.1046 -0.1397
  693loPI   C1B 9737   3.891  11.015   6.225 -0.0765  0.2235 -0.0867
  693loPI   C2B 9738   3.777  10.893   6.608 -0.1663 -0.3152  0.1200
  693loPI   C3B 9739   3.849  10.512   6.879 -0.3260 -0.2623  0.0542
  693loPI   C4B 9740   3.702  10.178   7.010 -0.0746  0.3796 -0.1016
  694loPI    C1 9741  12.294  12.544   5.357 -0.2215 -0.1414  0.0541
  694loPI    C2 9742  12.296  12.351   5.007  0.1245 -0.0043 -0.0238
  694loPI    C3 9743  12.247  12.748   5.016  0.1109 -0.0081  0.0842
  694loPI   PO4 9744  12.477  12.403   5.465 -0.0058 -0.2396  0.1817
  694loPI   GL1 9745  12.351  11.986   5.689 -0.3302 -0.0586  0.1198
  694loPI   GL2 9746  12.518  11.736   5.773 -0.3273 -0.1690 -0.4712
  694loPI   C1A 9747  12.299  12.093   6.045 -0.0206 -0.0074  0.0396
  694loPI   C2A 9748  12.215  12.026   6.420  0.1590 -0.1135  0.1054
  694loPI   C3A 9749  12.353  11.879   6.819 -0.2072 -0.0009 -0.1335
  694loPI   C4A 9750  12.248  12.004   7.186 -0.2723  0.0317  0.0720
  694loPI   C5A 9751  12.209  11.757   7.608  0.0945 -0.0780  0.2285
  694loPI   C6A 9752  12.284  11.352   7.855 -0.0869  0.1348  0.3599
  694loPI   C1B 9753  12.575  11.719   6.207  0.0632 -0.1479 -0.1345
  694loPI   C2B 9754  12.605  11.572   6.554  0.0930 -0.1982  0.0027
  694loPI   C3B 9755  12.511  11.432   6.922 -0.1944  0.0994 -0.1572
  694loPI   C4B 9756  12.507  11.376   7.401  0.0079 -0.0558 -0.1773
  695loPI    C1 9757  10.182  10.484   5.247  0.0275 -0.0276  0.1334
  695loPI    C2 9758  10.200  10.834   5.055 -0.1641 -0.1526 -0.1178
  695loPI    C3 9759   9.952  10.548   4.926 -0.4818 -0.1518  0.4603
  695loPI   PO4 9760  10.318  10.501   5.465 -0.1642 -0.4246 -0.0486
  695loPI   GL1 9761  10.490  10.174   5.736 -0.1731  0.3804  0.0453
  695loPI   GL2 9762  10.626   9.885   5.669 -0.0812  0.1477 -0.4160
  695loPI   C1A 9763  10.482  10.178   6.208 -0.4050 -0.0127 -0.3173
  695loPI   C2A 9764  10.490  10.040   6.681  0.2527  0.1113  0.0520
  695loPI   C3A 9765  10.219  10.057   7.075  0.1618 -0.0322  0.1809
  695loPI   C4A 9766   9.944   9.979   7.436 -0.2547  0.0278 -0.0973
  695loPI   C5A 9767   9.711   9.808   7.743  0.1345  0.1209 -0.0530
  695loPI   C6A 9768   9.900   9.474   7.965  0.0885  0.1389 -0.1736
  695loPI   C1B 9769  10.642   9.564   5.980  0.0913 -0.1597  0.2967
  695loPI   C2B 9770  10.710   9.213   6.216 -0.2314  0.0301 -0.0626
  695loPI   C3B 9771  10.609   9.075   6.592 -0.3058  0.2043 -0.1127
  695loPI   C4B 9772  10.734   9.190   7.049 -0.1428  0.2387 -0.0510
  696loPI    C1 9773   3.801  15.415   5.321 -0.1804  0.0624  0.0391
  696loPI    C2 9774   4.067  15.521   5.042 -0.1747  0.1366  0.0723
  696loPI    C3 9775   3.684  15.465   4.942 -0.1189 -0.1235 -0.0054
  696loPI   PO4 9776   3.815  15.592   5.560 -0.0809 -0.2258  0.0186
  696loPI   GL1 9777   4.086  15.459   5.786  0.0578  0.1137  0.0068
  696loPI   GL2 9778   4.379  15.601   5.912 -0.1810 -0.2440  0.1025
  696loPI   C1A 9779   4.027  15.186   6.168  0.2820  0.2107 -0.1702
  696loPI   C2A 9780   3.851  15.256   6.535 -0.2059  0.0536 -0.0764
  696loPI   C3A 9781   3.970  15.247   6.895 -0.1108  0.1927 -0.3028
  696loPI   C4A 9782   3.883  15.256   7.243  0.0153  0.2426  0.0868
  696loPI   C5A 9783   3.833  15.259   7.636 -0.1861  0.0069 -0.0253
  696loPI   C6A 9784   4.062  15.365   7.952 -0.2837  0.1160 -0.1655
  696loPI   C1B 9785   4.246  15.586   6.381 -0.1178  0.1793 -0.0460
  696loPI   C2B 9786   4.247  15.646   6.856 -0.0144 -0.0687 -0.0006
  696loPI   C3B 9787   4.177  15.688   7.351  0.1722  0.0042  0.1495
  696loPI   C4B 9788   4.250  15.770   7.689  0.1695  0.1801  0.2378
  697loPI    C1 9789   2.217   7.265   5.190 -0.0113 -0.1871 -0.0241
  697loPI    C2 9790   2.043   7.558   5.400  0.1162 -0.0749 -0.0736
  697loPI    C3 9791   2.065   7.583   5.002  0.1739 -0.1268 -0.0739
  697loPI   PO4 9792   2.363   7.188   5.382 -0.2450  0.0951  0.1657
  697loPI   GL1 9793   2.496   7.430   5.677 -0.0780  0.0878  0.0287
  697loPI   GL2 9794   2.812   7.529   5.833 -0.0118  0.2841 -0.1519
  697loPI   C1A 9795   2.466   7.303   6.121 -0.1042 -0.1393  0.1691
  697loPI   C2A 9796   2.387   7.338   6.609  0.1190  0.2392  0.1193
  697loPI   C3A 9797   2.173   7.179   7.020 -0.0464 -0.0130  0.0381
  697loPI   C4A 9798   1.864   7.062   7.286 -0.1439 -0.1359  0.0734
  697loPI   C5A 9799   1.948   7.244   7.644  0.0042  0.0109  0.0503
  697loPI   C6A 9800   2.289   7.332   7.938  0.1748  0.3031  0.1180
  697loPI   C1B 9801   2.899   7.397   6.248  0.1631  0.1680 -0.0084
  697loPI   C2B 9802   2.866   7.142   6.636  0.2362  0.1624 -0.0961
  697loPI   C3B 9803   2.669   7.089   6.999  0.0173  0.1180 -0.1259
  697loPI   C4B 9804   2.409   7.187   7.444  0.2112 -0.2056  0.0675
  698loPI    C1 9805  12.435   8.389   5.126 -0.1135 -0.0814  0.1270
  698loPI    C2 9806  12.689   8.545   4.859 -0.0857 -0.2100  0.0780
  698loPI    C3 9807  12.308   8.479   4.757 -0.1014 -0.1594  0.1038
  698loPI   PO4 9808  12.451   8.504   5.379 -0.0257 -0.0145 -0.2383
  698loPI   GL1 9809  12.528   8.667   5.773 -0.2621  0.2953 -0.1382
  698loPI   GL2 9810  12.835   8.497   5.902 -0.2691 -0.0406 -0.1437
  698loPI   C1A 9811  12.361   8.624   6.041  0.0785 -0.1507  0.0339
  698loPI   C2A 9812  12.284   8.710   6.464  0.0845 -0.3680  0.0855
  698loPI   C3A 9813  12.240   8.791   6.864  0.1777  0.0152  0.1809
  698loPI   C4A 9814  12.132   8.944   7.252  0.0154 -0.0611  0.0907
  698loPI   C5A 9815  11.902   9.013   7.611  0.1903  0.1102  0.0578
  698loPI   C6A 9816  11.641   9.159   7.708 -0.1501  0.0019  0.0414
  698loPI   C1B 9817  12.783   8.415   6.374  0.3011  0.0265  0.1133
  698loPI   C2B 9818  12.712   8.559   6.756 -0.0676 -0.1004 -0.1855
  698loPI   C3B 9819  12.540   8.627   7.194 -0.2389 -0.1001  0.0884
  698loPI   C4B 9820  12.445   8.746   7.589  0.0031  0.0032 -0.1040
  699loPI    C1 9821  14.318   2.020   5.262  0.2345  0.1328 -0.1805
  699loPI    C2 9822  14.118   1.689   5.161  0.2221  0.0646  0.0605
  699loPI    C3 9823  14.188   1.972   4.887 -0.2543  0.1175 -0.0155
  699loPI   PO4 9824  14.188   2.032   5.528 -0.2282 -0.2863 -0.0858
  699loPI   GL1 9825  14.045   2.204   5.897  0.2564 -0.1812 -0.0869
  699loPI   GL2 9826  14.047   1.917   6.031 -0.3233  0.1796  0.4248
  699loPI   C1A 9827  14.188   2.425   6.221  0.0119  0.0251  0.2515
  699loPI   C2A 9828  14.188   2.444   6.636  0.0671  0.0542 -0.3112
  699loPI   C3A 9829  14.183   2.575   7.102  0.1674  0.1701 -0.0527
  699loPI   C4A 9830  14.280   2.483   7.481 -0.0560  0.1016 -0.1351
  699loPI   C5A 9831  14.402   2.340   7.979 -0.0680  0.1704 -0.2512
  699loPI   C6A 9832  14.590   2.651   8.291  0.2378  0.1040  0.0242
  699loPI   C1B 9833  13.869   2.039   6.352 -0.0263 -0.1683  0.1621
  699loPI   C2B 9834  13.696   1.988   6.713  0.0318 -0.1662 -0.1690
  699loPI   C3B 9835  13.803   2.261   7.079  0.5161  0.2396  0.0192
  699loPI   C4B 9836  13.790   2.241   7.595  0.0445 -0.2700  0.1519
  700loPI    C1 9837   4.901   5.761   5.259  0.0193 -0.1369  0.1621
  700loPI    C2 9838   4.672   5.510   5.047 -0.1206  0.1465 -0.0282
  700loPI    C3 9839   4.901   5.778   4.859  0.0028  0.1846  0.1738
  700loPI   PO4 9840   5.123   5.631   5.456  0.1691  0.1276 -0.0804
  700loPI   GL1 9841   5.302   5.307   5.718  0.0579 -0.3371 -0.2528
  700loPI   GL2 9842   4.926   5.193   5.830 -0.0623  0.0329 -0.0275
  700loPI   C1A 9843   5.670   5.411   6.028 -0.2398 -0.0722 -0.0326
  700loPI   C2A 9844   5.740   5.810   6.232  0.1838 -0.1214  0.1600
  700loPI   C3A 9845   5.887   5.785   6.611 -0.1202 -0.1472  0.2787
  700loPI   C4A 9846   5.980   5.373   6.963 -0.2441 -0.2019 -0.0712
  700loPI   C5A 9847   5.824   5.082   7.313 -0.0541 -0.0445  0.3265
  700loPI   C6A 9848   5.664   4.753   7.538 -0.2580 -0.1311 -0.1087
  700loPI   C1B 9849   4.938   4.817   6.011  0.0050  0.0660  0.2158
  700loPI   C2B 9850   4.817   4.659   6.452 -0.1380 -0.2452 -0.2248
  700loPI   C3B 9851   4.673   4.579   6.827 -0.2023  0.1420  0.2111
  700loPI   C4B 9852   4.500   4.588   7.275 -0.0819 -0.5810  0.0772
  701loPI    C1 9853   9.861  12.383   5.302 -0.2292  0.0803  0.0935
  701loPI    C2 9854  10.082  12.701   5.403 -0.1141  0.0119  0.0598
  701loPI    C3 9855  10.039  12.601   5.018 -0.1753  0.0044  0.0685
  701loPI   PO4 9856   9.808  12.324   5.595  0.3591 -0.1602  0.3211
  701loPI   GL1 9857   9.568  12.187   5.940 -0.1028  0.0698  0.2682
  701loPI   GL2 9858   9.929  12.257   6.102 -0.1808 -0.1879 -0.0940
  701loPI   C1A 9859   9.560  12.017   6.312  0.1035  0.3090  0.0964
  701loPI   C2A 9860   9.564  12.006   6.727  0.1157  0.2129 -0.1381
  701loPI   C3A 9861   9.672  11.843   7.141 -0.0002 -0.2581  0.1709
  701loPI   C4A 9862   9.703  11.797   7.587 -0.0132 -0.3511  0.0594
  701loPI   C5A 9863   9.742  11.974   8.001  0.0809  0.1392 -0.0312
  701loPI   C6A 9864   9.509  12.200   8.214  0.1408 -0.1652 -0.0517
  701loPI   C1B 9865   9.953  12.293   6.525 -0.1285  0.0020  0.2835
  701loPI   C2B 9866  10.000  11.953   6.859 -0.2686  0.3675 -0.1511
  701loPI   C3B 9867  10.128  11.941   7.266  0.0654  0.3763 -0.0740
  701loPI   C4B 9868  10.157  12.059   7.723  0.1835  0.2634 -0.0408
  702loPI    C1 9869   3.297  12.372   5.273 -0.1341  0.0008  0.2300
  702loPI    C2 9870   2.903  12.430   5.240 -0.1197 -0.0380 -0.0371
  702loPI    C3 9871   3.131  12.420   4.912  0.0997 -0.0502  0.1137
  702loPI   PO4 9872   3.342  12.318   5.475  0.1052 -0.0789  0.2008
  702loPI   GL1 9873   3.318  12.451   5.911  0.3580 -0.0813 -0.0122
  702loPI   GL2 9874   3.575  12.476   5.876  0.1135  0.3060 -0.3500
  702loPI   C1A 9875   2.868  12.267   6.200 -0.1816 -0.0743  0.1440
  702loPI   C2A 9876   2.811  11.977   6.474 -0.1348  0.2434 -0.0925
  702loPI   C3A 9877   2.966  11.797   6.807  0.0045 -0.2755 -0.2244
  702loPI   C4A 9878   3.080  11.936   7.106 -0.2296  0.1307  0.1621
  702loPI   C5A 9879   3.268  11.965   7.452  0.1160 -0.1160  0.3200
  702loPI   C6A 9880   3.227  12.110   7.975  0.0573  0.2164 -0.0660
  702loPI   C1B 9881   3.800  12.401   6.324  0.0112 -0.0237 -0.0455
  702loPI   C2B 9882   3.887  12.317   6.791 -0.0058  0.1368  0.5030
  702loPI   C3B 9883   4.017  12.426   7.229  0.1351 -0.2111  0.0186
  702loPI   C4B 9884   4.033  12.378   7.565 -0.0263  0.3140 -0.1185
  703loPI    C1 9885  10.617  11.492   5.487 -0.1517  0.0201  0.1727
  703loPI    C2 9886  10.472  11.667   5.158  0.1145  0.0894  0.0894
  703loPI    C3 9887  10.855  11.721   5.260  0.0541  0.0045  0.3688
  703loPI   PO4 9888  10.403  11.521   5.678  0.1728 -0.2683  0.0803
  703loPI   GL1 9889  10.366  11.605   6.062  0.1881 -0.1837  0.3037
  703loPI   GL2 9890  10.061  11.733   6.280 -0.1860  0.2108 -0.0401
  703loPI   C1A 9891  10.418  11.416   6.408  0.2221  0.2343  0.0737
  703loPI   C2A 9892  10.513  11.175   6.754  0.2784  0.3119 -0.1945
  703loPI   C3A 9893  10.611  10.933   7.194 -0.0112 -0.0591 -0.1769
  703loPI   C4A 9894  10.296  10.982   7.506  0.1154 -0.0478  0.3063
  703loPI   C5A 9895   9.951  11.030   7.837  0.0638 -0.2489  0.1285
  703loPI   C6A 9896   9.691  10.909   8.017  0.1417  0.4811  0.1457
  703loPI   C1B 9897  10.071  11.514   6.740  0.1255  0.2021  0.1388
  703loPI   C2B 9898  10.063  11.414   7.079  0.2371 -0.0775 -0.0305
  703loPI   C3B 9899  10.078  11.488   7.471 -0.2999 -0.1451 -0.3512
  703loPI   C4B 9900  10.087  11.526   7.943  0.2639  0.0417  0.4012
  704loPI    C1 9901  11.625   7.726   5.102 -0.1794  0.4181  0.0564
  704loPI    C2 9902  11.304   7.529   5.234 -0.0219  0.1156 -0.0017
  704loPI    C3 9903  11.309   7.675   4.862  0.0292 -0.1624 -0.1126
  704loPI   PO4 9904  11.683   7.830   5.231  0.3688  0.1710  0.1880
  704loPI   GL1 9905  11.752   7.955   5.719 -0.1397 -0.2506 -0.1460
  704loPI   GL2 9906  11.585   8.301   5.829  0.0222 -0.1288  0.0487
  704loPI   C1A 9907  11.586   7.995   6.225  0.1153 -0.0603 -0.1445
  704loPI   C2A 9908  11.684   8.185   6.555 -0.0539  0.1846 -0.2041
  704loPI   C3A 9909  11.891   8.474   6.834 -0.0047 -0.2355  0.2082
  704loPI   C4A 9910  11.658   8.547   7.259 -0.3598 -0.0708 -0.0562
  704loPI   C5A 9911  11.454   8.720   7.553  0.1062 -0.1370 -0.0036
  704loPI   C6A 9912  11.274   8.811   7.906  0.1511 -0.3134 -0.0254
  704loPI   C1B 9913  11.975   8.238   6.091  0.3105 -0.1518  0.3077
  704loPI   C2B 9914  12.326   8.179   6.407  0.2239  0.0037 -0.0960
  704loPI   C3B 9915  12.726   8.017   6.721 -0.1075  0.0799 -0.0895
  704loPI   C4B 9916  13.025   8.181   6.765 -0.0349  0.0000 -0.1214
  705loPI    C1 9917   1.946   8.047   5.355 -0.0501 -0.2059  0.1227
  705loPI    C2 9918   1.653   8.293   5.474  0.0331  0.1054 -0.2948
  705loPI    C3 9919   1.738   7.965   5.687 -0.4611  0.1329 -0.0417
  705loPI   PO4 9920   2.149   8.145   5.384 -0.2737  0.2461 -0.2232
  705loPI   GL1 9921   2.307   8.012   5.733  0.0637  0.1395 -0.2255
  705loPI   GL2 9922   2.075   8.285   5.870  0.4081  0.1684  0.3622
  705loPI   C1A 9923   2.530   7.835   6.091  0.0836 -0.4165  0.1297
  705loPI   C2A 9924   2.665   7.792   6.444 -0.2169  0.0440 -0.2510
  705loPI   C3A 9925   2.994   7.722   6.739  0.1922 -0.2178  0.0275
  705loPI   C4A 9926   2.910   8.016   7.084  0.1711  0.0562 -0.1816
  705loPI   C5A 9927   3.009   8.319   7.262  0.0789 -0.0416 -0.0861
  705loPI   C6A 9928   3.177   8.596   7.599 -0.0151  0.5061  0.1551
  705loPI   C1B 9929   1.877   8.104   6.151  0.0789  0.0662  0.2324
  705loPI   C2B 9930   1.767   8.263   6.533  0.1692  0.0465 -0.1484
  705loPI   C3B 9931   1.597   8.238   7.021 -0.0018 -0.0921  0.1526
  705loPI   C4B 9932   1.705   8.070   7.369  0.2941  0.0805  0.0691
  706loPI    C1 9933   0.959  10.232   5.328 -0.0280 -0.0932 -0.0289
  706loPI    C2 9934   1.257  10.442   5.494 -0.0366 -0.1622  0.0750
  706loPI    C3 9935   1.281  10.329   5.111  0.1130 -0.2467  0.1085
  706loPI   PO4 9936   0.812  10.051   5.535 -0.3340 -0.1149 -0.0778
  706loPI   GL1 9937   0.895   9.699   5.808  0.0143 -0.2967 -0.1539
  706loPI   GL2 9938   0.631   9.878   5.934 -0.0639 -0.0776  0.0869
  706loPI   C1A 9939   0.821   9.404   6.201  0.0999 -0.0924 -0.2677
  706loPI   C2A 9940   0.685   9.217   6.644  0.0893  0.0340  0.2652
  706loPI   C3A 9941   0.854   9.078   7.102  0.5047 -0.1190 -0.1428
  706loPI   C4A 9942   1.057   9.075   7.566 -0.0612 -0.3015  0.1449
  706loPI   C5A 9943   0.953   8.940   7.997 -0.4127 -0.0681  0.1982
  706loPI   C6A 9944   1.194   8.728   8.266  0.0907  0.0984  0.3385
  706loPI   C1B 9945   0.320   9.846   6.247 -0.0227 -0.1238  0.0174
  706loPI   C2B 9946   0.378   9.645   6.647 -0.0708 -0.0910  0.0179
  706loPI   C3B 9947   0.585   9.581   7.035 -0.1316 -0.1188  0.5346
  706loPI   C4B 9948   0.644   9.378   7.422 -0.1113 -0.0044  0.2517
  707loPI    C1 9949   2.023   8.816   4.633 -0.0652  0.3431  0.0772
  707loPI    C2 9950   1.807   8.508   4.768  0.0919  0.2046  0.0161
  707loPI    C3 9951   1.667   8.734   4.470 -0.0393  0.2144  0.0841
  707loPI   PO4 9952   2.170   8.881   4.858  0.1307  0.0338  0.2461
  707loPI   GL1 9953   2.037   8.934   5.282  0.1251 -0.0348  0.1430
  707loPI   GL2 9954   1.872   8.723   5.255 -0.2433 -0.0695 -0.2311
  707loPI   C1A 9955   2.037   9.177   5.672 -0.2589 -0.3788 -0.1310
  707loPI   C2A 9956   1.788   9.158   5.911 -0.0490  0.0891  0.2013
  707loPI   C3A 9957   1.602   9.059   6.314 -0.0395  0.2541  0.0217
  707loPI   C4A 9958   1.598   9.151   6.756 -0.1688  0.0938  0.0217
  707loPI   C5A 9959   1.391   9.122   7.106  0.1033 -0.2478 -0.0836
  707loPI   C6A 9960   1.433   8.763   7.383 -0.2173  0.0102  0.2079
  707loPI   C1B 9961   1.875   8.705   5.714 -0.2384  0.1726 -0.1694
  707loPI   C2B 9962   1.967   8.638   6.241 -0.0027 -0.0777 -0.1915
  707loPI   C3B 9963   2.130   8.958   6.497  0.3328 -0.1474  0.2414
  707loPI   C4B 9964   2.379   8.698   6.806 -0.1328  0.2085 -0.1246
  708loPI    C1 9965   7.470  14.429   5.180 -0.0060 -0.0604 -0.0062
  708loPI    C2 9966   7.845  14.325   5.272  0.0365  0.0351 -0.0698
  708loPI    C3 9967   7.722  14.315   4.891  0.0210  0.1516 -0.0682
  708loPI   PO4 9968   7.307  14.374   5.428 -0.1979  0.0711 -0.0341
  708loPI   GL1 9969   7.427  14.286   5.789  0.3338 -0.0471 -0.0502
  708loPI   GL2 9970   7.696  14.297   5.737  0.0841  0.0451  0.1616
  708loPI   C1A 9971   6.976  14.224   6.131 -0.1240 -0.0583  0.0091
  708loPI   C2A 9972   6.798  14.272   6.525 -0.0990  0.1077  0.0120
  708loPI   C3A 9973   6.653  14.344   6.946  0.1446 -0.1647 -0.1501
  708loPI   C4A 9974   6.527  14.450   7.447  0.1325  0.0125 -0.2269
  708loPI   C5A 9975   6.749  14.555   7.622  0.1943 -0.0111  0.1027
  708loPI   C6A 9976   7.114  14.478   7.790 -0.1297 -0.1842 -0.0452
  708loPI   C1B 9977   7.707  14.499   6.168 -0.1654  0.1742  0.1313
  708loPI   C2B 9978   7.554  14.597   6.530 -0.0326 -0.0946 -0.2687
  708loPI   C3B 9979   7.409  14.695   6.892 -0.0267 -0.0779  0.3161
  708loPI   C4B 9980   7.097  14.530   7.222  0.1026 -0.3550  0.1109
  709loPI    C1 9981  17.263   7.425   5.012 -0.0424  0.0788 -0.1119
  709loPI    C2 9982  16.888   7.456   4.876 -0.0814  0.1256  0.0048
  709loPI    C3 9983  17.157   7.240   4.673 -0.1832  0.0533 -0.0548
  709loPI   PO4 9984  17.248   7.498   5.230 -0.1308  0.1007 -0.1706
  709loPI   GL1 9985  17.072   7.739   5.424 -0.0979 -0.0531  0.0776
  709loPI   GL2 9986  17.192   7.630   5.799  0.2822 -0.1747  0.0872
  709loPI   C1A 9987  16.705   7.496   5.663 -0.1374  0.0399 -0.1944
  709loPI   C2A 9988  16.396   7.545   5.850 -0.3667 -0.0114  0.0584
  709loPI   C3A 9989  16.366   7.254   6.200 -0.0759  0.1629 -0.3206
  709loPI   C4A 9990  16.493   7.325   6.588 -0.0685  0.1305  0.2687
  709loPI   C5A 9991  16.394   7.287   6.981  0.0039  0.0192 -0.0583
  709loPI   C6A 9992  16.092   7.378   7.239 -0.3911  0.0195  0.2173
  709loPI   C1B 9993  17.261   7.768   6.112 -0.3429 -0.1940  0.1787
  709loPI   C2B 9994  17.391   7.902   6.405  0.0404  0.2250 -0.2414
  709loPI   C3B 9995  17.262   7.794   6.742 -0.1209 -0.1412  0.2104
  709loPI   C4B 9996  17.238   7.792   7.129 -0.0204 -0.2180  0.4255
  710loPI    C1 9997  15.720  14.756   5.618  0.1204  0.0635 -0.0212
  710loPI    C2 9998  15.787  14.369   5.542  0.0715  0.0505  0.0011
  710loPI    C3 9999  15.412  14.507   5.566  0.0877  0.0811  0.0842
  710loPI   PO410000  15.825  14.834   5.825  0.3240  0.0913  0.2574
  710loPI   GL110001  15.614  14.703   6.240 -0.0411  0.0400  0.0012
  710loPI   GL210002  15.980  14.541   6.145 -0.1084  0.0324 -0.1758
  710loPI   C1A10003  15.578  14.606   6.640  0.0991 -0.2852 -0.0434
  710loPI   C2A10004  15.832  14.718   6.837 -0.2603  0.3405  0.1723
  710loPI   C3A10005  15.743  14.577   7.270 -0.0091  0.1470 -0.1221
  710loPI   C4A10006  15.895  14.493   7.626 -0.1883 -0.1420 -0.0716
  710loPI   C5A10007  15.806  14.569   8.081 -0.0624 -0.2125  0.0688
  710loPI   C6A10008  16.078  14.903   8.306  0.2299  0.0714 -0.2715
  710loPI   C1B10009  16.321  14.301   6.384  0.0320  0.1028  0.0824
  710loPI   C2B10010  16.387  14.316   6.834 -0.0407 -0.1687  0.0828
  710loPI   C3B10011  15.991  14.194   7.216 -0.0530 -0.0252 -0.2149
  710loPI   C4B10012  15.487  14.041   7.164  0.2437  0.1259  0.1645
  711loPI    C110013   9.719   0.851   5.103 -0.0024  0.0132 -0.0759
  711loPI    C210014   9.720   0.560   4.828  0.1440 -0.0697  0.0113
  711loPI    C310015  10.030   0.600   5.078  0.0158  0.0105  0.1591
  711loPI   PO410016   9.525   0.790   5.269 -0.1090 -0.1986 -0.0118
  711loPI   GL110017   9.124   0.823   5.546 -0.0433 -0.1551  0.0071
  711loPI   GL210018   9.211   0.490   5.639  0.1617 -0.0816 -0.0232
  711loPI   C1A10019   9.111   1.082   5.983  0.1434 -0.0330  0.1299
  711loPI   C2A10020   9.020   1.137   6.381  0.0973 -0.2094  0.0631
  711loPI   C3A10021   9.032   1.275   6.729 -0.2770  0.1893 -0.2358
  711loPI   C4A10022   9.191   1.190   7.240  0.0499  0.1462 -0.0247
  711loPI   C5A10023   9.569   1.188   7.553 -0.0512  0.0988  0.0098
  711loPI   C6A10024   9.732   0.868   7.898 -0.0162  0.2482  0.2172
  711loPI   C1B10025   9.026   0.601   6.033 -0.0496  0.1062 -0.6104
  711loPI   C2B10026   8.968   0.641   6.477 -0.3986  0.0907 -0.3679
  711loPI   C3B10027   9.031   0.672   6.855 -0.0054  0.2042  0.0870
  711loPI   C4B10028   9.155   0.642   7.299 -0.1521  0.0566 -0.1480
  712loPI    C110029  12.098   0.973   5.434 -0.1353  0.2022 -0.0445
  712loPI    C210030  11.968   0.839   5.080 -0.0377 -0.2146  0.0718
  712loPI    C310031  12.261   1.111   5.096 -0.1666 -0.0582 -0.1683
  712loPI   PO410032  11.907   1.110   5.662  0.2107  0.0734  0.2531
  712loPI   GL110033  11.810   1.210   5.989  0.1772 -0.2962 -0.2175
  712loPI   GL210034  11.481   1.387   6.025  0.0952 -0.2847 -0.0580
  712loPI   C1A10035  11.868   1.437   6.380  0.1293 -0.0775 -0.2259
  712loPI   C2A10036  11.780   1.404   6.748  0.1779  0.1486  0.1987
  712loPI   C3A10037  11.658   1.437   7.220 -0.2177  0.0838  0.0491
  712loPI   C4A10038  11.739   1.667   7.606 -0.1055 -0.0905  0.2761
  712loPI   C5A10039  12.057   1.750   7.910 -0.3142  0.2188 -0.0938
  712loPI   C6A10040  12.329   1.777   8.324  0.1384  0.0875 -0.1589
  712loPI   C1B10041  11.283   1.558   6.370  0.1682 -0.3308  0.0182
  712loPI   C2B10042  11.286   1.705   6.835  0.1615  0.0148 -0.1137
  712loPI   C3B10043  11.175   1.803   7.269 -0.0871 -0.0817 -0.0568
  712loPI   C4B10044  10.936   1.646   7.731  0.1677 -0.0758  0.1524
  713loPI    C110045   7.495   5.981   4.821  0.2677 -0.0292  0.1874
  713loPI    C210046   7.773   5.818   4.583  0.1238  0.0744 -0.0553
  713loPI    C310047   7.410   5.652   4.610  0.1210  0.0966  0.0483
  713loPI   PO410048   7.547   6.027   5.074  0.1691  0.1285  0.0370
  713loPI   GL110049   7.371   6.418   5.328 -0.0877  0.3826 -0.0344
  713loPI   GL210050   7.556   6.140   5.557 -0.0736  0.0714  0.1253
  713loPI   C1A10051   7.349   6.477   5.785  0.1598  0.0151 -0.1292
  713loPI   C2A10052   7.403   6.420   6.146 -0.2020 -0.1047 -0.1937
  713loPI   C3A10053   7.250   6.285   6.580  0.0831  0.1185 -0.4801
  713loPI   C4A10054   7.051   6.444   6.898 -0.0435 -0.1110 -0.0954
  713loPI   C5A10055   6.793   6.712   7.126 -0.2410  0.1674 -0.0441
  713loPI   C6A10056   6.665   6.807   7.453  0.2408 -0.0017 -0.1239
  713loPI   C1B10057   7.594   5.980   5.941 -0.0443  0.0702 -0.1023
  713loPI   C2B10058   7.307   5.695   6.140  0.0701  0.0551 -0.1548
  713loPI   C3B10059   7.197   5.726   6.542 -0.0553 -0.2055 -0.0333
  713loPI   C4B10060   7.028   5.931   6.920  0.1544  0.3894  0.1252
  714loPI    C110061  12.192   4.471   5.172 -0.1685  0.0103 -0.1886
  714loPI    C210062  12.013   4.504   4.816 -0.0745 -0.1803 -0.2549
  714loPI    C310063  12.375   4.336   4.843  0.0354  0.0749 -0.1033
  714loPI   PO410064  12.179   4.646   5.320  0.3082 -0.0090  0.0583
  714loPI   GL110065  12.317   4.819   5.795 -0.2880  0.1291  0.4227
  714loPI   GL210066  12.600   4.736   5.629  0.1290 -0.0319  0.0322
  714loPI   C1A10067  12.274   4.761   6.254 -0.0457  0.1200 -0.3066
  714loPI   C2A10068  12.267   4.737   6.686  0.0321  0.4017  0.0966
  714loPI   C3A10069  12.291   4.623   7.129 -0.1123  0.0457 -0.3052
  714loPI   C4A10070  12.647   4.533   7.397  0.0964 -0.4021 -0.0094
  714loPI   C5A10071  12.971   4.822   7.500 -0.0369 -0.2112 -0.5060
  714loPI   C6A10072  12.959   5.244   7.712  0.0680 -0.1255 -0.2327
  714loPI   C1B10073  12.934   4.516   5.820  0.1336  0.3057 -0.0763
  714loPI   C2B10074  13.099   4.486   6.249  0.0327 -0.1639  0.0280
  714loPI   C3B10075  13.054   4.463   6.590  0.0955  0.1420  0.1750
  714loPI   C4B10076  13.063   4.492   6.978  0.3850  0.1833 -0.4707
  715loPI    C110077   5.191  10.917   5.087 -0.1617  0.0074  0.1554
  715loPI    C210078   5.142  10.733   4.735 -0.1153  0.1314  0.0835
  715loPI    C310079   5.054  11.121   4.771  0.2049  0.2034  0.1184
  715loPI   PO410080   5.273  10.680   5.245  0.0966  0.1710 -0.2998
  715loPI   GL110081   5.335  10.481   5.635  0.0785  0.0426 -0.2247
  715loPI   GL210082   5.178  10.673   5.746  0.2963  0.1582 -0.4410
  715loPI   C1A10083   5.139  10.267   6.018 -0.1015  0.1939  0.0383
  715loPI   C2A10084   5.120  10.138   6.393 -0.0908 -0.1979 -0.2954
  715loPI   C3A10085   5.197  10.133   6.823 -0.0080 -0.3506  0.1912
  715loPI   C4A10086   5.136  10.019   7.290 -0.2561 -0.2618 -0.2191
  715loPI   C5A10087   5.076  10.222   7.726  0.0027  0.3596  0.0589
  715loPI   C6A10088   5.142  10.683   7.843 -0.1666 -0.0105  0.2992
  715loPI   C1B10089   5.480  10.607   6.150  0.0834 -0.1554  0.1073
  715loPI   C2B10090   5.535  10.549   6.582 -0.0255 -0.0081 -0.1145
  715loPI   C3B10091   5.495  10.544   6.965  0.1586  0.0791  0.2533
  715loPI   C4B10092   5.380  10.546   7.410  0.0535 -0.1316 -0.1273
  716loPI    C110093  17.242  16.776   5.667 -0.2870 -0.4211 -0.0729
  716loPI    C210094  17.600  16.736   5.494 -0.1525 -0.0842  0.1186
  716loPI    C310095  17.352  16.423   5.515  0.0949 -0.2988 -0.0904
  716loPI   PO410096  17.294  16.903   5.966  0.0414 -0.1770 -0.2098
  716loPI   GL110097  17.449  16.827   6.370  0.2679  0.2245 -0.1499
  716loPI   GL210098  17.198  16.693   6.359 -0.0234  0.3494 -0.0350
  716loPI   C1A10099  17.376  17.107   6.676 -0.0389  0.1280 -0.0413
  716loPI   C2A10100  17.304  17.161   7.182 -0.2041 -0.4273  0.1888
  716loPI   C3A10101  17.281  17.308   7.612 -0.0310  0.2094 -0.0771
  716loPI   C4A10102  16.982  17.306   7.848 -0.0589 -0.2915  0.0341
  716loPI   C5A10103  16.590  17.198   8.032  0.2451  0.1126  0.1833
  716loPI   C6A10104  16.259  17.025   8.326 -0.1080  0.0092 -0.0593
  716loPI   C1B10105  17.142  16.700   6.773 -0.0320 -0.3643 -0.0486
  716loPI   C2B10106  17.072  16.691   7.178  0.3966  0.7641 -0.1054
  716loPI   C3B10107  17.097  16.454   7.571 -0.2269  0.1592 -0.1096
  716loPI   C4B10108  17.233  16.313   7.951  0.1495  0.4673  0.1167
  717loPI    C110109   4.931   1.992   5.688 -0.1657 -0.2690  0.1836
  717loPI    C210110   4.621   1.789   5.536 -0.0541 -0.1335 -0.2381
  717loPI    C310111   4.974   1.786   5.347  0.0137  0.2636 -0.1267
  717loPI   PO410112   4.954   1.880   5.939 -0.0342  0.0331  0.1591
  717loPI   GL110113   4.815   1.942   6.379 -0.0019  0.0070 -0.0661
  717loPI   GL210114   4.976   1.594   6.374  0.0791 -0.1048  0.2604
  717loPI   C1A10115   4.565   1.827   6.643 -0.0353  0.1364  0.1120
  717loPI   C2A10116   4.699   1.502   6.920  0.1847 -0.4317  0.2060
  717loPI   C3A10117   4.656   1.187   7.267  0.0230  0.1645  0.1631
  717loPI   C4A10118   4.371   0.902   7.419 -0.4010  0.1342  0.0847
  717loPI   C5A10119   4.041   0.857   7.621  0.0184  0.0777  0.1433
  717loPI   C6A10120   3.758   0.564   7.848  0.5147 -0.1305 -0.1618
  717loPI   C1B10121   5.158   1.588   6.681  0.3486 -0.0217 -0.4058
  717loPI   C2B10122   5.429   1.471   7.031 -0.5010 -0.1549  0.1606
  717loPI   C3B10123   5.698   1.335   7.352 -0.1161 -0.2182 -0.1928
  717loPI   C4B10124   5.860   1.161   7.741 -0.2786  0.2784  0.0236
  718loPI    C110125   2.773  15.549   5.833 -0.1950  0.0088  0.1071
  718loPI    C210126   2.479  15.296   5.933 -0.1990  0.0291  0.1470
  718loPI    C310127   2.497  15.447   5.563 -0.0458 -0.2356  0.0435
  718loPI   PO410128   2.887  15.727   5.987 -0.0790 -0.3083  0.1411
  718loPI   GL110129   3.175  15.724   6.279 -0.1185  0.0739  0.0707
  718loPI   GL210130   2.900  15.523   6.463 -0.0377  0.1163  0.2470
  718loPI   C1A10131   3.277  15.881   6.731  0.1478 -0.0368 -0.1634
  718loPI   C2A10132   3.004  15.819   7.028  0.2359 -0.0255 -0.2368
  718loPI   C3A10133   3.203  15.747   7.366  0.4432 -0.1246 -0.2308
  718loPI   C4A10134   3.080  15.920   7.780 -0.1867 -0.0343  0.1334
  718loPI   C5A10135   3.040  16.022   8.195 -0.2492  0.1695 -0.1868
  718loPI   C6A10136   2.879  15.694   8.509 -0.2041 -0.2991  0.3396
  718loPI   C1B10137   2.911  15.334   6.844 -0.0972 -0.0101  0.1728
  718loPI   C2B10138   2.928  15.302   7.236  0.1669 -0.1672 -0.0860
  718loPI   C3B10139   2.931  15.458   7.638  0.2499  0.2157  0.2737
  718loPI   C4B10140   2.724  15.651   7.973 -0.1605 -0.2189  0.1856
  719loPI    C110141  15.816   8.834   5.209  0.0103 -0.1740 -0.0731
  719loPI    C210142  15.742   9.196   5.056 -0.0045 -0.0644  0.1887
  719loPI    C310143  16.106   9.036   5.021 -0.0690 -0.1428 -0.1631
  719loPI   PO410144  15.707   8.831   5.463  0.0258  0.1867  0.0592
  719loPI   GL110145  15.826   8.766   5.893  0.0198 -0.3167  0.0906
  719loPI   GL210146  15.547   8.857   5.955  0.1381 -0.0016 -0.1335
  719loPI   C1A10147  16.008   9.133   6.102  0.3807 -0.2739 -0.0332
  719loPI   C2A10148  15.979   9.354   6.617 -0.1137 -0.2544 -0.0563
  719loPI   C3A10149  16.114   9.204   6.964 -0.1198  0.2865  0.1968
  719loPI   C4A10150  16.259   9.230   7.319 -0.2630 -0.0973 -0.0520
  719loPI   C5A10151  16.463   9.173   7.741  0.0384  0.1233  0.0408
  719loPI   C6A10152  16.573   9.467   8.139 -0.0754  0.1266 -0.0467
  719loPI   C1B10153  15.601   9.039   6.359  0.0116  0.1022 -0.0364
  719loPI   C2B10154  15.573   9.087   6.791 -0.1609  0.3157 -0.0056
  719loPI   C3B10155  15.474   9.201   7.225  0.0174 -0.1781  0.0978
  719loPI   C4B10156  15.289   8.873   7.479 -0.1262  0.2749  0.2333
  720loPI    C110157   9.620   2.299   5.319  0.1445 -0.0190  0.2706
  720loPI    C210158   9.487   1.937   5.212 -0.0584  0.0443  0.3037
  720loPI    C310159   9.593   2.202   4.932 -0.0028 -0.0060  0.2770
  720loPI   PO410160   9.444   2.353   5.598  0.0222  0.0103 -0.1275
  720loPI   GL110161   9.483   2.201   5.974  0.1704  0.0098  0.0361
  720loPI   GL210162   9.820   2.298   5.947  0.2885  0.0281  0.2641
  720loPI   C1A10163   9.528   2.110   6.441 -0.1570  0.2535 -0.1677
  720loPI   C2A10164   9.468   2.146   6.921 -0.0737 -0.1816 -0.1304
  720loPI   C3A10165   9.457   2.386   7.107 -0.2275 -0.0683  0.3273
  720loPI   C4A10166   9.309   2.547   7.378  0.0468  0.1928 -0.1010
  720loPI   C5A10167   9.448   2.918   7.762 -0.4784 -0.1757 -0.1406
  720loPI   C6A10168   9.675   3.055   8.057  0.1382 -0.1536 -0.0391
  720loPI   C1B10169   9.989   2.305   6.380 -0.2375  0.2140 -0.0152
  720loPI   C2B10170   9.902   2.346   6.761 -0.1032 -0.3538 -0.0627
  720loPI   C3B10171   9.929   2.487   7.245 -0.0429  0.1257  0.0361
  720loPI   C4B10172   9.891   2.796   7.598 -0.1461 -0.3237  0.0751
  721loPI    C110173  17.077  10.121   5.005 -0.2139 -0.1217 -0.1531
  721loPI    C210174  16.735  10.253   5.166 -0.0134  0.1637  0.0515
  721loPI    C310175  16.822  10.335   4.784 -0.0635  0.3001  0.0689
  721loPI   PO410176  17.202  10.043   5.147 -0.1645  0.0976  0.0254
  721loPI   GL110177  17.070  10.049   5.567 -0.0291  0.0329  0.1367
  721loPI   GL210178  16.932   9.755   5.708  0.2049 -0.1606  0.3656
  721loPI   C1A10179  16.881  10.156   5.991 -0.1044 -0.2845  0.0240
  721loPI   C2A10180  16.819  10.295   6.459 -0.1324  0.2541  0.2594
  721loPI   C3A10181  17.030  10.246   6.844  0.0855  0.4052 -0.0323
  721loPI   C4A10182  16.863  10.443   7.176 -0.0664  0.0156  0.4019
  721loPI   C5A10183  16.719  10.776   7.242  0.0556 -0.1305 -0.1884
  721loPI   C6A10184  16.577  10.765   7.575  0.2225 -0.0118  0.1254
  721loPI   C1B10185  16.796   9.707   6.169  0.0358  0.1379 -0.0141
  721loPI   C2B10186  16.921   9.775   6.616 -0.4322 -0.1677 -0.0983
  721loPI   C3B10187  16.929   9.682   7.069  0.1376 -0.2388  0.0460
  721loPI   C4B10188  16.963  10.005   7.416  0.0403  0.0077  0.2998
  722loPI    C110189  13.038  12.546   5.255  0.2043 -0.2255 -0.1145
  722loPI    C210190  12.772  12.307   5.078 -0.0156  0.0525 -0.1672
  722loPI    C310191  13.104  12.414   4.883  0.0771 -0.1951 -0.1486
  722loPI   PO410192  13.045  12.492   5.485  0.0838 -0.1364  0.1353
  722loPI   GL110193  13.166  12.275   5.880 -0.1401 -0.3289  0.0881
  722loPI   GL210194  12.803  12.158   5.956 -0.1119  0.1366  0.2502
  722loPI   C1A10195  13.489  11.929   6.045  0.0029  0.2127 -0.0152
  722loPI   C2A10196  13.561  11.587   6.114  0.2489 -0.0710  0.2957
  722loPI   C3A10197  13.655  11.269   6.423  0.0568  0.1071 -0.0550
  722loPI   C4A10198  13.511  11.289   6.759  0.1226  0.0530 -0.2492
  722loPI   C5A10199  13.528  11.387   7.169 -0.1450  0.2269  0.0440
  722loPI   C6A10200  13.787  11.289   7.527 -0.2517  0.1193  0.1681
  722loPI   C1B10201  12.969  12.016   6.214  0.0821  0.2413  0.1078
  722loPI   C2B10202  13.135  11.751   6.437  0.1920 -0.1551  0.4132
  722loPI   C3B10203  13.050  11.456   6.827 -0.1135  0.0067  0.0302
  722loPI   C4B10204  12.985  11.415   7.285  0.2490 -0.1184  0.2143
  723loPI    C110205  10.456  16.401   5.501  0.0202 -0.2240 -0.0249
  723loPI    C210206  10.116  16.545   5.348  0.1384  0.1491  0.0539
  723loPI    C310207  10.426  16.466   5.108  0.0850  0.0581  0.0145
  723loPI   PO410208  10.429  16.571   5.749 -0.2883  0.2410 -0.0614
  723loPI   GL110209  10.328  16.527   6.219  0.2841  0.1593  0.0230
  723loPI   GL210210  10.541  16.330   6.227 -0.2393  0.3616 -0.0828
  723loPI   C1A10211  10.252  16.643   6.760  0.0806 -0.1917  0.1705
  723loPI   C2A10212  10.165  16.880   7.131  0.2442  0.1567 -0.0433
  723loPI   C3A10213  10.308  16.940   7.391 -0.0251  0.2204 -0.1616
  723loPI   C4A10214  10.159  17.073   7.664  0.2119 -0.2570 -0.2125
  723loPI   C5A10215   9.890  17.225   8.017 -0.3005  0.0178 -0.1142
  723loPI   C6A10216  10.002  17.337   8.392  0.0265  0.0889 -0.2856
  723loPI   C1B10217  10.654  16.354   6.609  0.1057 -0.0073  0.1517
  723loPI   C2B10218  11.138  16.447   6.915  0.1432 -0.0812 -0.0203
  723loPI   C3B10219  11.244  16.461   7.304 -0.1106  0.2864  0.1971
  723loPI   C4B10220  11.195  16.641   7.724  0.1273 -0.1012  0.0909
  724loPI    C110221   7.375  16.847   5.109 -0.2118  0.0888 -0.2388
  724loPI    C210222   7.303  16.474   5.233  0.0454  0.1493  0.1062
  724loPI    C310223   7.578  16.541   4.951  0.0087  0.0797  0.0537
  724loPI   PO410224   7.342  16.975   5.390 -0.1099  0.2759 -0.1051
  724loPI   GL110225   7.137  17.073   5.712  0.0617 -0.1603 -0.0228
  724loPI   GL210226   6.855  17.011   5.777 -0.4206  0.2613  0.2002
  724loPI   C1A10227   7.242  16.913   6.077  0.1574  0.2361 -0.3760
  724loPI   C2A10228   7.261  16.947   6.593 -0.0548  0.0628 -0.1347
  724loPI   C3A10229   7.303  17.016   7.071 -0.1723 -0.1379  0.1162
  724loPI   C4A10230   7.526  17.328   7.260 -0.1996 -0.0015 -0.2184
  724loPI   C5A10231   7.410  17.671   7.498 -0.2851 -0.1281  0.0393
  724loPI   C6A10232   7.345  18.180   7.659 -0.1282 -0.2812  0.0177
  724loPI   C1B10233   6.746  16.856   6.197 -0.1299 -0.3234 -0.0592
  724loPI   C2B10234   6.863  16.612   6.551 -0.3768 -0.1207 -0.2091
  724loPI   C3B10235   6.858  16.730   7.002 -0.3235 -0.1108  0.1645
  724loPI   C4B10236   6.897  16.758   7.412 -0.0216 -0.1209 -0.2890
  725loPI    C110237  14.379   7.926   5.322  0.2682  0.0622 -0.1093
  725loPI    C210238  14.468   7.564   5.178 -0.2114 -0.1230  0.0399
  725loPI    C310239  14.204   7.795   4.988  0.1706  0.2003 -0.1130
  725loPI   PO410240  14.340   7.805   5.621  0.1240 -0.0534  0.0242
  725loPI   GL110241  14.412   7.972   5.989 -0.0786  0.0524  0.3431
  725loPI   GL210242  14.538   7.620   6.038 -0.3134 -0.3850  0.3799
  725loPI   C1A10243  14.426   7.977   6.432 -0.2659  0.0909 -0.1236
  725loPI   C2A10244  14.680   7.946   6.619 -0.2444 -0.0494 -0.0231
  725loPI   C3A10245  14.789   8.047   7.045 -0.1527  0.0683 -0.1510
  725loPI   C4A10246  14.846   7.778   7.502 -0.1041  0.2166  0.2422
  725loPI   C5A10247  14.617   7.495   7.856  0.0604 -0.1074 -0.1443
  725loPI   C6A10248  14.585   7.129   8.121  0.0371 -0.1683 -0.0427
  725loPI   C1B10249  14.471   7.509   6.503  0.0400  0.0911  0.2723
  725loPI   C2B10250  14.660   7.543   6.924 -0.4272  0.0756 -0.2083
  725loPI   C3B10251  14.441   7.472   7.308  0.0917 -0.3192  0.1697
  725loPI   C4B10252  14.410   7.130   7.625 -0.0580 -0.1353  0.2509
  726loPI    C110253  15.151   2.075   5.235  0.0462 -0.0720 -0.1329
  726loPI    C210254  15.081   1.788   4.966  0.1267 -0.0860 -0.1391
  726loPI    C310255  15.190   2.153   4.845  0.1435 -0.0868 -0.1265
  726loPI   PO410256  15.386   2.021   5.418 -0.0644  0.3078 -0.1727
  726loPI   GL110257  15.453   1.981   5.824 -0.3168  0.4491 -0.2329
  726loPI   GL210258  15.101   1.896   5.839  0.0350 -0.0959 -0.1933
  726loPI   C1A10259  15.430   1.824   6.286  0.2251 -0.2598  0.0875
  726loPI   C2A10260  15.341   1.634   6.755  0.1636  0.2416 -0.0628
  726loPI   C3A10261  15.527   1.285   6.960 -0.0719 -0.1249  0.0307
  726loPI   C4A10262  15.441   1.073   7.326  0.0201  0.1848  0.1438
  726loPI   C5A10263  15.084   0.800   7.509 -0.1431  0.2185  0.1981
  726loPI   C6A10264  14.633   0.656   7.643  0.4001 -0.0686  0.0025
  726loPI   C1B10265  14.937   1.829   6.261 -0.0644 -0.0052  0.2070
  726loPI   C2B10266  14.887   1.925   6.655 -0.0785  0.3158 -0.1547
  726loPI   C3B10267  14.904   1.752   7.115 -0.0775  0.1746 -0.0373
  726loPI   C4B10268  14.968   1.475   7.387 -0.0920 -0.4079 -0.0933
  727loPI    C110269   5.019   8.148   5.232 -0.2091  0.0783  0.0367
  727loPI    C210270   4.631   8.076   5.300 -0.1161 -0.0872  0.4190
  727loPI    C310271   4.832   7.856   5.032 -0.3853  0.2860 -0.1059
  727loPI   PO410272   5.114   8.075   5.523 -0.1408  0.0095 -0.1507
  727loPI   GL110273   4.810   8.298   5.782 -0.0490  0.0207  0.0329
  727loPI   GL210274   4.916   8.693   5.793  0.1354 -0.3168  0.1342
  727loPI   C1A10275   4.826   8.310   6.228 -0.0828 -0.0563  0.0683
  727loPI   C2A10276   4.806   8.324   6.775 -0.1275  0.3069  0.1378
  727loPI   C3A10277   4.775   8.472   7.162 -0.2294  0.0377  0.4527
  727loPI   C4A10278   5.006   8.270   7.397  0.3254 -0.0344  0.2129
  727loPI   C5A10279   4.850   7.861   7.682 -0.3715 -0.0009 -0.4966
  727loPI   C6A10280   4.812   7.546   7.874 -0.2472 -0.2349 -0.2385
  727loPI   C1B10281   5.161   8.754   6.048  0.0655 -0.0334 -0.1514
  727loPI   C2B10282   5.135   8.658   6.530 -0.0115  0.3942  0.2410
  727loPI   C3B10283   5.242   8.545   6.977 -0.1541  0.0508 -0.2842
  727loPI   C4B10284   5.142   8.797   7.430  0.0440  0.0774  0.3680
  728loPI    C110285   0.177  13.510   5.231 -0.0011  0.0245  0.1465
  728loPI    C210286  -0.004  13.686   4.920  0.2087  0.0856  0.0569
  728loPI    C310287   0.335  13.480   4.864  0.0706 -0.1844  0.1927
  728loPI   PO410288   0.084  13.615   5.427  0.2232 -0.0993  0.0099
  728loPI   GL110289   0.180  13.350   5.750  0.2310  0.1559  0.1957
  728loPI   GL210290   0.213  13.067   5.827 -0.4565 -0.3839 -0.3698
  728loPI   C1A10291  -0.084  13.343   6.126 -0.4848 -0.3434  0.0380
  728loPI   C2A10292  -0.222  13.049   6.438 -0.2961  0.1293 -0.1989
  728loPI   C3A10293   0.073  12.908   6.803 -0.0177 -0.0167 -0.0890
  728loPI   C4A10294   0.044  12.880   7.252  0.1373  0.3876  0.2972
  728loPI   C5A10295   0.284  12.915   7.595  0.2064 -0.0103  0.0197
  728loPI   C6A10296   0.609  13.185   7.711 -0.0058  0.2969 -0.0266
  728loPI   C1B10297   0.267  12.837   6.170  0.1939  0.0772  0.1230
  728loPI   C2B10298   0.449  12.721   6.591  0.1377  0.2099 -0.2591
  728loPI   C3B10299   0.494  12.580   6.907  0.0502 -0.0433 -0.0347
  728loPI   C4B10300   0.370  12.418   7.311  0.2576 -0.3755  0.1744
  729loPI    C110301  12.736   3.579   5.175  0.1197 -0.0367  0.0673
  729loPI    C210302  12.608   3.254   4.981 -0.0480  0.0966 -0.0488
  729loPI    C310303  12.366   3.440   5.239  0.0322  0.1540 -0.0149
  729loPI   PO410304  13.037   3.492   5.194 -0.3958 -0.0217  0.0440
  729loPI   GL110305  13.274   3.626   5.530 -0.1490 -0.0468  0.2758
  729loPI   GL210306  13.502   3.974   5.452 -0.0472 -0.0042  0.2370
  729loPI   C1A10307  13.219   3.560   6.036  0.2131 -0.0181 -0.3064
  729loPI   C2A10308  13.281   3.488   6.529 -0.1032  0.0292 -0.0221
  729loPI   C3A10309  13.513   3.662   6.911  0.1837  0.3034  0.0750
  729loPI   C4A10310  13.697   3.859   7.136 -0.0794 -0.2439 -0.0285
  729loPI   C5A10311  13.489   4.064   7.414  0.0768 -0.0971  0.0023
  729loPI   C6A10312  13.325   4.349   7.609  0.1103  0.1162  0.0150
  729loPI   C1B10313  13.616   3.899   5.818 -0.0438 -0.0435 -0.2142
  729loPI   C2B10314  13.603   3.808   6.227 -0.0177  0.1995  0.1467
  729loPI   C3B10315  13.758   3.942   6.601  0.2879  0.2623  0.3502
  729loPI   C4B10316  13.522   4.282   6.925  0.1823  0.0823 -0.0045
  730loPI    C110317   8.803  17.342   5.316 -0.0028  0.1371  0.1299
  730loPI    C210318   9.030  17.516   5.036 -0.1227 -0.0007 -0.0555
  730loPI    C310319   8.650  17.631   5.086 -0.0906  0.0494  0.0775
  730loPI   PO410320   8.895  17.256   5.466 -0.0485  0.1149  0.0790
  730loPI   GL110321   8.658  17.302   5.770 -0.2769 -0.1713 -0.1294
  730loPI   GL210322   8.435  17.566   5.611  0.3990  0.2368 -0.4208
  730loPI   C1A10323   8.535  17.335   6.129 -0.0258 -0.1981  0.0743
  730loPI   C2A10324   8.453  17.555   6.540 -0.1242  0.1630  0.2404
  730loPI   C3A10325   8.453  17.612   6.951 -0.1450 -0.0763  0.0403
  730loPI   C4A10326   8.406  17.727   7.233 -0.0825  0.1783 -0.3723
  730loPI   C5A10327   8.362  17.959   7.544  0.0979  0.3448 -0.0799
  730loPI   C6A10328   8.307  18.309   7.904  0.3040  0.1608 -0.0381
  730loPI   C1B10329   8.566  17.811   5.910  0.1222 -0.1107 -0.1055
  730loPI   C2B10330   8.393  18.039   6.284  0.0549  0.2449  0.0307
  730loPI   C3B10331   8.308  17.995   6.712 -0.0023  0.1456 -0.2528
  730loPI   C4B10332   8.111  18.112   7.162 -0.0945 -0.1742  0.1479
  731loPI    C110333  14.688  13.505   5.451  0.1257 -0.1161 -0.2973
  731loPI    C210334  14.450  13.346   5.171 -0.0399 -0.1107 -0.1611
  731loPI    C310335  14.732  13.610   5.067 -0.0296 -0.1894 -0.3361
  731loPI   PO410336  14.541  13.658   5.676 -0.1037  0.1466 -0.1987
  731loPI   GL110337  14.422  13.486   6.058 -0.2514  0.4433  0.1894
  731loPI   GL210338  14.391  13.139   6.088 -0.1612 -0.0037 -0.4190
  731loPI   C1A10339  14.513  13.352   6.526 -0.0241 -0.3349  0.0796
  731loPI   C2A10340  14.626  13.341   6.948  0.2127  0.0534  0.5294
  731loPI   C3A10341  14.686  12.984   7.209 -0.1553  0.0036 -0.2263
  731loPI   C4A10342  14.746  12.626   7.270  0.0796 -0.2972 -0.2202
  731loPI   C5A10343  14.958  12.157   7.242  0.0177  0.0984  0.2712
  731loPI   C6A10344  15.417  11.992   7.234  0.4652 -0.3450  0.0485
  731loPI   C1B10345  14.522  12.862   6.308 -0.0218  0.2628  0.1059
  731loPI   C2B10346  14.649  12.833   6.736 -0.1022  0.1936  0.0079
  731loPI   C3B10347  15.033  12.915   6.851  0.0210  0.0355  0.1501
  731loPI   C4B10348  15.118  13.195   7.191 -0.3194  0.0905  0.1000
  732loPI    C110349  18.099   1.106   5.873 -0.0614  0.0325  0.0606
  732loPI    C210350  18.054   1.182   5.483 -0.1833 -0.3238  0.0007
  732loPI    C310351  18.167   0.818   5.604 -0.2082 -0.2342  0.3029
  732loPI   PO410352  17.848   1.134   5.984 -0.0097  0.0941  0.3693
  732loPI   GL110353  17.622   1.156   6.388  0.1249 -0.4844  0.1418
  732loPI   GL210354  17.879   0.898   6.438  0.3908  0.0109  0.0697
  732loPI   C1A10355  17.540   1.269   6.760  0.1353 -0.3658 -0.2468
  732loPI   C2A10356  17.546   1.195   7.123  0.0327  0.0200  0.4389
  732loPI   C3A10357  17.723   1.403   7.484  0.2369  0.3953 -0.0093
  732loPI   C4A10358  17.948   1.474   7.834  0.1617  0.1152  0.2002
  732loPI   C5A10359  17.763   1.221   8.143  0.1415 -0.1560 -0.0250
  732loPI   C6A10360  17.280   0.973   8.278 -0.3311 -0.0697 -0.0127
  732loPI   C1B10361  18.050   1.038   6.795  0.1423 -0.6007 -0.0751
  732loPI   C2B10362  17.994   1.023   7.325 -0.1350  0.0001  0.0632
  732loPI   C3B10363  18.106   0.919   7.661  0.1582  0.0367  0.3726
  732loPI   C4B10364  18.125   0.881   8.032  0.0724 -0.0282  0.1789
  733loPI    C110365   2.377   3.504   5.175  0.1452 -0.0677 -0.2452
  733loPI    C210366   2.129   3.331   4.913  0.1733 -0.1516 -0.2164
  733loPI    C310367   2.427   3.120   5.077  0.0138 -0.1655  0.0608
  733loPI   PO410368   2.220   3.560   5.432 -0.0313 -0.1772 -0.1374
  733loPI   GL110369   2.073   3.998   5.565  0.1545  0.0842  0.0613
  733loPI   GL210370   1.771   4.037   5.664  0.0624 -0.3353 -0.3585
  733loPI   C1A10371   2.199   4.096   6.032  0.3220 -0.0153 -0.1498
  733loPI   C2A10372   2.233   4.183   6.414 -0.0649  0.1437  0.0615
  733loPI   C3A10373   2.188   4.251   6.830 -0.3004 -0.0620 -0.0046
  733loPI   C4A10374   2.194   4.022   7.179 -0.3513  0.0046 -0.1502
  733loPI   C5A10375   2.558   3.880   7.369  0.1228 -0.1676  0.0899
  733loPI   C6A10376   2.813   3.976   7.822  0.2695 -0.0189 -0.1046
  733loPI   C1B10377   1.605   4.091   6.065  0.2225  0.0236 -0.3452
  733loPI   C2B10378   1.272   4.051   6.458  0.0809  0.0712 -0.0429
  733loPI   C3B10379   1.273   4.184   6.834 -0.1479  0.1792 -0.1852
  733loPI   C4B10380   1.036   4.241   7.209 -0.3589  0.0789  0.1891
  734loPI    C110381  15.016   6.710   5.055  0.0417 -0.0906  0.1666
  734loPI    C210382  14.794   6.421   4.891  0.0603 -0.1089  0.1737
  734loPI    C310383  14.618   6.715   5.097  0.0028  0.1164 -0.1868
  734loPI   PO410384  15.201   6.612   5.234  0.1713 -0.5619  0.1784
  734loPI   GL110385  15.340   6.693   5.620  0.0349  0.1552 -0.3209
  734loPI   GL210386  15.197   6.846   5.740  0.2928 -0.1064 -0.0719
  734loPI   C1A10387  15.599   6.420   5.887  0.1812 -0.0527 -0.0515
  734loPI   C2A10388  15.726   6.452   6.277 -0.0551 -0.0955 -0.1796
  734loPI   C3A10389  15.536   6.731   6.428  0.2332  0.1096  0.1423
  734loPI   C4A10390  15.687   6.816   6.807 -0.0329  0.2630  0.0971
  734loPI   C5A10391  15.744   6.991   7.144  0.1935  0.0747 -0.1166
  734loPI   C6A10392  15.676   7.132   7.480  0.0423 -0.1650  0.6301
  734loPI   C1B10393  15.118   6.607   6.111 -0.2914  0.2184  0.0059
  734loPI   C2B10394  15.043   6.598   6.641 -0.0147  0.0056 -0.2891
  734loPI   C3B10395  14.956   6.513   7.093  0.0167 -0.0958  0.0698
  734loPI   C4B10396  14.854   6.287   7.494  0.2322 -0.1954 -0.1672
  735loPI    C110397  14.889   4.343   4.694  0.1378 -0.0808 -0.0639
  735loPI    C210398  14.946   3.964   4.581  0.1082 -0.0646 -0.1341
  735loPI    C310399  14.952   4.257   4.308  0.1185 -0.0159 -0.0818
  735loPI   PO410400  14.827   4.307   4.968  0.0539 -0.0124  0.3165
  735loPI   GL110401  15.060   4.373   5.285 -0.0529 -0.1902 -0.1719
  735loPI   GL210402  15.373   4.258   5.367  0.0217 -0.1151  0.2415
  735loPI   C1A10403  14.873   4.288   5.670 -0.1147 -0.2705 -0.2541
  735loPI   C2A10404  14.921   4.236   6.117  0.2649 -0.2106 -0.2711
  735loPI   C3A10405  15.273   4.073   6.458  0.2280  0.0481  0.1059
  735loPI   C4A10406  15.408   3.813   6.663 -0.1086  0.2268 -0.0523
  735loPI   C5A10407  15.603   3.490   6.827  0.1675  0.0522 -0.2599
  735loPI   C6A10408  15.545   3.161   7.076 -0.0435 -0.0015 -0.5156
  735loPI   C1B10409  15.325   4.212   5.752  0.0688 -0.3907 -0.2273
  735loPI   C2B10410  15.429   4.474   6.054  0.0968  0.2751 -0.1626
  735loPI   C3B10411  15.381   4.945   6.200  0.0638  0.0378 -0.2049
  735loPI   C4B10412  15.268   5.213   5.863 -0.0937 -0.0272  0.0056
  736loPI    C110413  16.878   1.084   5.769 -0.1572 -0.3112 -0.0198
  736loPI    C210414  17.152   0.871   5.571  0.1919  0.1424 -0.0409
  736loPI    C310415  16.894   1.102   5.370 -0.0647 -0.1087 -0.0078
  736loPI   PO410416  16.859   0.966   6.126 -0.0081 -0.4846  0.0760
  736loPI   GL110417  16.822   0.742   6.586 -0.0117 -0.1581 -0.1579
  736loPI   GL210418  16.769   0.501   6.313  0.0866  0.4184 -0.2477
  736loPI   C1A10419  16.730   0.636   6.976 -0.0890 -0.0496 -0.1215
  736loPI   C2A10420  16.760   0.699   7.329  0.0881  0.0337 -0.1055
  736loPI   C3A10421  16.805   0.938   7.675 -0.0495 -0.1320 -0.2343
  736loPI   C4A10422  16.918   0.740   8.037 -0.0519 -0.3103 -0.0691
  736loPI   C5A10423  16.921   0.467   8.392 -0.1521  0.1868  0.0918
  736loPI   C6A10424  17.125   0.399   8.672  0.0010  0.0696  0.0187
  736loPI   C1B10425  16.488   0.280   6.713 -0.0536  0.4981  0.0122
  736loPI   C2B10426  16.393   0.297   7.187 -0.0656  0.0155 -0.2499
  736loPI   C3B10427  16.248   0.452   7.462 -0.0894 -0.0472 -0.3012
  736loPI   C4B10428  16.095   0.603   7.913  0.2668  0.0925 -0.1228
  737loPI    C110429   9.593   0.254   5.214  0.1598 -0.0593  0.0457
  737loPI    C210430   9.242   0.067   5.260  0.1137 -0.0543 -0.2632
  737loPI    C310431   9.302   0.307   4.945  0.2457  0.2893  0.0162
  737loPI   PO410432   9.687   0.392   5.460 -0.0756 -0.0154  0.1598
  737loPI   GL110433   9.749   0.245   5.825  0.0613 -0.0346 -0.1632
  737loPI   GL210434   9.447   0.090   5.743  0.0729  0.0193  0.1613
  737loPI   C1A10435   9.500   0.395   6.211 -0.1287 -0.2100  0.0092
  737loPI   C2A10436   9.487   0.398   6.718  0.0147 -0.0703  0.0918
  737loPI   C3A10437   9.549   0.345   7.062 -0.0995 -0.0814 -0.1550
  737loPI   C4A10438   9.386   0.111   7.437 -0.0320  0.2035  0.2571
  737loPI   C5A10439   9.333  -0.178   7.818  0.0295 -0.1813 -0.0575
  737loPI   C6A10440   9.177  -0.551   7.843 -0.0723 -0.0033  0.1295
  737loPI   C1B10441   9.154   0.123   6.017 -0.2448 -0.2939 -0.0621
  737loPI   C2B10442   8.942   0.186   6.331 -0.4941  0.0121  0.1049
  737loPI   C3B10443   8.835   0.196   6.772 -0.2485  0.0715 -0.1055
  737loPI   C4B10444   8.957   0.235   7.162  0.1006  0.2723 -0.0443
  738loPI    C110445   0.071   6.401   5.310 -0.0140  0.0745 -0.0412
  738loPI    C210446   0.182   6.749   5.146  0.1432  0.0680  0.0491
  738loPI    C310447   0.411   6.424   5.100 -0.1415 -0.0941 -0.2706
  738loPI   PO410448  -0.066   6.453   5.468  0.1998 -0.0482  0.0319
  738loPI   GL110449  -0.355   6.508   5.620  0.2263  0.1963 -0.1437
  738loPI   GL210450  -0.330   6.104   5.781  0.0895 -0.2313  0.1362
  738loPI   C1A10451  -0.320   6.667   6.092  0.1414  0.0223  0.0002
  738loPI   C2A10452  -0.231   6.619   6.485 -0.1481 -0.1136 -0.1844
  738loPI   C3A10453  -0.280   6.700   6.919  0.0335 -0.0060  0.1274
  738loPI   C4A10454  -0.289   6.834   7.430 -0.0047 -0.2500 -0.2081
  738loPI   C5A10455  -0.237   6.764   7.829  0.0912  0.1380  0.3848
  738loPI   C6A10456  -0.550   6.674   8.068 -0.1573  0.1654  0.3416
  738loPI   C1B10457  -0.612   6.197   6.010 -0.1746 -0.1462 -0.1173
  738loPI   C2B10458  -0.630   6.143   6.408  0.0486  0.0559  0.1669
  738loPI   C3B10459  -0.534   6.181   6.848 -0.0733  0.0111 -0.0030
  738loPI   C4B10460  -0.304   6.255   7.238 -0.2786  0.2084 -0.0292
  739loPI    C110461   4.348   1.290   5.457 -0.1677  0.1511  0.0180
  739loPI    C210462   4.694   1.199   5.635 -0.2196 -0.1938 -0.0503
  739loPI    C310463   4.694   1.370   5.274 -0.1191  0.1316  0.1004
  739loPI   PO410464   4.225   1.306   5.785 -0.3333 -0.0447  0.0016
  739loPI   GL110465   4.337   1.201   6.159 -0.3170 -0.2111 -0.0019
  739loPI   GL210466   4.287   1.628   6.276 -0.0489 -0.1694  0.0226
  739loPI   C1A10467   4.320   0.892   6.456 -0.1193  0.0177 -0.0649
  739loPI   C2A10468   4.282   0.545   6.633 -0.1179 -0.2668  0.1280
  739loPI   C3A10469   4.271   0.510   7.116 -0.0178 -0.1630 -0.1861
  739loPI   C4A10470   4.430   0.281   7.479 -0.0058  0.0750  0.2689
  739loPI   C5A10471   4.788   0.088   7.473 -0.1601  0.0436 -0.1240
  739loPI   C6A10472   5.167  -0.077   7.512  0.2472 -0.2317 -0.1248
  739loPI   C1B10473   4.082   1.850   6.504  0.3069  0.0825 -0.1578
  739loPI   C2B10474   3.858   1.966   6.863 -0.0262 -0.1820  0.3305
  739loPI   C3B10475   3.879   2.337   7.134 -0.3667  0.2226  0.1804
  739loPI   C4B10476   4.016   2.669   7.411  0.1931 -0.0852 -0.0035
  740loPI    C110477  12.148  16.277   5.827  0.1255 -0.1869 -0.1016
  740loPI    C210478  12.317  16.594   5.650 -0.0874 -0.0560 -0.0743
  740loPI    C310479  12.411  16.224   5.530  0.1057  0.0187 -0.1575
  740loPI   PO410480  12.182  16.218   6.119 -0.2131  0.1384 -0.2624
  740loPI   GL110481  12.393  16.134   6.476  0.1892  0.0112  0.0426
  740loPI   GL210482  12.185  15.869   6.576  0.0491  0.0076 -0.0730
  740loPI   C1A10483  12.523  16.356   6.861 -0.0055 -0.1796  0.2530
  740loPI   C2A10484  12.650  16.201   7.360  0.0846  0.2487 -0.1428
  740loPI   C3A10485  12.745  15.886   7.642  0.3699 -0.0585  0.1410
  740loPI   C4A10486  12.675  15.754   8.132  0.0879  0.1715 -0.0950
  740loPI   C5A10487  12.581  15.816   8.588 -0.0731  0.0637  0.3799
  740loPI   C6A10488  12.339  16.055   8.816  0.0110 -0.0191  0.0250
  740loPI   C1B10489  12.211  15.976   7.035 -0.0466  0.1018 -0.1655
  740loPI   C2B10490  12.184  16.076   7.455 -0.0635 -0.5632  0.0558
  740loPI   C3B10491  11.838  16.006   7.855  0.0511  0.0740  0.2867
  740loPI   C4B10492  11.550  16.077   8.254  0.1307 -0.1534  0.1669
  741loPI    C110493  13.352   5.042   4.912 -0.2325 -0.0305  0.0927
  741loPI    C210494  13.320   4.758   4.631  0.2050 -0.1090  0.1150
  741loPI    C310495  13.291   5.144   4.530 -0.0584 -0.1487  0.0319
  741loPI   PO410496  13.247   4.869   5.128 -0.0341  0.0457  0.0048
  741loPI   GL110497  13.018   4.923   5.381  0.1116  0.0287 -0.0322
  741loPI   GL210498  12.891   5.239   5.352 -0.0023  0.1280  0.0810
  741loPI   C1A10499  12.970   5.005   5.855  0.1915  0.2354  0.0869
  741loPI   C2A10500  12.742   4.829   6.164  0.1845  0.1894 -0.1670
  741loPI   C3A10501  12.724   4.789   6.553 -0.0612 -0.0478  0.1654
  741loPI   C4A10502  12.731   4.915   7.079  0.1107 -0.1730 -0.0107
  741loPI   C5A10503  12.491   5.049   7.481  0.2010  0.0598 -0.0341
  741loPI   C6A10504  12.584   4.916   7.801  0.1056 -0.0473 -0.0018
  741loPI   C1B10505  12.626   5.409   5.781  0.1505  0.0425  0.0216
  741loPI   C2B10506  12.782   5.338   6.210  0.1818  0.1358  0.0449
  741loPI   C3B10507  12.866   5.367   6.613  0.2621  0.3699 -0.0130
  741loPI   C4B10508  12.754   5.694   6.835 -0.0613 -0.0917  0.3404
  742loPI    C110509  14.704  16.095   5.553  0.0063  0.0356  0.0209
  742loPI    C210510  14.385  15.858   5.509 -0.0514  0.0646  0.2698
  742loPI    C310511  14.753  15.705   5.479 -0.0872  0.0216  0.0316
  742loPI   PO410512  14.689  16.227   5.721  0.1091  0.0494 -0.1471
  742loPI   GL110513  14.527  16.357   6.155  0.1915  0.1459  0.1288
  742loPI   GL210514  14.666  16.080   6.387  0.0704 -0.1777  0.1287
  742loPI   C1A10515  14.546  16.559   6.519 -0.1808  0.2713 -0.3328
  742loPI   C2A10516  14.430  16.664   6.990  0.1641 -0.1807  0.1094
  742loPI   C3A10517  14.368  16.577   7.526 -0.1611  0.0607  0.0736
  742loPI   C4A10518  14.134  16.435   7.955  0.0361 -0.3169 -0.2103
  742loPI   C5A10519  14.247  16.687   8.280 -0.2646  0.0505 -0.0503
  742loPI   C6A10520  14.315  17.170   8.235  0.1926  0.0084 -0.3433
  742loPI   C1B10521  14.599  15.964   6.868  0.1554 -0.0373  0.1669
  742loPI   C2B10522  14.190  15.786   7.029 -0.2059 -0.0281 -0.1890
  742loPI   C3B10523  13.996  15.512   7.231 -0.1628  0.1336  0.2771
  742loPI   C4B10524  13.738  15.462   7.477 -0.2065 -0.1880 -0.0915
  743loPI    C110525   7.386   4.648   4.937 -0.0315 -0.1758  0.0116
  743loPI    C210526   7.583   4.947   4.761 -0.2039 -0.2170 -0.2572
  743loPI    C310527   7.778   4.614   4.865  0.0159  0.0323  0.1604
  743loPI   PO410528   7.224   4.792   5.111  0.1547  0.3285  0.0778
  743loPI   GL110529   7.290   4.779   5.533 -0.2151  0.2996  0.0379
  743loPI   GL210530   7.109   4.987   5.804 -0.0613 -0.2763 -0.0707
  743loPI   C1A10531   7.162   4.391   5.854 -0.1279 -0.1700  0.0428
  743loPI   C2A10532   7.333   4.276   6.240  0.1533  0.0017 -0.4535
  743loPI   C3A10533   7.329   4.260   6.647 -0.1940 -0.2398  0.0062
  743loPI   C4A10534   7.327   3.939   6.973 -0.1011 -0.2612 -0.2319
  743loPI   C5A10535   7.393   3.800   7.397 -0.1033 -0.3246  0.0843
  743loPI   C6A10536   7.441   3.483   7.599  0.0081 -0.1669  0.2740
  743loPI   C1B10537   6.948   4.774   6.143  0.1136  0.1905  0.0337
  743loPI   C2B10538   6.777   4.801   6.579 -0.2129  0.4725 -0.1521
  743loPI   C3B10539   6.828   4.865   6.962 -0.0423 -0.0905  0.0428
  743loPI   C4B10540   6.751   4.708   7.378 -0.0155  0.1532  0.0282
  744loPI    C110541  11.971  15.384   6.000  0.0636  0.1985 -0.1562
  744loPI    C210542  11.616  15.540   5.901 -0.1501 -0.0701  0.1644
  744loPI    C310543  11.871  15.750   6.127 -0.0272  0.1928 -0.2102
  744loPI   PO410544  11.872  15.149   6.100 -0.0183 -0.0654  0.3348
  744loPI   GL110545  11.699  14.893   6.423 -0.1227  0.2930 -0.3238
  744loPI   GL210546  11.637  14.640   6.247  0.0216  0.0489  0.1635
  744loPI   C1A10547  11.694  15.072   6.787 -0.1791 -0.3467 -0.2841
  744loPI   C2A10548  11.605  15.269   7.220  0.0763  0.0429  0.1980
  744loPI   C3A10549  11.442  15.235   7.627  0.0811  0.0056  0.0934
  744loPI   C4A10550  11.220  15.297   7.993  0.1548 -0.1121 -0.1068
  744loPI   C5A10551  11.174  15.130   8.410 -0.0722  0.0252 -0.3867
  744loPI   C6A10552  10.997  14.770   8.734 -0.1657 -0.1469  0.1513
  744loPI   C1B10553  12.000  14.456   6.481  0.0337 -0.0214 -0.0983
  744loPI   C2B10554  12.050  14.281   6.795  0.2419 -0.0912 -0.1089
  744loPI   C3B10555  12.016  14.211   7.180 -0.0348 -0.0575  0.1583
  744loPI   C4B10556  12.100  13.933   7.403  0.0494 -0.1849  0.2002
  745loPI    C110557   2.631  12.831   5.526  0.0889  0.0431  0.0986
  745loPI    C210558   2.850  12.956   5.214 -0.1110  0.2721  0.0472
  745loPI    C310559   2.456  12.895   5.172 -0.0617 -0.1440  0.1373
  745loPI   PO410560   2.717  12.969   5.777 -0.1279 -0.1308  0.0381
  745loPI   GL110561   2.916  12.788   6.128  0.2076  0.3381  0.2589
  745loPI   GL210562   3.150  12.983   6.043 -0.0702  0.0820 -0.0065
  745loPI   C1A10563   3.111  12.705   6.508 -0.1886 -0.0544 -0.2780
  745loPI   C2A10564   3.189  12.861   6.852  0.0487  0.0325 -0.1147
  745loPI   C3A10565   3.219  12.847   7.260  0.2222 -0.1649  0.1527
  745loPI   C4A10566   3.086  12.956   7.749 -0.0448 -0.0166 -0.1743
  745loPI   C5A10567   3.222  13.125   8.168  0.0871 -0.1718 -0.1352
  745loPI   C6A10568   3.262  13.311   8.585  0.0420  0.2119 -0.0374
  745loPI   C1B10569   3.292  13.175   6.426 -0.2248  0.2258  0.0639
  745loPI   C2B10570   3.100  13.484   6.706 -0.1700  0.0717 -0.1944
  745loPI   C3B10571   3.258  13.311   7.073 -0.0752  0.0478 -0.0285
  745loPI   C4B10572   3.575  13.520   7.330 -0.0535  0.1233 -0.2842
  746loPI    C110573   3.586   1.621   5.481  0.2866  0.3017 -0.2020
  746loPI    C210574   3.771   1.272   5.414 -0.0017  0.1093 -0.0185
  746loPI    C310575   3.714   1.530   5.113  0.3342  0.0608 -0.1275
  746loPI   PO410576   3.644   1.590   5.771  0.1042 -0.0572  0.0119
  746loPI   GL110577   3.740   1.752   6.109 -0.0352  0.1296 -0.1209
  746loPI   GL210578   3.832   2.088   6.139  0.2048  0.2086  0.1308
  746loPI   C1A10579   3.364   1.691   6.467 -0.5215 -0.0909  0.3071
  746loPI   C2A10580   3.154   1.443   6.872 -0.1139 -0.0321 -0.1583
  746loPI   C3A10581   3.110   1.297   7.314  0.1120  0.0558 -0.0344
  746loPI   C4A10582   2.989   1.190   7.741 -0.1902 -0.0453  0.2090
  746loPI   C5A10583   2.727   1.242   8.134  0.0411 -0.2128 -0.2231
  746loPI   C6A10584   2.676   1.314   8.586 -0.0924 -0.1514 -0.0662
  746loPI   C1B10585   3.901   2.484   6.466 -0.0597  0.0403  0.0331
  746loPI   C2B10586   4.097   2.772   6.831  0.4092 -0.1490 -0.0062
  746loPI   C3B10587   3.929   3.082   7.106 -0.0535  0.1164  0.0524
  746loPI   C4B10588   3.960   3.210   7.650  0.0757  0.0949 -0.0638
  747loPI    C110589   0.452  16.527   5.583  0.1115  0.3378 -0.0032
  747loPI    C210590   0.666  16.247   5.394  0.0835  0.1925  0.1770
  747loPI    C310591   0.331  16.389   5.227  0.1656  0.2123  0.0268
  747loPI   PO410592   0.703  16.575   5.841 -0.1594 -0.3504 -0.1211
  747loPI   GL110593   0.630  16.431   6.254 -0.1083 -0.3223 -0.0766
  747loPI   GL210594   0.797  16.285   6.369 -0.3011  0.3901  0.1392
  747loPI   C1A10595   0.570  16.498   6.767  0.4452 -0.1142 -0.1964
  747loPI   C2A10596   0.800  16.446   7.090 -0.2079 -0.1733  0.0934
  747loPI   C3A10597   0.821  16.468   7.514 -0.0443 -0.0531 -0.0289
  747loPI   C4A10598   0.927  16.702   7.843 -0.4276  0.2427 -0.0115
  747loPI   C5A10599   0.814  17.069   8.043  0.0136  0.0199  0.0165
  747loPI   C6A10600   0.802  17.486   8.009 -0.0577 -0.0718 -0.0651
  747loPI   C1B10601   0.869  16.083   6.711  0.2362  0.0848 -0.1418
  747loPI   C2B10602   0.940  15.927   7.109 -0.2262  0.2688 -0.1671
  747loPI   C3B10603   0.952  15.872   7.551 -0.3037 -0.1376 -0.4564
  747loPI   C4B10604   0.988  16.048   7.972 -0.2695 -0.1069  0.2696
  748loPI    C110605   1.462   2.413   5.372  0.0436 -0.0608  0.0055
  748loPI    C210606   1.579   2.097   5.587 -0.1148 -0.3106 -0.2687
  748loPI    C310607   1.348   2.045   5.264 -0.0291  0.0747 -0.3967
  748loPI   PO410608   1.402   2.616   5.640 -0.1649 -0.0629 -0.0338
  748loPI   GL110609   1.557   2.694   6.059  0.0247 -0.3614  0.1596
  748loPI   GL210610   1.532   2.375   6.100  0.3249  0.1976  0.2855
  748loPI   C1A10611   1.538   2.738   6.463 -0.0781 -0.1741 -0.1466
  748loPI   C2A10612   1.560   2.849   6.943  0.1436 -0.2963  0.1569
  748loPI   C3A10613   1.434   3.198   7.262  0.2325 -0.0885 -0.1769
  748loPI   C4A10614   1.607   3.429   7.622 -0.0739 -0.0590 -0.3792
  748loPI   C5A10615   1.898   3.638   7.835  0.1477 -0.1241  0.0024
  748loPI   C6A10616   2.144   4.054   7.708 -0.1384 -0.1526 -0.1531
  748loPI   C1B10617   1.607   2.227   6.403  0.4152  0.0122 -0.0232
  748loPI   C2B10618   1.544   2.358   6.860  0.3473  0.2646  0.2463
  748loPI   C3B10619   1.457   2.362   7.280  0.0085  0.0746  0.0502
  748loPI   C4B10620   1.576   2.755   7.449  0.2468 -0.0369 -0.0725
  749loPI    C110621  11.180   4.502   4.966 -0.1710  0.1079  0.1023
  749loPI    C210622  10.831   4.549   4.776 -0.0953 -0.0384 -0.0754
  749loPI    C310623  11.072   4.244   4.680  0.2206  0.2340 -0.1674
  749loPI   PO410624  11.161   4.475   5.275  0.2266  0.0667  0.1715
  749loPI   GL110625  11.224   4.233   5.698  0.4345  0.3535 -0.2426
  749loPI   GL210626  11.039   3.906   5.698 -0.0371 -0.0676 -0.2205
  749loPI   C1A10627  11.376   4.364   5.987 -0.1927 -0.0461 -0.2019
  749loPI   C2A10628  11.371   4.363   6.390 -0.2241  0.0313  0.1398
  749loPI   C3A10629  11.299   4.323   6.787 -0.1128  0.0796  0.0334
  749loPI   C4A10630  11.206   4.204   7.253 -0.0005 -0.0570  0.0903
  749loPI   C5A10631  11.185   3.922   7.517  0.1645  0.1463  0.0317
  749loPI   C6A10632  10.990   3.643   7.775  0.0318  0.1541 -0.3024
  749loPI   C1B10633  11.082   3.883   6.147 -0.0988  0.0943  0.1895
  749loPI   C2B10634  11.119   3.931   6.502  0.0251  0.3451  0.1196
  749loPI   C3B10635  11.156   3.807   6.920 -0.1199 -0.1752  0.1501
  749loPI   C4B10636  10.966   3.601   7.173 -0.0270  0.0410  0.0037
  750loPI    C110637  18.173  18.336   5.871  0.1944 -0.0666  0.0129
  750loPI    C210638  17.792  18.329   5.750  0.1655  0.0387  0.0974
  750loPI    C310639  18.073  18.146   5.533  0.0728 -0.0066  0.0146
  750loPI   PO410640  18.190  18.553   6.009 -0.3324 -0.1367  0.0408
  750loPI   GL110641  18.175  18.746   6.453 -0.1421  0.3637  0.2989
  750loPI   GL210642  18.214  18.585   6.714 -0.2174 -0.0417 -0.0299
  750loPI   C1A10643  17.853  18.942   6.671  0.1564 -0.2434  0.0174
  750loPI   C2A10644  17.682  19.230   6.895  0.0740 -0.2161  0.0546
  750loPI   C3A10645  17.568  19.363   7.453  0.0838 -0.1183  0.0123
  750loPI   C4A10646  17.614  19.293   7.867 -0.0417 -0.0927  0.1694
  750loPI   C5A10647  17.676  19.088   8.162 -0.2410  0.2568 -0.0492
  750loPI   C6A10648  17.628  18.907   8.548 -0.2005  0.0181 -0.1678
  750loPI   C1B10649  18.297  18.719   7.238  0.1471  0.1738 -0.2235
  750loPI   C2B10650  18.436  19.036   7.450 -0.1042  0.1692  0.3255
  750loPI   C3B10651  18.619  19.355   7.672  0.1048  0.2618  0.3346
  750loPI   C4B10652  18.688  19.470   7.999  0.0233  0.3497  0.0710
  751loPI    C110653   8.462   5.906   5.306  0.5881  0.1986 -0.0725
  751loPI    C210654   8.604   6.273   5.379 -0.0852  0.5298 -0.3489
  751loPI    C310655   8.486   6.173   5.010  0.1131  0.0189 -0.2821
  751loPI   PO410656   8.317   5.823   5.521 -0.0590 -0.2180  0.1542
  751loPI   GL110657   8.042   5.899   5.806 -0.0858  0.2137 -0.0675
  751loPI   GL210658   7.966   5.571   5.823 -0.4177 -0.1657 -0.1481
  751loPI   C1A10659   8.060   6.100   6.156  0.2081 -0.2078 -0.0442
  751loPI   C2A10660   8.087   5.951   6.555 -0.2895  0.3178 -0.4403
  751loPI   C3A10661   8.073   5.809   6.929 -0.1351  0.4096  0.2946
  751loPI   C4A10662   7.926   5.808   7.304  0.1303  0.1887  0.2352
  751loPI   C5A10663   7.685   6.060   7.650  0.0373  0.1153 -0.0234
  751loPI   C6A10664   7.876   6.394   7.933 -0.0969  0.0094  0.0459
  751loPI   C1B10665   7.860   5.574   6.180  0.0780 -0.0533 -0.0315
  751loPI   C2B10666   7.749   5.534   6.653 -0.0446  0.1827 -0.0528
  751loPI   C3B10667   7.741   5.352   7.157  0.0751 -0.0726  0.0204
  751loPI   C4B10668   7.550   5.307   7.604 -0.0293  0.1654 -0.3024
  752loPI    C110669  15.177   7.632   5.526  0.1600  0.1297  0.0181
  752loPI    C210670  14.954   7.478   5.232  0.0305  0.0695  0.1468
  752loPI    C310671  14.828   7.801   5.430  0.0954  0.0823  0.1676
  752loPI   PO410672  15.199   7.387   5.658  0.1436 -0.0002 -0.0005
  752loPI   GL110673  14.975   7.243   6.014  0.2353 -0.1562 -0.1035
  752loPI   GL210674  14.784   6.987   5.946  0.0400 -0.0972 -0.0300
  752loPI   C1A10675  15.286   7.188   6.229 -0.1207 -0.2394 -0.1186
  752loPI   C2A10676  15.650   7.339   6.518  0.0561  0.0621  0.2114
  752loPI   C3A10677  15.685   7.429   6.964 -0.0361 -0.2136 -0.0343
  752loPI   C4A10678  15.681   7.601   7.259  0.2136 -0.2928  0.0793
  752loPI   C5A10679  15.823   7.540   7.689  0.1165  0.0531  0.1383
  752loPI   C6A10680  15.618   7.408   8.024 -0.1214  0.2081 -0.1094
  752loPI   C1B10681  14.722   7.075   6.387 -0.1345 -0.0533  0.4099
  752loPI   C2B10682  14.917   7.091   6.670  0.0694 -0.3669 -0.1640
  752loPI   C3B10683  15.223   6.963   6.929 -0.2543  0.1286 -0.0162
  752loPI   C4B10684  15.304   6.778   7.332  0.1534  0.0044 -0.2148
  753loPI    C110685   8.692   7.620   4.905  0.1256 -0.1825 -0.0819
  753loPI    C210686   9.021   7.517   4.704  0.0433 -0.2247 -0.1960
  753loPI    C310687   8.702   7.655   4.507  0.0177 -0.1156 -0.0792
  753loPI   PO410688   8.803   7.525   5.153  0.1190 -0.2033 -0.1556
  753loPI   GL110689   8.786   7.250   5.555 -0.1818 -0.0638 -0.1487
  753loPI   GL210690   8.428   7.239   5.678 -0.1410  0.3645  0.2732
  753loPI   C1A10691   8.775   7.136   6.011 -0.1076  0.0513 -0.0470
  753loPI   C2A10692   8.624   6.955   6.443  0.1240 -0.2714 -0.0279
  753loPI   C3A10693   8.498   6.906   6.815  0.2859 -0.0529  0.0884
  753loPI   C4A10694   8.508   6.706   7.175  0.1525 -0.1455 -0.0943
  753loPI   C5A10695   8.625   6.593   7.570 -0.0739 -0.0885 -0.0215
  753loPI   C6A10696   8.818   6.703   7.942  0.1167  0.1844 -0.1354
  753loPI   C1B10697   8.306   7.011   6.027 -0.0322 -0.0425 -0.0436
  753loPI   C2B10698   8.094   7.033   6.453  0.2194  0.0737 -0.3219
  753loPI   C3B10699   8.030   6.880   6.839 -0.0390  0.0101 -0.1226
  753loPI   C4B10700   8.053   6.771   7.233  0.1406 -0.0902  0.4915
  754loPI    C110701  15.871  15.320   5.645 -0.2525  0.1138 -0.0912
  754loPI    C210702  16.088  15.052   5.442 -0.1050 -0.0589  0.2841
  754loPI    C310703  15.729  15.164   5.305  0.0703 -0.0254 -0.1667
  754loPI   PO410704  15.946  15.344   5.910  0.1160 -0.1386  0.1757
  754loPI   GL110705  16.022  15.076   6.168 -0.2236 -0.3779 -0.1573
  754loPI   GL210706  16.289  15.064   6.257 -0.1081 -0.0017  0.3120
  754loPI   C1A10707  16.000  15.238   6.639  0.2478  0.1035  0.3171
  754loPI   C2A10708  15.971  15.404   7.032  0.0870  0.2184  0.2280
  754loPI   C3A10709  15.832  15.412   7.535  0.4067  0.2249  0.1077
  754loPI   C4A10710  15.379  15.565   7.644 -0.0558  0.1167 -0.2299
  754loPI   C5A10711  15.047  15.617   7.746  0.2117  0.1772 -0.0261
  754loPI   C6A10712  14.689  15.746   7.435 -0.1510  0.0530  0.0832
  754loPI   C1B10713  16.241  14.766   6.603 -0.0423  0.1023  0.1099
  754loPI   C2B10714  16.228  14.803   7.122  0.1149 -0.1000 -0.0058
  754loPI   C3B10715  16.054  14.952   7.424  0.0672  0.0791  0.0937
  754loPI   C4B10716  16.142  14.947   7.791 -0.0236  0.0994 -0.0601
  755loPI    C110717   1.371  12.153   5.158 -0.2264  0.0503  0.2002
  755loPI    C210718   1.049  12.223   4.932 -0.0808 -0.0219 -0.0336
  755loPI    C310719   1.347  12.489   4.941  0.0776 -0.1901 -0.2205
  755loPI   PO410720   1.257  12.108   5.518  0.0190 -0.0266 -0.3015
  755loPI   GL110721   1.097  11.998   5.887 -0.0075 -0.0946  0.0313
  755loPI   GL210722   1.313  11.790   5.948  0.0790  0.3317 -0.3094
  755loPI   C1A10723   0.967  11.908   6.300  0.1617 -0.1188 -0.3313
  755loPI   C2A10724   0.789  11.947   6.756 -0.1618  0.2389 -0.0547
  755loPI   C3A10725   0.712  11.922   7.213  0.1314 -0.0984  0.1166
  755loPI   C4A10726   0.695  11.581   7.636  0.0060 -0.4235 -0.1467
  755loPI   C5A10727   0.818  11.388   8.007 -0.1013 -0.2617  0.0247
  755loPI   C6A10728   1.061  11.510   8.327  0.0167 -0.0583  0.0229
  755loPI   C1B10729   1.359  11.717   6.435 -0.2304  0.5255 -0.0749
  755loPI   C2B10730   1.428  11.525   6.832  0.0888 -0.0710 -0.1197
  755loPI   C3B10731   1.346  11.152   7.088 -0.0953  0.1384  0.2865
  755loPI   C4B10732   1.016  10.987   7.128 -0.3224 -0.1186 -0.1005
  756loPI    C110733  18.044   5.361   5.060  0.0803 -0.1431 -0.0212
  756loPI    C210734  17.887   5.337   4.693  0.0800 -0.4483 -0.0037
  756loPI    C310735  18.282   5.298   4.745  0.1518  0.1577 -0.0297
  756loPI   PO410736  18.051   5.619   5.366  0.3978 -0.0139  0.0555
  756loPI   GL110737  17.726   5.815   5.633  0.0795 -0.2423  0.4021
  756loPI   GL210738  17.678   5.588   5.878 -0.1655  0.2012 -0.0466
  756loPI   C1A10739  17.309   5.992   5.928  0.0947 -0.1858 -0.1268
  756loPI   C2A10740  17.277   6.170   6.351  0.0389 -0.0780  0.0094
  756loPI   C3A10741  17.486   6.238   6.749  0.0726  0.2124 -0.1287
  756loPI   C4A10742  17.641   6.129   7.221 -0.0758 -0.0372  0.1148
  756loPI   C5A10743  17.802   6.004   7.600 -0.0642  0.0794  0.3977
  756loPI   C6A10744  18.101   5.668   7.910  0.1615 -0.0212  0.2250
  756loPI   C1B10745  17.701   5.674   6.282  0.2829  0.0255 -0.2737
  756loPI   C2B10746  17.614   5.805   6.693  0.0591 -0.0841  0.0495
  756loPI   C3B10747  17.756   5.670   7.068 -0.2123  0.1311  0.2396
  756loPI   C4B10748  17.912   5.564   7.459 -0.0645 -0.2754 -0.1464
  757loPI    C110749   1.440   8.742   5.071 -0.0048 -0.2311 -0.1552
  757loPI    C210750   1.281   9.049   4.869 -0.0273 -0.0540  0.1251
  757loPI    C310751   1.678   9.024   4.916 -0.0212 -0.1019  0.0504
  757loPI   PO410752   1.334   8.672   5.336  0.2103 -0.1430 -0.0651
  757loPI   GL110753   1.384   8.648   5.691  0.6689 -0.3540  0.0873
  757loPI   GL210754   1.378   8.896   5.784 -0.1295 -0.0646  0.1898
  757loPI   C1A10755   1.487   8.489   6.149  0.1223 -0.0729  0.1560
  757loPI   C2A10756   1.526   8.658   6.601 -0.2614 -0.3583  0.1679
  757loPI   C3A10757   1.789   8.674   6.912  0.0062 -0.0129 -0.0728
  757loPI   C4A10758   2.087   8.514   7.162 -0.0014 -0.1785  0.1631
  757loPI   C5A10759   2.237   8.351   7.500 -0.0688 -0.0088  0.2791
  757loPI   C6A10760   2.270   8.318   7.943  0.0629 -0.3383 -0.2418
  757loPI   C1B10761   1.148   9.056   6.126 -0.1965 -0.1252  0.0388
  757loPI   C2B10762   1.144   9.034   6.527 -0.0972 -0.1096  0.0440
  757loPI   C3B10763   0.980   8.720   6.741  0.0328  0.0004 -0.0583
  757loPI   C4B10764   0.999   8.636   7.228 -0.2192 -0.2224 -0.2279
  758loPI    C110765   4.986   9.518   5.294  0.1774  0.1436  0.0973
  758loPI    C210766   5.350   9.562   5.135  0.1388 -0.3203 -0.1356
  758loPI    C310767   5.093   9.301   4.976 -0.2136 -0.1697  0.1725
  758loPI   PO410768   5.107   9.507   5.575 -0.2655  0.1903 -0.0461
  758loPI   GL110769   5.068   9.286   6.009 -0.1045  0.1414  0.0878
  758loPI   GL210770   4.773   9.172   5.952  0.0626  0.2158 -0.4627
  758loPI   C1A10771   5.039   9.182   6.466  0.1550 -0.0360  0.0116
  758loPI   C2A10772   5.148   9.054   6.856  0.1319 -0.0075 -0.0588
  758loPI   C3A10773   5.450   9.005   7.068 -0.0881 -0.1503  0.1930
  758loPI   C4A10774   5.821   9.227   7.215 -0.0368  0.0121  0.2016
  758loPI   C5A10775   6.167   9.285   7.573 -0.0185  0.2610  0.0084
  758loPI   C6A10776   6.084   8.971   7.830 -0.2914  0.3616  0.0960
  758loPI   C1B10777   4.508   9.340   6.193 -0.0086 -0.0851  0.0056
  758loPI   C2B10778   4.324   9.282   6.627 -0.0925 -0.0530 -0.1016
  758loPI   C3B10779   4.287   9.272   7.188 -0.0318  0.0697 -0.1077
  758loPI   C4B10780   4.270   9.180   7.656  0.2609  0.2373  0.1163
  759loPI    C110781   6.778   9.294   5.032  0.3367  0.3323  0.1510
  759loPI    C210782   6.975   9.501   4.752 -0.0033  0.1412 -0.2395
  759loPI    C310783   7.089   9.128   4.843  0.2205  0.2679  0.0149
  759loPI   PO410784   6.689   9.501   5.173  0.4887 -0.1671 -0.2125
  759loPI   GL110785   6.684   9.654   5.502  0.0606 -0.3221  0.3222
  759loPI   GL210786   6.947   9.644   5.579  0.3579 -0.0842  0.2665
  759loPI   C1A10787   6.444   9.668   5.902  0.0489  0.1518  0.2354
  759loPI   C2A10788   6.394   9.576   6.330 -0.1351  0.1192 -0.3190
  759loPI   C3A10789   6.276   9.469   6.742 -0.0920 -0.1754  0.0212
  759loPI   C4A10790   6.186   9.610   7.178  0.1288 -0.0140 -0.4555
  759loPI   C5A10791   6.151   9.881   7.539 -0.2915  0.1667 -0.1426
  759loPI   C6A10792   6.138  10.268   7.801 -0.0283  0.2361 -0.2193
  759loPI   C1B10793   7.006   9.837   5.995  0.1825  0.2296  0.1172
  759loPI   C2B10794   6.863   9.750   6.537  0.3546  0.0481 -0.0259
  759loPI   C3B10795   6.808   9.440   6.883  0.2348 -0.1188 -0.2085
  759loPI   C4B10796   6.664   9.245   7.292  0.1478 -0.0033 -0.1183
  760loPI    C110797   6.022   4.728   5.272 -0.1546 -0.1134  0.1167
  760loPI    C210798   5.974   5.002   4.984  0.1046 -0.0529  0.1293
  760loPI    C310799   5.755   4.668   4.980  0.1352 -0.0720 -0.1626
  760loPI   PO410800   6.274   4.769   5.313  0.0444  0.0088 -0.1281
  760loPI   GL110801   6.566   4.884   5.583 -0.1958  0.3086 -0.1816
  760loPI   GL210802   6.769   4.697   5.522 -0.0404 -0.0479  0.3948
  760loPI   C1A10803   6.465   4.885   6.030  0.0484  0.0037 -0.1444
  760loPI   C2A10804   6.342   5.028   6.355  0.3843  0.0896 -0.2629
  760loPI   C3A10805   6.366   5.127   6.790  0.1040 -0.0172  0.1466
  760loPI   C4A10806   6.365   4.964   7.192  0.3094 -0.1333 -0.2200
  760loPI   C5A10807   6.196   4.800   7.614 -0.2574  0.2112 -0.0953
  760loPI   C6A10808   5.863   4.602   7.958  0.0854  0.1267  0.2844
  760loPI   C1B10809   6.660   4.418   5.904  0.0570 -0.2234  0.1759
  760loPI   C2B10810   6.852   4.271   6.307 -0.0290 -0.3156  0.2234
  760loPI   C3B10811   6.837   4.291   6.674 -0.0559  0.1132  0.3144
  760loPI   C4B10812   6.947   4.377   7.075 -0.0240 -0.1209  0.1678
  761loPI    C110813  15.503  15.616   5.872  0.1355 -0.1022  0.0839
  761loPI    C210814  15.754  15.865   5.686 -0.0220 -0.1199 -0.1575
  761loPI    C310815  15.545  15.597   5.475  0.1022 -0.4211  0.0925
  761loPI   PO410816  15.405  15.733   5.996 -0.0197  0.0138 -0.2342
  761loPI   GL110817  15.355  15.873   6.356 -0.0842 -0.0910  0.2605
  761loPI   GL210818  15.173  16.053   6.453 -0.1953  0.0026  0.0084
  761loPI   C1A10819  15.667  15.661   6.701 -0.3611 -0.2246  0.2720
  761loPI   C2A10820  15.550  15.603   7.141  0.1458 -0.3218 -0.1369
  761loPI   C3A10821  15.225  15.785   7.270  0.1918  0.1286 -0.0293
  761loPI   C4A10822  15.136  16.031   7.566 -0.0662 -0.3666  0.0639
  761loPI   C5A10823  15.117  15.916   8.093 -0.2847  0.0590  0.1430
  761loPI   C6A10824  15.026  15.441   8.237 -0.0032  0.1610 -0.1788
  761loPI   C1B10825  15.116  16.078   6.891 -0.4037  0.0462  0.0663
  761loPI   C2B10826  14.818  16.232   7.200 -0.1216  0.2499  0.3114
  761loPI   C3B10827  14.684  16.193   7.701 -0.0986  0.1433  0.0916
  761loPI   C4B10828  14.632  15.913   7.991  0.1235 -0.1625 -0.3923
  762loPI    C110829  11.214   0.827   5.502 -0.0586 -0.2333 -0.2527
  762loPI    C210830  11.485   0.835   5.796 -0.0533  0.1813 -0.2622
  762loPI    C310831  11.601   0.775   5.418 -0.0215 -0.0143 -0.2228
  762loPI   PO410832  10.987   1.002   5.627  0.0066 -0.1360  0.1328
  762loPI   GL110833  10.834   0.817   5.931 -0.0350 -0.2807  0.1338
  762loPI   GL210834  11.106   1.005   6.064  0.4359 -0.1152 -0.2444
  762loPI   C1A10835  10.550   0.712   6.272 -0.1490 -0.0616 -0.1144
  762loPI   C2A10836  10.371   1.053   6.610 -0.0769  0.2996 -0.0083
  762loPI   C3A10837  10.357   1.247   7.020 -0.1873  0.1471  0.0178
  762loPI   C4A10838   9.989   1.485   7.387  0.0102  0.0446 -0.0018
  762loPI   C5A10839  10.076   1.650   7.711  0.0623  0.3159 -0.0565
  762loPI   C6A10840  10.449   1.659   7.939 -0.0702  0.0903  0.0700
  762loPI   C1B10841  11.050   0.775   6.465  0.0587  0.3319  0.0343
  762loPI   C2B10842  10.771   0.792   6.709  0.2195 -0.1208 -0.1689
  762loPI   C3B10843  10.568   0.806   7.144  0.0146  0.0408 -0.2286
  762loPI   C4B10844  10.650   0.704   7.498  0.0526  0.0006 -0.0330
  763loPI    C110845   6.482   0.850   5.870  0.4064  0.0059 -0.0952
  763loPI    C210846   6.291   0.535   5.714  0.0875  0.2376 -0.1814
  763loPI    C310847   6.655   0.490   5.871  0.0102 -0.1899 -0.1144
  763loPI   PO410848   6.365   1.019   5.909  0.2341  0.2024  0.1355
  763loPI   GL110849   6.359   1.368   6.151  0.1881 -0.0894 -0.1274
  763loPI   GL210850   6.446   1.143   6.378 -0.2060 -0.0571 -0.0676
  763loPI   C1A10851   5.926   1.196   6.389 -0.1547 -0.0468 -0.0562
  763loPI   C2A10852   5.746   1.191   6.770 -0.0320 -0.0698  0.1411
  763loPI   C3A10853   5.555   0.879   7.101 -0.1252 -0.3599 -0.0679
  763loPI   C4A10854   5.621   0.749   7.462  0.1804  0.1197 -0.2191
  763loPI   C5A10855   5.601   0.258   7.763  0.3576 -0.3558  0.0714
  763loPI   C6A10856   5.749  -0.237   7.740 -0.3217  0.0598  0.0976
  763loPI   C1B10857   6.807   1.289   6.435  0.2579 -0.2769 -0.1209
  763loPI   C2B10858   7.236   1.389   6.713  0.0602  0.0895  0.0191
  763loPI   C3B10859   7.249   1.510   7.122 -0.1850  0.0090 -0.1750
  763loPI   C4B10860   7.075   1.733   7.431  0.1100  0.1016 -0.3054
  764loPI    C110861  12.958  15.793   5.902  0.0607 -0.0204 -0.3244
  764loPI    C210862  12.650  16.048   5.890 -0.0099 -0.0810  0.0695
  764loPI    C310863  12.825  15.929   5.551  0.0678  0.5402 -0.1191
  764loPI   PO410864  12.865  15.642   6.084  0.2662  0.3732  0.0188
  764loPI   GL110865  12.949  15.485   6.422  0.1834 -0.2022 -0.0808
  764loPI   GL210866  12.648  15.446   6.518 -0.2949 -0.3311 -0.1004
  764loPI   C1A10867  13.099  15.289   6.762  0.0715 -0.0626 -0.0156
  764loPI   C2A10868  13.120  15.137   7.126  0.0767 -0.0464  0.0909
  764loPI   C3A10869  13.242  15.033   7.531  0.3660  0.0795 -0.2094
  764loPI   C4A10870  13.556  15.143   7.846 -0.1949 -0.0959  0.2161
  764loPI   C5A10871  13.363  15.221   8.152  0.2843 -0.0418 -0.0504
  764loPI   C6A10872  13.104  15.518   8.278  0.2473  0.1249  0.1443
  764loPI   C1B10873  12.662  15.203   6.972 -0.0204 -0.0462 -0.0291
  764loPI   C2B10874  12.395  15.019   7.268  0.3859 -0.4824  0.1562
  764loPI   C3B10875  12.422  14.895   7.734  0.1069 -0.0770 -0.1648
  764loPI   C4B10876  12.512  14.704   8.124 -0.0324 -0.0481 -0.2213
  765loPI    C110877   5.712   1.310   5.411  0.0844  0.0955 -0.2447
  765loPI    C210878   5.431   1.309   5.126 -0.1452  0.1733 -0.0216
  765loPI    C310879   5.801   1.181   5.043 -0.2618  0.0102 -0.3013
  765loPI   PO410880   5.663   1.510   5.578 -0.1769  0.0574  0.0507
  765loPI   GL110881   5.709   1.540   5.964 -0.3269 -0.0228  0.2511
  765loPI   GL210882   6.010   1.660   6.011 -0.1490  0.2469  0.1300
  765loPI   C1A10883   5.548   1.563   6.359 -0.1077 -0.1482 -0.1918
  765loPI   C2A10884   5.749   1.748   6.708  0.0129  0.1726 -0.1313
  765loPI   C3A10885   5.845   1.767   7.125 -0.1036 -0.0191  0.2325
  765loPI   C4A10886   5.995   1.781   7.507 -0.1186 -0.3870 -0.2176
  765loPI   C5A10887   5.836   1.775   8.000 -0.2001 -0.3019  0.0086
  765loPI   C6A10888   5.662   2.071   8.139 -0.0064 -0.3420  0.1956
  765loPI   C1B10889   6.200   1.698   6.501 -0.0390 -0.0550  0.3500
  765loPI   C2B10890   6.176   1.376   6.938 -0.1685  0.0246 -0.1102
  765loPI   C3B10891   6.113   1.053   7.233 -0.0264 -0.0068 -0.1653
  765loPI   C4B10892   6.217   0.859   7.597  0.0675  0.1170 -0.0447
  766loPI    C110893   5.609  13.778   5.361 -0.1179  0.2013 -0.0154
  766loPI    C210894   5.632  13.381   5.403  0.0786  0.1935 -0.1799
  766loPI    C310895   5.297  13.548   5.261 -0.0819  0.1067  0.0873
  766loPI   PO410896   5.675  13.931   5.579  0.0573  0.1932  0.1841
  766loPI   GL110897   5.449  14.126   5.857 -0.2137  0.0672  0.0394
  766loPI   GL210898   5.736  14.352   5.934 -0.1597  0.0688 -0.1454
  766loPI   C1A10899   5.560  13.731   6.143  0.1695  0.1261 -0.1844
  766loPI   C2A10900   5.634  13.410   6.379 -0.0051  0.0003 -0.3025
  766loPI   C3A10901   5.350  13.163   6.659  0.2101 -0.3187 -0.1554
  766loPI   C4A10902   5.220  12.880   7.010  0.1654 -0.1145 -0.0815
  766loPI   C5A10903   5.512  12.803   7.421 -0.0622 -0.0570 -0.1623
  766loPI   C6A10904   5.778  12.477   7.665  0.1153  0.1966 -0.1201
  766loPI   C1B10905   5.568  14.281   6.318  0.2615  0.1050 -0.1906
  766loPI   C2B10906   5.529  14.246   6.650  0.0756  0.0820 -0.1279
  766loPI   C3B10907   5.530  14.325   7.051  0.0044  0.2265  0.0791
  766loPI   C4B10908   5.687  14.201   7.364 -0.2457 -0.0746 -0.0511
  767loPI    C110909   6.628   5.834   5.270  0.1029  0.0507 -0.1981
  767loPI    C210910   6.339   5.904   5.003 -0.1398  0.1944  0.0954
  767loPI    C310911   6.654   6.149   5.025  0.0129  0.0351 -0.2280
  767loPI   PO410912   6.748   5.619   5.237  0.1521  0.1601 -0.0497
  767loPI   GL110913   6.714   5.413   5.656  0.1805 -0.1264  0.4400
  767loPI   GL210914   6.521   5.631   5.715  0.0086  0.3985  0.1088
  767loPI   C1A10915   6.788   5.306   6.081 -0.2852  0.0234  0.1621
  767loPI   C2A10916   6.805   5.311   6.481  0.2446 -0.0956 -0.0386
  767loPI   C3A10917   6.816   5.460   6.818 -0.4162  0.0648 -0.0073
  767loPI   C4A10918   6.699   5.730   7.173 -0.1114 -0.1454 -0.2800
  767loPI   C5A10919   6.910   5.761   7.457 -0.1542  0.2293  0.2447
  767loPI   C6A10920   7.042   6.041   7.703 -0.0242 -0.1173  0.0002
  767loPI   C1B10921   6.801   5.782   6.029  0.3402 -0.0899  0.0099
  767loPI   C2B10922   6.792   6.077   6.488 -0.4205  0.0613 -0.5535
  767loPI   C3B10923   6.609   6.206   7.004  0.0913 -0.1164 -0.2039
  767loPI   C4B10924   6.854   6.291   7.361  0.3130 -0.0327 -0.1994
  768loPI    C110925   5.004   6.617   5.280  0.0722  0.0965 -0.0697
  768loPI    C210926   4.889   6.686   4.903 -0.0572  0.1698 -0.0173
  768loPI    C310927   4.950   6.311   5.029 -0.0515  0.1429 -0.1000
  768loPI   PO410928   5.149   6.844   5.342 -0.0310  0.3576  0.2356
  768loPI   GL110929   5.308   6.990   5.713  0.3020 -0.4511  0.4383
  768loPI   GL210930   5.033   7.285   5.693 -0.1279 -0.0990  0.1006
  768loPI   C1A10931   5.241   6.852   6.122  0.0889 -0.0295  0.0563
  768loPI   C2A10932   5.440   7.035   6.406 -0.1319  0.2520 -0.1357
  768loPI   C3A10933   5.496   7.102   6.833 -0.0983  0.1236  0.2446
  768loPI   C4A10934   5.351   7.112   7.145  0.0316 -0.0111  0.1341
  768loPI   C5A10935   5.550   7.208   7.628  0.3901  0.1876 -0.0729
  768loPI   C6A10936   5.426   7.033   8.024  0.2174 -0.0533  0.0512
  768loPI   C1B10937   5.224   7.338   6.113 -0.0456 -0.0945  0.2358
  768loPI   C2B10938   5.269   7.529   6.515  0.1506 -0.0324  0.1763
  768loPI   C3B10939   5.224   7.511   6.949  0.1576  0.1815  0.1442
  768loPI   C4B10940   4.960   7.821   7.151  0.0879  0.0070  0.2170
  769loPI    C110941   4.698   0.505   5.739  0.1503  0.0472  0.0278
  769loPI    C210942   4.949   0.525   5.428  0.0525  0.0958 -0.0484
  769loPI    C310943   5.007   0.252   5.715  0.0903 -0.0097 -0.1558
  769loPI   PO410944   4.557   0.768   5.815  0.0476  0.0500  0.2798
  769loPI   GL110945   4.800   0.777   6.224 -0.1884 -0.2459  0.0373
  769loPI   GL210946   4.882   1.100   6.091  0.1305 -0.0415  0.1152
  769loPI   C1A10947   4.824   0.572   6.615  0.0694 -0.2510 -0.1150
  769loPI   C2A10948   4.609   0.867   6.909  0.4792  0.3360 -0.1737
  769loPI   C3A10949   4.736   0.707   7.283  0.0664  0.2142 -0.3454
  769loPI   C4A10950   4.757   0.821   7.716 -0.1570 -0.2646 -0.1429
  769loPI   C5A10951   4.869   1.104   8.096 -0.2402  0.1437  0.2763
  769loPI   C6A10952   5.186   1.225   8.330 -0.0958  0.1531  0.1055
  769loPI   C1B10953   4.723   1.235   6.512  0.0846  0.4374  0.0405
  769loPI   C2B10954   4.346   1.302   6.708  0.0958 -0.2128  0.0731
  769loPI   C3B10955   4.205   1.595   7.010  0.0070  0.0199  0.2049
  769loPI   C4B10956   3.946   1.782   7.360 -0.0582  0.1694  0.1614
  770loPI    C110957  16.206   7.967   5.092 -0.0254  0.0083  0.1333
  770loPI    C210958  15.806   7.972   5.075 -0.0128  0.0939 -0.2007
  770loPI    C310959  16.009   7.664   4.920  0.0525  0.0583 -0.0460
  770loPI   PO410960  16.186   8.134   5.404  0.0318 -0.0243  0.4218
  770loPI   GL110961  16.031   8.318   5.746 -0.0577 -0.0348 -0.2714
  770loPI   GL210962  16.025   7.971   5.862  0.0390  0.1329  0.0981
  770loPI   C1A10963  15.810   8.354   6.171  0.2615 -0.0044  0.0353
  770loPI   C2A10964  15.571   8.510   6.504  0.1158  0.1069 -0.0246
  770loPI   C3A10965  15.454   8.496   6.952 -0.2799  0.1264 -0.1639
  770loPI   C4A10966  15.231   8.369   7.312  0.0246  0.1092  0.0005
  770loPI   C5A10967  14.974   8.326   7.660 -0.1157 -0.0825 -0.0060
  770loPI   C6A10968  14.836   8.474   8.069  0.0086 -0.1339 -0.0658
  770loPI   C1B10969  16.301   8.107   6.100  0.1369 -0.0623 -0.0966
  770loPI   C2B10970  16.155   8.307   6.504  0.0164  0.0682 -0.1188
  770loPI   C3B10971  16.204   8.282   6.882  0.0566 -0.1495  0.0966
  770loPI   C4B10972  16.157   8.406   7.370 -0.0425  0.2913 -0.1247
  771loPI    C110973  17.903  17.979   6.168  0.1106 -0.0526 -0.0855
  771loPI    C210974  17.514  17.959   6.078  0.0962 -0.2161  0.0085
  771loPI    C310975  17.787  17.817   5.821  0.0895 -0.1696 -0.0245
  771loPI   PO410976  17.876  18.228   6.312 -0.1837  0.0247 -0.3121
  771loPI   GL110977  17.557  18.503   6.551  0.2162 -0.0222 -0.0175
  771loPI   GL210978  17.425  18.099   6.512 -0.0365  0.0041 -0.0590
  771loPI   C1A10979  17.584  18.649   6.982  0.5139  0.4727 -0.2009
  771loPI   C2A10980  17.561  18.674   7.366 -0.1571  0.1940  0.0277
  771loPI   C3A10981  17.540  18.649   7.832 -0.0857 -0.0911 -0.2343
  771loPI   C4A10982  17.614  18.475   8.227  0.0362  0.2110  0.1334
  771loPI   C5A10983  17.900  18.464   8.457  0.0316 -0.0164  0.0985
  771loPI   C6A10984  18.219  18.305   8.710 -0.1489 -0.1619 -0.3166
  771loPI   C1B10985  17.478  18.177   6.910  0.2232  0.0286 -0.0921
  771loPI   C2B10986  17.357  18.162   7.209 -0.0478 -0.1369  0.0040
  771loPI   C3B10987  17.230  18.371   7.559 -0.1151  0.2057  0.0999
  771loPI   C4B10988  17.213  18.254   8.033  0.0835  0.1844  0.0493
  772loPI    C110989  15.808   1.666   5.409 -0.0869 -0.0297  0.0123
  772loPI    C210990  16.008   1.600   5.068  0.1037  0.0782  0.1015
  772loPI    C310991  15.623   1.497   5.098  0.1299 -0.0800 -0.0916
  772loPI   PO410992  15.916   1.888   5.465  0.2205  0.0824 -0.3233
  772loPI   GL110993  15.881   2.227   5.830 -0.1572 -0.0582  0.0649
  772loPI   GL210994  16.187   2.260   5.970 -0.0787 -0.4916  0.0641
  772loPI   C1A10995  15.555   2.379   6.114 -0.0534 -0.1817  0.0910
  772loPI   C2A10996  15.237   2.350   6.372  0.1455 -0.2518 -0.0398
  772loPI   C3A10997  15.188   2.341   6.737  0.2287  0.7697  0.3893
  772loPI   C4A10998  15.137   2.253   7.168 -0.1110 -0.0652  0.1566
  772loPI   C5A10999  15.148   1.902   7.601  0.1133 -0.0412  0.1731
  772loPI   C6A11000  15.065   1.639   7.853  0.0763 -0.0625  0.0730
  772loPI   C1B11001  16.010   2.156   6.267 -0.2436  0.1716  0.2831
  772loPI   C2B11002  15.686   2.019   6.619 -0.0950  0.0575 -0.1055
  772loPI   C3B11003  15.696   2.148   7.147 -0.1612  0.1495 -0.1390
  772loPI   C4B11004  15.596   2.224   7.549  0.2187 -0.1769  0.0579
  773loPI    C111005   9.314  14.681   5.555  0.0064  0.1014  0.1678
  773loPI    C211006   9.685  14.828   5.524  0.1264 -0.2148  0.0692
  773loPI    C311007   9.527  14.616   5.223 -0.1787  0.0099  0.0654
  773loPI   PO411008   9.310  14.571   5.787  0.1433 -0.0247  0.2200
  773loPI   GL111009   9.513  14.490   6.157 -0.0002  0.1065 -0.0649
  773loPI   GL211010   9.278  14.276   6.278  0.0273  0.2140 -0.0833
  773loPI   C1A11011   9.457  14.597   6.570 -0.2383 -0.0177 -0.1417
  773loPI   C2A11012   9.343  14.393   6.911  0.0747  0.0786  0.5001
  773loPI   C3A11013   9.308  14.418   7.311  0.0717 -0.3306  0.1064
  773loPI   C4A11014   9.606  14.585   7.582 -0.0997 -0.0771 -0.3448
  773loPI   C5A11015   9.750  14.462   7.997 -0.1335  0.0644 -0.0559
  773loPI   C6A11016   9.803  14.091   8.281 -0.2923 -0.2462 -0.0957
  773loPI   C1B11017   9.005  14.230   6.609  0.1247  0.1862 -0.2835
  773loPI   C2B11018   8.877  14.284   7.075  0.1650 -0.2354  0.1474
  773loPI   C3B11019   8.875  14.459   7.478 -0.4272 -0.0854 -0.1398
  773loPI   C4B11020   8.813  14.691   7.732  0.0938  0.2512 -0.1554
  774loPI    C111021   2.028   0.632   5.712 -0.1790  0.0126  0.0707
  774loPI    C211022   1.629   0.611   5.708 -0.1698 -0.1699 -0.3239
  774loPI    C311023   1.827   0.721   5.378  0.0896  0.3598 -0.0042
  774loPI   PO411024   2.140   0.692   5.979  0.0849  0.1176  0.3518
  774loPI   GL111025   1.952   1.074   6.320  0.0050  0.0703 -0.2145
  774loPI   GL211026   1.889   1.344   6.196 -0.0486 -0.1743 -0.0655
  774loPI   C1A11027   1.763   1.157   6.706  0.0254  0.0189 -0.2255
  774loPI   C2A11028   1.556   0.910   7.106  0.1778  0.1631  0.3183
  774loPI   C3A11029   1.689   0.898   7.432  0.3909  0.0906  0.3762
  774loPI   C4A11030   1.844   0.697   7.720  0.0810  0.0183 -0.2557
  774loPI   C5A11031   2.034   0.963   8.048  0.0343  0.2933  0.1368
  774loPI   C6A11032   2.388   0.885   8.367 -0.4662 -0.2000 -0.0133
  774loPI   C1B11033   1.616   1.588   6.506 -0.0962  0.0280  0.0782
  774loPI   C2B11034   1.478   1.876   6.747  0.1021  0.1080 -0.2765
  774loPI   C3B11035   1.143   2.014   6.986 -0.0570  0.2255 -0.1289
  774loPI   C4B11036   0.878   1.826   7.225  0.1936 -0.0277 -0.2320
  775loPI    C111037  11.820   3.449   5.027 -0.0664 -0.2144 -0.0698
  775loPI    C211038  11.915   3.561   4.655 -0.0256 -0.0852 -0.0212
  775loPI    C311039  12.102   3.251   4.824  0.1250  0.0044 -0.0218
  775loPI   PO411040  11.932   3.647   5.179 -0.0549 -0.4412 -0.0425
  775loPI   GL111041  12.150   3.693   5.597  0.0248 -0.1981  0.0150
  775loPI   GL211042  12.099   3.405   5.662  0.0293  0.1448  0.3648
  775loPI   C1A11043  12.128   3.806   6.085 -0.3206  0.2403 -0.1570
  775loPI   C2A11044  12.176   3.704   6.572 -0.0932 -0.4121 -0.1730
  775loPI   C3A11045  12.382   3.725   6.872 -0.0593  0.4125 -0.0119
  775loPI   C4A11046  12.551   3.586   7.273 -0.1747 -0.3129  0.0606
  775loPI   C5A11047  12.942   3.423   7.451  0.3382 -0.2190  0.1455
  775loPI   C6A11048  13.304   3.634   7.470  0.4649  0.1096 -0.0236
  775loPI   C1B11049  11.942   3.374   6.042  0.2414  0.1048  0.2777
  775loPI   C2B11050  11.929   3.257   6.517  0.0021  0.2179  0.0047
  775loPI   C3B11051  11.933   3.441   6.965  0.0706 -0.1033 -0.2297
  775loPI   C4B11052  12.109   3.663   7.420  0.1352 -0.1449 -0.0903
  776loPI    C111053  12.312   9.892   4.946  0.2515  0.0310  0.2087
  776loPI    C211054  12.440   9.626   4.675  0.0796 -0.0966  0.2517
  776loPI    C311055  12.559  10.007   4.652 -0.1625 -0.0408 -0.1778
  776loPI   PO411056  12.000   9.850   4.903  0.0880  0.1408  0.1136
  776loPI   GL111057  11.945   9.673   5.412 -0.0079  0.0315 -0.1141
  776loPI   GL211058  12.298   9.665   5.363 -0.0135  0.0574 -0.2855
  776loPI   C1A11059  12.110   9.463   5.785  0.4036  0.0601  0.0179
  776loPI   C2A11060  12.407   9.551   6.149  0.3444 -0.0227  0.2561
  776loPI   C3A11061  12.470   9.688   6.604 -0.1647  0.3658 -0.0713
  776loPI   C4A11062  12.641   9.926   6.841 -0.1232  0.2113  0.2411
  776loPI   C5A11063  12.642  10.067   7.285  0.2877  0.1518 -0.0859
  776loPI   C6A11064  12.656  10.054   7.731  0.1825 -0.0784 -0.3398
  776loPI   C1B11065  12.415   9.931   5.790 -0.4862  0.3679  0.1503
  776loPI   C2B11066  12.796   9.851   5.884  0.0139  0.2096 -0.2632
  776loPI   C3B11067  13.175   9.901   5.836  0.2078 -0.1278 -0.2269
  776loPI   C4B11068  13.395   9.775   6.085  0.0255 -0.1909  0.2411
  777loPI    C111069   1.789  15.896   5.560  0.1016  0.0881 -0.0309
  777loPI    C211070   1.698  15.605   5.301 -0.1254  0.2726 -0.1627
  777loPI    C311071   2.080  15.716   5.352 -0.0561  0.0754 -0.2436
  777loPI   PO411072   1.528  15.977   5.695  0.0878 -0.0357  0.3306
  777loPI   GL111073   1.550  15.857   6.166  0.1797 -0.1382  0.0710
  777loPI   GL211074   1.839  15.900   6.353 -0.1569  0.0794 -0.3010
  777loPI   C1A11075   1.381  15.833   6.585 -0.1270 -0.1321  0.0086
  777loPI   C2A11076   1.521  15.957   6.935 -0.0950 -0.1016 -0.1533
  777loPI   C3A11077   1.434  15.863   7.291 -0.0106  0.1182  0.1152
  777loPI   C4A11078   1.476  16.186   7.718  0.1358  0.3855  0.1967
  777loPI   C5A11079   1.375  16.347   8.114  0.0024 -0.2694  0.1235
  777loPI   C6A11080   1.316  16.212   8.480 -0.1589  0.1718  0.3203
  777loPI   C1B11081   2.069  15.954   6.771  0.1267 -0.2809  0.0187
  777loPI   C2B11082   2.075  15.927   7.249 -0.1561  0.0752 -0.0096
  777loPI   C3B11083   1.835  15.961   7.540  0.0585  0.4839  0.1258
  777loPI   C4B11084   1.483  15.681   7.706 -0.1759  0.0970  0.3208
  778loPI    C111085   9.162  17.959   5.111  0.0068 -0.0337  0.0360
  778loPI    C211086   9.230  18.243   4.838 -0.2334  0.1685  0.1819
  778loPI    C311087   9.352  17.868   4.771  0.3116  0.3512  0.0951
  778loPI   PO411088   9.351  18.055   5.352  0.2796 -0.0090  0.0370
  778loPI   GL111089   9.070  18.179   5.743 -0.0956 -0.3568 -0.2050
  778loPI   GL211090   9.330  18.020   5.854 -0.0659 -0.0765 -0.0777
  778loPI   C1A11091   8.805  18.225   6.110  0.2437 -0.0414  0.1848
  778loPI   C2A11092   8.832  18.181   6.545  0.1553  0.0021  0.4398
  778loPI   C3A11093   8.841  18.100   6.999  0.0753 -0.0947 -0.1464
  778loPI   C4A11094   8.828  17.977   7.405  0.0955 -0.0457  0.4218
  778loPI   C5A11095   8.743  17.687   7.766 -0.2378  0.2572 -0.1936
  778loPI   C6A11096   8.807  17.656   8.187 -0.0047  0.0621 -0.3276
  778loPI   C1B11097   9.292  18.170   6.255 -0.4303 -0.0421  0.1998
  778loPI   C2B11098   9.410  18.402   6.605  0.0274 -0.1488 -0.1907
  778loPI   C3B11099   9.259  18.354   6.980  0.1693 -0.3769  0.3908
  778loPI   C4B11100   9.296  18.079   7.342  0.1148 -0.1417  0.0860
  779loPI    C111101  16.496   9.370   4.956  0.3280  0.1694 -0.2509
  779loPI    C211102  16.161   9.524   4.801  0.1490 -0.0083 -0.0479
  779loPI    C311103  16.361   9.240   4.602 -0.0201 -0.1587 -0.0063
  779loPI   PO411104  16.425   9.365   5.257  0.4185  0.0170  0.2031
  779loPI   GL111105  16.480   9.607   5.657  0.2699 -0.1033 -0.0005
  779loPI   GL211106  16.228   9.645   5.704  0.0599 -0.0781  0.1243
  779loPI   C1A11107  16.552   9.313   5.943 -0.0600  0.0782 -0.1610
  779loPI   C2A11108  16.468   8.867   5.871  0.1970 -0.1533  0.2919
  779loPI   C3A11109  16.203   8.679   6.122 -0.1880  0.2991 -0.5052
  779loPI   C4A11110  16.166   8.861   6.569 -0.0164 -0.2860  0.2390
  779loPI   C5A11111  15.920   8.705   6.882  0.0382 -0.0832 -0.1473
  779loPI   C6A11112  15.844   8.861   7.290 -0.0032  0.1980  0.1129
  779loPI   C1B11113  16.198   9.575   6.154 -0.0469  0.0457 -0.1244
  779loPI   C2B11114  16.452   9.416   6.470  0.0248  0.1665  0.2967
  779loPI   C3B11115  16.516   9.491   6.876 -0.1442 -0.1997  0.1384
  779loPI   C4B11116  16.523   9.693   7.274 -0.3199  0.2425  0.2736
  780loPI    C111117   8.901   5.608   5.035  0.1897 -0.0765 -0.0751
  780loPI    C211118   8.843   5.360   4.727  0.1343  0.0959 -0.2053
  780loPI    C311119   9.196   5.541   4.773  0.2034 -0.0727 -0.0606
  780loPI   PO411120   8.688   5.506   5.246 -0.2364  0.0148  0.2109
  780loPI   GL111121   8.536   5.417   5.731  0.1114 -0.0031  0.3197
  780loPI   GL211122   8.734   5.565   5.806  0.0934 -0.0365 -0.1169
  780loPI   C1A11123   8.339   5.613   6.123 -0.0610 -0.2323  0.2340
  780loPI   C2A11124   8.507   5.653   6.495  0.0960  0.1651 -0.0341
  780loPI   C3A11125   8.585   5.698   6.928  0.1504 -0.0355 -0.0562
  780loPI   C4A11126   8.474   5.782   7.428  0.0507 -0.1674  0.1337
  780loPI   C5A11127   8.182   5.758   7.679 -0.2559  0.2101 -0.1546
  780loPI   C6A11128   7.943   5.817   8.067  0.0273 -0.0329 -0.0694
  780loPI   C1B11129   8.843   5.706   6.159  0.1114  0.2987 -0.0782
  780loPI   C2B11130   9.104   5.686   6.442  0.0019  0.0790  0.0181
  780loPI   C3B11131   9.134   5.458   6.875  0.0598 -0.1481 -0.0066
  780loPI   C4B11132   8.903   5.179   7.169  0.2384 -0.2007  0.0724
  781loPI    C111133   2.661  11.276   5.513  0.0242 -0.0768  0.0304
  781loPI    C211134   2.487  11.142   5.179 -0.0793  0.1043  0.0108
  781loPI    C311135   2.300  11.104   5.531  0.0922 -0.2172  0.0708
  781loPI   PO411136   2.723  11.631   5.519  0.0326 -0.1431 -0.1030
  781loPI   GL111137   2.601  11.820   5.864 -0.1310  0.1464  0.0537
  781loPI   GL211138   2.979  11.809   5.945  0.2139 -0.0273 -0.0330
  781loPI   C1A11139   2.621  11.600   6.233 -0.2233 -0.1588 -0.1692
  781loPI   C2A11140   2.603  11.493   6.727 -0.3018  0.1060  0.0312
  781loPI   C3A11141   2.852  11.446   7.154  0.1871 -0.1312  0.0381
  781loPI   C4A11142   3.354  11.498   7.193  0.0285 -0.0196  0.0899
  781loPI   C5A11143   3.647  11.432   7.523 -0.3836 -0.2614  0.0290
  781loPI   C6A11144   4.070  11.339   7.827 -0.1192  0.0338 -0.0708
  781loPI   C1B11145   3.203  11.667   6.347 -0.2041 -0.0428 -0.4088
  781loPI   C2B11146   3.471  11.723   6.733  0.1038  0.1580  0.1463
  781loPI   C3B11147   3.639  11.944   7.051 -0.0527 -0.0397 -0.0256
  781loPI   C4B11148   3.735  11.912   7.584  0.0034 -0.2180  0.2162
  782loPI    C111149   4.225   1.819   5.814  0.1572  0.0206 -0.2272
  782loPI    C211150   3.920   2.018   5.650 -0.0684 -0.1529 -0.0255
  782loPI    C311151   4.092   1.717   5.451 -0.0784 -0.1045 -0.1080
  782loPI   PO411152   4.388   1.993   5.910 -0.2669 -0.4941  0.0803
  782loPI   GL111153   4.331   2.161   6.282 -0.0453 -0.0410  0.0542
  782loPI   GL211154   4.313   2.441   6.187  0.0866  0.2025 -0.0108
  782loPI   C1A11155   4.322   2.311   6.703  0.2520  0.1548  0.2674
  782loPI   C2A11156   4.337   2.131   7.120  0.0945  0.0374  0.1509
  782loPI   C3A11157   4.212   2.223   7.498  0.2256  0.1474  0.0078
  782loPI   C4A11158   3.701   2.313   7.602 -0.0026  0.0035 -0.1569
  782loPI   C5A11159   3.372   2.535   7.774  0.1201  0.0163 -0.3728
  782loPI   C6A11160   2.954   2.628   7.994 -0.0479 -0.0449 -0.0017
  782loPI   C1B11161   4.765   2.379   6.464 -0.2536  0.0939 -0.1636
  782loPI   C2B11162   4.810   2.236   6.884  0.0675  0.3165  0.1978
  782loPI   C3B11163   4.814   1.973   7.152  0.1959  0.0318  0.2655
  782loPI   C4B11164   4.506   1.744   7.384 -0.2787 -0.1130  0.0775
  783loPI    C111165  14.140  16.179   5.815  0.2394 -0.1707 -0.2827
  783loPI    C211166  13.939  16.071   5.487 -0.3300 -0.1919  0.0603
  783loPI    C311167  13.882  16.434   5.646  0.3686  0.0358 -0.1724
  783loPI   PO411168  14.067  15.947   5.984  0.0614  0.1144 -0.2162
  783loPI   GL111169  14.147  16.068   6.372  0.0650 -0.1436 -0.0305
  783loPI   GL211170  14.212  15.694   6.494  0.1791 -0.0599  0.1584
  783loPI   C1A11171  14.179  16.202   6.805  0.0782  0.1531 -0.0977
  783loPI   C2A11172  14.329  16.171   7.229 -0.0006 -0.0715  0.0058
  783loPI   C3A11173  14.232  15.883   7.594  0.2650 -0.3454 -0.2198
  783loPI   C4A11174  14.097  15.921   7.945 -0.0153 -0.0716 -0.0884
  783loPI   C5A11175  14.069  16.179   8.321  0.1565  0.2530  0.1817
  783loPI   C6A11176  13.934  16.395   8.666 -0.1930  0.1202 -0.0539
  783loPI   C1B11177  13.905  15.429   6.705 -0.0870  0.2651 -0.1663
  783loPI   C2B11178  13.506  15.480   7.034  0.1024 -0.1562  0.0176
  783loPI   C3B11179  13.248  15.610   7.327 -0.0616 -0.1317 -0.1765
  783loPI   C4B11180  13.163  15.516   7.736  0.0353 -0.1788 -0.2924
  784loPI    C111181  12.432   0.619   5.568  0.4056 -0.1023  0.2900
  784loPI    C211182  12.679   0.460   5.296 -0.0460 -0.2884 -0.0255
  784loPI    C311183  12.689   0.853   5.370  0.1441 -0.2496 -0.2444
  784loPI   PO411184  12.474   0.530   5.777  0.6498  0.3502 -0.1311
  784loPI   GL111185  12.710   0.367   6.085  0.0889 -0.1776 -0.2266
  784loPI   GL211186  12.352   0.605   6.212 -0.3237 -0.0160  0.1011
  784loPI   C1A11187  12.940   0.149   6.446  0.0772 -0.0729  0.3330
  784loPI   C2A11188  13.023  -0.002   6.874 -0.3801 -0.0708 -0.0256
  784loPI   C3A11189  13.019   0.020   7.337  0.1263  0.0518  0.1204
  784loPI   C4A11190  13.199   0.231   7.649 -0.2672  0.2445 -0.1910
  784loPI   C5A11191  13.151   0.540   7.910 -0.0986  0.0250  0.2454
  784loPI   C6A11192  13.406   0.790   8.269  0.0328  0.1543 -0.1828
  784loPI   C1B11193  12.172   0.976   6.419 -0.1384 -0.1444  0.1555
  784loPI   C2B11194  11.942   0.935   6.724 -0.2248 -0.0758  0.1241
  784loPI   C3B11195  11.976   1.016   7.081 -0.3072  0.2707  0.0698
  784loPI   C4B11196  12.236   0.834   7.422  0.3683  0.0584  0.3328
  785loPI    C111197  11.253   8.084   5.270 -0.0187  0.0732 -0.1819
  785loPI    C211198  11.574   8.322   5.254  0.0275  0.0279  0.0412
  785loPI    C311199  11.447   8.135   4.924  0.2116  0.0706 -0.0553
  785loPI   PO411200  11.319   7.979   5.513  0.0989  0.3189 -0.0548
  785loPI   GL111201  11.217   7.928   5.937 -0.1226 -0.0164  0.0559
  785loPI   GL211202  11.060   8.198   6.008 -0.0227  0.0347  0.1912
  785loPI   C1A11203  11.029   7.696   6.400  0.0181 -0.0744 -0.0711
  785loPI   C2A11204  11.058   7.515   6.793  0.0835 -0.0027 -0.1299
  785loPI   C3A11205  11.175   7.537   7.166 -0.0116  0.1594  0.0353
  785loPI   C4A11206  11.339   7.411   7.566 -0.0595 -0.0386  0.0544
  785loPI   C5A11207  11.536   7.315   7.941  0.0606  0.0783 -0.0906
  785loPI   C6A11208  11.858   7.331   8.148  0.5240 -0.0038  0.2903
  785loPI   C1B11209  11.285   8.414   6.307 -0.1323  0.4133 -0.0172
  785loPI   C2B11210  11.359   8.551   6.807 -0.2017 -0.3148 -0.1264
  785loPI   C3B11211  11.165   8.419   7.198 -0.2616  0.0114  0.0199
  785loPI   C4B11212  10.996   8.508   7.595  0.3516  0.1972  0.0153
  786loPI    C111213   1.286   7.604   5.472  0.0510 -0.0308 -0.1502
  786loPI    C211214   1.569   7.784   5.253 -0.0271  0.1386 -0.1130
  786loPI    C311215   1.227   7.975   5.335 -0.1061 -0.0226 -0.0623
  786loPI   PO411216   1.410   7.430   5.592  0.0800  0.0128  0.0463
  786loPI   GL111217   1.734   7.496   5.787  0.0579 -0.0099 -0.0786
  786loPI   GL211218   1.532   7.649   6.023  0.0356  0.0884  0.4602
  786loPI   C1A11219   2.092   7.637   6.072 -0.0369 -0.0516  0.0417
  786loPI   C2A11220   2.173   7.767   6.491  0.4378  0.1180 -0.1624
  786loPI   C3A11221   2.458   7.829   6.882  0.0966  0.2363  0.2738
  786loPI   C4A11222   2.682   7.590   7.144  0.0105  0.0329  0.1853
  786loPI   C5A11223   3.122   7.331   7.108  0.2794  0.0617  0.3487
  786loPI   C6A11224   3.174   6.851   7.142  0.0078 -0.4119 -0.0081
  786loPI   C1B11225   1.669   7.744   6.447  0.2022  0.0149 -0.1981
  786loPI   C2B11226   1.434   7.811   6.822  0.1475  0.2647  0.2302
  786loPI   C3B11227   1.156   7.734   7.130  0.2429  0.3936 -0.0518
  786loPI   C4B11228   0.801   7.680   7.447 -0.1416 -0.1448  0.2558
  787loPI    C111229   8.705  14.371   5.069  0.1767 -0.0132 -0.3405
  787loPI    C211230   9.042  14.375   5.284  0.1433 -0.4968 -0.2674
  787loPI    C311231   9.052  14.469   4.896  0.2497  0.1104 -0.1278
  787loPI   PO411232   8.475  14.505   5.252 -0.0951  0.1359 -0.2288
  787loPI   GL111233   8.107  14.567   5.648 -0.1218 -0.0906  0.0265
  787loPI   GL211234   8.276  14.483   6.013 -0.0492 -0.0615  0.0570
  787loPI   C1A11235   8.065  14.941   5.973  0.0148 -0.1884  0.1772
  787loPI   C2A11236   7.825  15.080   6.265  0.1912 -0.0589  0.1337
  787loPI   C3A11237   7.437  15.061   6.455 -0.1525  0.1393  0.3105
  787loPI   C4A11238   7.260  15.130   6.871 -0.0125 -0.3074  0.0077
  787loPI   C5A11239   7.052  15.079   7.327 -0.0555  0.1549  0.0173
  787loPI   C6A11240   6.805  15.093   7.630  0.1553 -0.0800 -0.6121
  787loPI   C1B11241   8.066  14.573   6.428 -0.2274 -0.0316 -0.1103
  787loPI   C2B11242   7.935  14.865   6.683  0.2034 -0.2500  0.2479
  787loPI   C3B11243   7.772  14.993   7.001 -0.3071 -0.2476  0.1338
  787loPI   C4B11244   7.612  14.860   7.405 -0.1282 -0.1323  0.2426
  788loPI    C111245  12.254  13.787   5.837 -0.0094  0.0802 -0.1381
  788loPI    C211246  11.952  13.901   5.600  0.0188  0.3927 -0.0289
  788loPI    C311247  11.940  13.981   5.992  0.0734  0.0734  0.0407
  788loPI   PO411248  12.323  13.482   5.766 -0.1804  0.2369 -0.0209
  788loPI   GL111249  12.668  13.141   5.972 -0.5281 -0.0342 -0.2777
  788loPI   GL211250  12.422  13.297   6.209 -0.1578 -0.2253 -0.2715
  788loPI   C1A11251  12.714  12.933   6.407 -0.0766  0.1704  0.3417
  788loPI   C2A11252  12.749  12.927   6.867  0.3220 -0.1336  0.1257
  788loPI   C3A11253  12.740  12.824   7.293  0.0574  0.1050  0.0748
  788loPI   C4A11254  12.736  12.548   7.613  0.1579 -0.0165  0.1371
  788loPI   C5A11255  12.734  12.193   7.991  0.0658  0.3849 -0.0810
  788loPI   C6A11256  13.019  11.901   8.339 -0.1421  0.0720  0.1962
  788loPI   C1B11257  12.506  13.297   6.671  0.4926 -0.0848 -0.1963
  788loPI   C2B11258  12.508  13.305   7.135 -0.2302 -0.1140 -0.2408
  788loPI   C3B11259  12.530  13.451   7.638  0.0197 -0.1247 -0.2050
  788loPI   C4B11260  12.179  13.748   7.873  0.3072  0.0555  0.0457
  789loPI    C111261  17.288   1.339   5.273 -0.0059 -0.2127 -0.2982
  789loPI    C211262  17.578   1.114   5.432 -0.1975 -0.1993  0.0791
  789loPI    C311263  17.392   0.993   5.100  0.0892 -0.3142 -0.0432
  789loPI   PO411264  17.197   1.424   5.580 -0.0943  0.1133  0.1593
  789loPI   GL111265  17.225   1.544   6.044 -0.2271 -0.1785  0.1949
  789loPI   GL211266  17.150   1.381   6.393 -0.0027 -0.1569 -0.0844
  789loPI   C1A11267  16.757   1.634   6.278  0.3062  0.1132  0.3472
  789loPI   C2A11268  16.640   1.743   6.711 -0.0279  0.1154  0.0304
  789loPI   C3A11269  16.367   1.878   7.129 -0.1155  0.0063 -0.1362
  789loPI   C4A11270  16.104   1.959   7.462  0.0082  0.0755 -0.2517
  789loPI   C5A11271  16.215   2.331   7.720  0.1089 -0.0473 -0.3182
  789loPI   C6A11272  16.345   2.612   7.984  0.1627  0.1367 -0.1586
  789loPI   C1B11273  17.144   1.482   6.885  0.1485  0.1309 -0.2055
  789loPI   C2B11274  16.904   1.766   7.160  0.0453 -0.0908  0.1457
  789loPI   C3B11275  17.074   2.060   7.374 -0.2244 -0.0278 -0.1649
  789loPI   C4B11276  17.506   2.172   7.319  0.0667 -0.3491 -0.1877
  790loPI    C111277  10.605   2.880   5.235 -0.2402 -0.0923  0.1559
  790loPI    C211278  10.349   2.576   5.276 -0.0709 -0.2416  0.1205
  790loPI    C311279  10.393   2.754   4.921 -0.1930 -0.1539  0.1485
  790loPI   PO411280  10.627   2.918   5.450  0.0185 -0.3015 -0.0453
  790loPI   GL111281  10.687   3.006   5.827 -0.0712  0.0058  0.0127
  790loPI   GL211282  10.532   2.988   6.035 -0.2352 -0.0048  0.0530
  790loPI   C1A11283  11.101   3.074   6.105  0.0322 -0.0545  0.0040
  790loPI   C2A11284  11.164   3.086   6.504 -0.3258 -0.0828  0.1067
  790loPI   C3A11285  11.105   3.091   6.984 -0.0742  0.0759 -0.1465
  790loPI   C4A11286  11.062   3.011   7.441  0.4165  0.2198  0.1156
  790loPI   C5A11287  10.925   3.077   7.875 -0.1446  0.0926 -0.0599
  790loPI   C6A11288  10.707   3.386   8.138  0.2059 -0.6191 -0.1138
  790loPI   C1B11289  10.753   2.846   6.304  0.1456  0.1269  0.0566
  790loPI   C2B11290  10.730   2.960   6.716  0.1440  0.0238 -0.3063
  790loPI   C3B11291  10.605   3.152   7.103 -0.0440 -0.0245 -0.6547
  790loPI   C4B11292  10.701   3.353   7.483 -0.0889  0.0126 -0.2857
  791loPI    C111293  14.959  10.606   5.303  0.0733 -0.0886 -0.0847
  791loPI    C211294  15.310  10.599   5.112 -0.0128  0.2513 -0.2629
  791loPI    C311295  14.984  10.448   4.937  0.0260  0.0108 -0.1313
  791loPI   PO411296  15.046  10.522   5.532  0.1633 -0.0332  0.2052
  791loPI   GL111297  14.686  10.601   5.768 -0.0876  0.1499 -0.3235
  791loPI   GL211298  14.463  10.781   5.617  0.1317  0.0067 -0.2923
  791loPI   C1A11299  14.683  10.678   6.325  0.0847  0.0562  0.0732
  791loPI   C2A11300  14.498  10.770   6.786  0.0172  0.1118  0.2781
  791loPI   C3A11301  14.492  10.430   7.083 -0.1771  0.1007  0.2194
  791loPI   C4A11302  14.465  10.179   7.414 -0.0700 -0.3034 -0.0112
  791loPI   C5A11303  14.526   9.913   7.707  0.0028  0.0711  0.0447
  791loPI   C6A11304  14.734   9.962   8.060  0.0581  0.1077 -0.1637
  791loPI   C1B11305  14.400  10.966   5.917 -0.4061 -0.1694  0.0800
  791loPI   C2B11306  14.280  11.021   6.358 -0.2699 -0.1125 -0.0710
  791loPI   C3B11307  13.984  10.952   6.735  0.0930  0.2768  0.4359
  791loPI   C4B11308  13.695  10.954   7.065  0.0326  0.0794  0.5501
  792loPI    C111309  16.788   4.356   4.935 -0.2972 -0.0832  0.0795
  792loPI    C211310  16.965   4.254   4.592 -0.1978  0.0668  0.0853
  792loPI    C311311  16.593   4.129   4.669 -0.1876 -0.0421 -0.0367
  792loPI   PO411312  17.018   4.208   5.110 -0.2177 -0.0314 -0.2422
  792loPI   GL111313  17.097   4.299   5.553 -0.2857  0.0525  0.0474
  792loPI   GL211314  16.791   4.277   5.536 -0.3699  0.0497  0.0474
  792loPI   C1A11315  16.868   4.506   5.976  0.0344  0.1602  0.1081
  792loPI   C2A11316  16.834   4.429   6.355 -0.0007  0.2440 -0.1708
  792loPI   C3A11317  16.668   4.456   6.784 -0.0735  0.3262 -0.1716
  792loPI   C4A11318  16.465   4.379   7.123 -0.1331  0.3335  0.0001
  792loPI   C5A11319  16.280   4.233   7.373  0.0541  0.1547  0.2634
  792loPI   C6A11320  16.341   4.185   7.804 -0.2445 -0.1115 -0.2417
  792loPI   C1B11321  16.749   3.987   5.905 -0.1350  0.2432 -0.2710
  792loPI   C2B11322  16.782   3.916   6.356  0.1701  0.0199  0.0682
  792loPI   C3B11323  17.125   3.752   6.625  0.1907  0.0696 -0.2969
  792loPI   C4B11324  17.350   3.534   6.861  0.2699  0.1845 -0.0593
  793loPI    C111325   8.093  11.127   5.610  0.3129 -0.1935 -0.2528
  793loPI    C211326   7.996  11.515   5.600 -0.1090 -0.2947 -0.2538
  793loPI    C311327   8.220  11.357   5.308  0.3245  0.0089 -0.0957
  793loPI   PO411328   7.993  10.907   5.747  0.3476 -0.0807  0.1111
  793loPI   GL111329   7.888  10.606   5.982  0.2148 -0.1436 -0.3618
  793loPI   GL211330   8.133  10.480   6.120 -0.3058  0.1073 -0.0458
  793loPI   C1A11331   7.539  10.556   6.247 -0.0077 -0.2209  0.1489
  793loPI   C2A11332   7.526  10.485   6.652 -0.0265  0.1487  0.2552
  793loPI   C3A11333   7.655  10.761   6.992  0.2854  0.0483 -0.2203
  793loPI   C4A11334   7.782  11.130   7.268  0.1644 -0.1333  0.2028
  793loPI   C5A11335   7.860  11.336   7.616 -0.1110 -0.0379 -0.2098
  793loPI   C6A11336   8.136  11.564   7.826 -0.1334 -0.3077  0.0423
  793loPI   C1B11337   8.087  10.664   6.477 -0.1377  0.1041  0.2917
  793loPI   C2B11338   8.110  10.734   6.861  0.1888  0.2156 -0.0801
  793loPI   C3B11339   8.310  11.023   7.350  0.1195 -0.0186 -0.1998
  793loPI   C4B11340   8.448  11.105   7.776  0.0181  0.2115 -0.1797
  794loPI    C111341  13.975   7.329   5.258 -0.0928  0.0914 -0.0164
  794loPI    C211342  13.895   7.387   4.871 -0.3661 -0.2313 -0.0132
  794loPI    C311343  14.217   7.176   4.979 -0.0810  0.1733 -0.0513
  794loPI   PO411344  13.881   7.588   5.327  0.0642  0.0033 -0.1299
  794loPI   GL111345  13.829   7.531   5.737 -0.1245 -0.3290  0.0154
  794loPI   GL211346  14.155   7.317   5.751 -0.0349 -0.0553  0.0402
  794loPI   C1A11347  14.022   7.645   6.188  0.0436 -0.2917 -0.0959
  794loPI   C2A11348  14.034   7.754   6.710  0.1801 -0.1374  0.0257
  794loPI   C3A11349  13.833   7.696   7.117 -0.2420 -0.1929  0.0509
  794loPI   C4A11350  13.698   7.925   7.400  0.0265 -0.0049 -0.0973
  794loPI   C5A11351  13.512   8.195   7.764  0.4595  0.0424  0.4391
  794loPI   C6A11352  13.512   8.316   8.185 -0.2257 -0.0443 -0.2938
  794loPI   C1B11353  14.275   7.172   6.123  0.0246 -0.0560  0.1857
  794loPI   C2B11354  14.084   7.257   6.566 -0.1511  0.1415  0.3755
  794loPI   C3B11355  14.132   7.346   6.949  0.0537  0.1390 -0.1533
  794loPI   C4B11356  13.989   7.227   7.297 -0.0373 -0.2017 -0.0265
  795loPI    C111357  10.346  12.150   5.407 -0.2311 -0.0057 -0.1129
  795loPI    C211358  10.074  11.884   5.282  0.0883 -0.3664 -0.0566
  795loPI    C311359  10.251  12.128   5.019 -0.2390 -0.1719 -0.1020
  795loPI   PO411360  10.508  12.032   5.589 -0.0422 -0.1969  0.0378
  795loPI   GL111361  10.826  11.799   5.870 -0.1525 -0.0878  0.0226
  795loPI   GL211362  11.012  12.108   6.064  0.2297  0.0048  0.1486
  795loPI   C1A11363  10.882  11.607   6.249 -0.0835 -0.0629 -0.4071
  795loPI   C2A11364  10.932  11.495   6.576  0.0215  0.0145  0.2405
  795loPI   C3A11365  10.929  11.344   6.963 -0.1723 -0.0383 -0.3130
  795loPI   C4A11366  11.028  11.118   7.364 -0.0631 -0.0217  0.2193
  795loPI   C5A11367  10.795  10.926   7.760 -0.1010  0.1695 -0.0641
  795loPI   C6A11368  10.442  10.786   7.945 -0.1860 -0.3053 -0.3364
  795loPI   C1B11369  11.154  11.965   6.480  0.0858  0.0642  0.1750
  795loPI   C2B11370  11.205  11.813   6.820  0.1320  0.1661 -0.3435
  795loPI   C3B11371  11.023  11.875   7.192 -0.2155  0.1593  0.1553
  795loPI   C4B11372  10.674  11.999   7.425 -0.4005 -0.4498 -0.3711
  796loPI    C111373  13.426   6.305   5.204 -0.2424 -0.1332 -0.0869
  796loPI    C211374  13.493   5.997   5.450 -0.0252  0.1238  0.1835
  796loPI    C311375  13.126   6.060   5.303 -0.1136 -0.1476  0.2814
  796loPI   PO411376  13.567   6.466   5.371  0.0128 -0.1829 -0.2623
  796loPI   GL111377  13.940   6.437   5.738 -0.1308 -0.1988 -0.2256
  796loPI   GL211378  13.735   6.310   5.856 -0.2549 -0.2894  0.3101
  796loPI   C1A11379  13.886   6.740   6.129  0.0042  0.1245  0.1044
  796loPI   C2A11380  13.797   6.853   6.486 -0.1092 -0.1112 -0.1904
  796loPI   C3A11381  13.947   6.758   6.880 -0.3644 -0.0979 -0.1453
  796loPI   C4A11382  14.215   6.662   7.112 -0.0392  0.0539  0.0920
  796loPI   C5A11383  14.177   6.656   7.609 -0.1025  0.2597  0.0679
  796loPI   C6A11384  14.531   6.613   7.985 -0.1996 -0.1852  0.0518
  796loPI   C1B11385  13.632   6.028   6.237  0.0641 -0.0146 -0.2397
  796loPI   C2B11386  13.857   5.875   6.635 -0.1954 -0.0774 -0.2766
  796loPI   C3B11387  13.674   5.809   7.091 -0.0191  0.2449  0.0140
  796loPI   C4B11388  13.893   5.848   7.560 -0.1218 -0.2343 -0.1450
  797loPI    C111389  12.217  13.164   5.244 -0.2657 -0.0422  0.0036
  797loPI    C211390  12.154  13.552   5.317 -0.2104 -0.0159 -0.0870
  797loPI    C311391  12.179  13.421   4.939 -0.1133 -0.0886 -0.0559
  797loPI   PO411392  12.170  13.005   5.436 -0.0828 -0.1596  0.2828
  797loPI   GL111393  12.225  12.911   5.787  0.1641  0.1350  0.1375
  797loPI   GL211394  11.976  13.027   6.064 -0.2088  0.0863 -0.0884
  797loPI   C1A11395  12.363  12.596   6.123  0.1223  0.1148  0.0764
  797loPI   C2A11396  12.412  12.486   6.592 -0.2285  0.0254  0.2545
  797loPI   C3A11397  12.509  12.427   7.051  0.2344 -0.0256  0.2357
  797loPI   C4A11398  12.317  12.384   7.478  0.2235  0.5687  0.1397
  797loPI   C5A11399  12.311  12.286   7.782 -0.3147 -0.0895 -0.0028
  797loPI   C6A11400  12.170  12.079   8.127  0.2121 -0.0985  0.0721
  797loPI   C1B11401  12.111  12.849   6.419  0.2035  0.1169  0.1082
  797loPI   C2B11402  12.229  12.860   6.930  0.3714 -0.2985  0.1215
  797loPI   C3B11403  12.120  13.051   7.319 -0.3747 -0.0348 -0.1826
  797loPI   C4B11404  12.425  12.924   7.608 -0.0241  0.1517 -0.3693
  798loPI    C111405   2.404   2.320   5.274  0.1509  0.0067 -0.0270
  798loPI    C211406   2.681   2.495   5.045 -0.0630  0.0296 -0.2726
  798loPI    C311407   2.501   2.161   4.920  0.1420 -0.2150  0.0683
  798loPI   PO411408   2.502   2.296   5.513 -0.1759 -0.0263  0.2122
  798loPI   GL111409   2.474   2.600   5.842  0.1596 -0.2450 -0.0796
  798loPI   GL211410   2.617   2.350   6.114  0.2634  0.0257  0.2633
  798loPI   C1A11411   2.512   2.803   6.208 -0.1196  0.0219 -0.2446
  798loPI   C2A11412   2.495   2.718   6.630  0.0097  0.2149  0.1705
  798loPI   C3A11413   2.457   2.782   7.070  0.3535  0.0739 -0.0944
  798loPI   C4A11414   2.371   2.584   7.424  0.0781  0.2904  0.2069
  798loPI   C5A11415   2.464   2.456   7.751  0.1699 -0.1322  0.1519
  798loPI   C6A11416   2.186   2.500   8.130  0.1184  0.0431 -0.3314
  798loPI   C1B11417   2.757   2.256   6.500  0.1004  0.1973  0.0146
  798loPI   C2B11418   2.935   2.025   6.871 -0.0703  0.3766  0.1627
  798loPI   C3B11419   2.917   1.860   7.185  0.0724  0.3809 -0.0072
  798loPI   C4B11420   2.678   1.815   7.529  0.4416 -0.1163 -0.0134
  799loPI    C111421  10.399  15.500   5.925 -0.0085 -0.2601  0.0909
  799loPI    C211422  10.702  15.312   5.744  0.1209  0.0674 -0.0408
  799loPI    C311423  10.475  15.570   5.538 -0.2537 -0.1769  0.0554
  799loPI   PO411424  10.505  15.581   6.195 -0.0221 -0.2696 -0.0087
  799loPI   GL111425  10.470  15.659   6.608  0.2035 -0.0454  0.0907
  799loPI   GL211426  10.130  15.458   6.540  0.0110  0.1557  0.5413
  799loPI   C1A11427  10.315  16.093   6.811  0.1362  0.0263  0.2563
  799loPI   C2A11428  10.453  16.334   7.088 -0.2834  0.1427 -0.1681
  799loPI   C3A11429  10.701  16.419   7.391 -0.0116 -0.0583 -0.0701
  799loPI   C4A11430  10.851  16.325   7.821  0.1953  0.1810  0.0600
  799loPI   C5A11431  11.086  16.243   8.204  0.0304  0.0586 -0.1202
  799loPI   C6A11432  10.887  16.330   8.648  0.2592 -0.1785 -0.0763
  799loPI   C1B11433   9.624  15.499   6.812  0.1747 -0.2423 -0.1405
  799loPI   C2B11434   9.417  15.348   7.243  0.0436  0.1021  0.2270
  799loPI   C3B11435   9.204  15.437   7.630 -0.0863 -0.0524  0.4113
  799loPI   C4B11436   9.165  15.413   8.010 -0.0450  0.1154  0.0693
  800loPI    C111437  14.560   9.367   4.946  0.2782 -0.0365  0.0764
  800loPI    C211438  14.789   9.056   5.051  0.1851 -0.0423  0.2657
  800loPI    C311439  14.395   9.006   5.001  0.1976  0.0062  0.1157
  800loPI   PO411440  14.578   9.574   5.082  0.2783  0.3377 -0.0862
  800loPI   GL111441  14.346   9.782   5.385 -0.0137 -0.1936 -0.0929
  800loPI   GL211442  14.085   9.716   5.369  0.3371  0.1167  0.1510
  800loPI   C1A11443  14.449   9.651   5.817  0.1402  0.0495 -0.0893
  800loPI   C2A11444  14.340   9.470   6.133  0.0348 -0.3641  0.1742
  800loPI   C3A11445  14.397   9.410   6.582 -0.1582  0.1819  0.1726
  800loPI   C4A11446  14.501   9.457   6.962 -0.0065  0.2485 -0.0159
  800loPI   C5A11447  14.458   9.427   7.398  0.4000  0.0480 -0.1399
  800loPI   C6A11448  14.348   9.013   7.634 -0.1518 -0.1280  0.2684
  800loPI   C1B11449  13.991   9.435   5.712  0.1558 -0.2892 -0.1394
  800loPI   C2B11450  13.825   9.546   6.097 -0.1065  0.2219  0.0967
  800loPI   C3B11451  13.850   9.266   6.469 -0.0538 -0.1296 -0.0583
  800loPI   C4B11452  14.144   8.919   6.527  0.0993  0.0749 -0.4409
  801loPI    C111453   3.145  10.954   5.392  0.1368  0.0269 -0.1914
  801loPI    C211454   3.070  10.690   5.102  0.0422  0.0537 -0.1918
  801loPI    C311455   2.966  11.073   5.055 -0.0667  0.0384 -0.0814
  801loPI   PO411456   3.338  10.907   5.461 -0.2561 -0.0216 -0.0135
  801loPI   GL111457   3.567  10.733   5.702 -0.0258 -0.2145 -0.0373
  801loPI   GL211458   3.923  10.769   5.787  0.0383 -0.0108  0.1490
  801loPI   C1A11459   3.290  10.920   6.108  0.2656  0.0338 -0.1599
  801loPI   C2A11460   3.313  11.056   6.474  0.0063 -0.0472 -0.1722
  801loPI   C3A11461   3.094  11.206   6.761  0.0143 -0.1255  0.0519
  801loPI   C4A11462   3.102  11.031   7.147  0.0446  0.4650  0.0722
  801loPI   C5A11463   3.261  10.927   7.572 -0.0319 -0.1501 -0.2111
  801loPI   C6A11464   3.651  10.754   7.770 -0.0786 -0.1859 -0.0412
  801loPI   C1B11465   3.871  10.382   6.026 -0.3839  0.1031  0.0964
  801loPI   C2B11466   4.019  10.237   6.471 -0.2537 -0.1670 -0.1190
  801loPI   C3B11467   4.232  10.206   6.818 -0.2779  0.0910 -0.0282
  801loPI   C4B11468   4.136  10.122   7.336  0.2892 -0.1990  0.3290
  802loPI    C111469  18.161   9.186   5.169  0.0621 -0.1150 -0.1457
  802loPI    C211470  17.933   8.948   4.942 -0.1124 -0.1103  0.0221
  802loPI    C311471  17.874   8.964   5.338 -0.0723  0.1778  0.0187
  802loPI   PO411472  18.154   9.497   5.187 -0.3018  0.1137  0.1507
  802loPI   GL111473  18.273   9.322   5.659  0.2237  0.3322 -0.0187
  802loPI   GL211474  18.010   9.100   5.871  0.1489  0.1204 -0.1192
  802loPI   C1A11475  18.346   9.609   6.043 -0.0596  0.0940  0.3204
  802loPI   C2A11476  18.357   9.607   6.500  0.3906 -0.0841 -0.3274
  802loPI   C3A11477  18.177   9.629   6.880  0.2042  0.2031  0.1665
  802loPI   C4A11478  18.221   9.525   7.307 -0.2176  0.1668 -0.0991
  802loPI   C5A11479  18.331   9.145   7.615  0.0257 -0.1426  0.1040
  802loPI   C6A11480  18.277   8.987   8.039 -0.0834  0.4201  0.1400
  802loPI   C1B11481  17.884   9.491   6.208 -0.0314 -0.3502  0.2058
  802loPI   C2B11482  17.713   9.474   6.653  0.0436 -0.0466 -0.0358
  802loPI   C3B11483  17.714   9.380   6.998  0.0990 -0.0667  0.1011
  802loPI   C4B11484  17.784   9.319   7.441  0.0002 -0.0015 -0.4022
  803loPI    C111485   3.105   8.850   4.885 -0.0324  0.0613 -0.0273
  803loPI    C211486   3.028   8.490   5.041  0.1614  0.0422  0.0278
  803loPI    C311487   3.051   8.535   4.645  0.0748  0.0074  0.0185
  803loPI   PO411488   2.990   8.969   5.098  0.1848 -0.0402 -0.0486
  803loPI   GL111489   2.964   8.872   5.585 -0.1730 -0.1522  0.2366
  803loPI   GL211490   2.813   8.907   5.869 -0.0547  0.4000 -0.0200
  803loPI   C1A11491   3.019   8.477   5.905 -0.1655 -0.4942  0.1049
  803loPI   C2A11492   3.186   8.597   6.321  0.1527 -0.1116 -0.2138
  803loPI   C3A11493   3.231   8.431   6.798 -0.3272 -0.3684  0.1513
  803loPI   C4A11494   3.441   8.140   7.080 -0.0914  0.2191 -0.3190
  803loPI   C5A11495   3.383   7.993   7.511  0.0716  0.0370  0.0309
  803loPI   C6A11496   3.562   7.805   7.911 -0.3320  0.1457 -0.2700
  803loPI   C1B11497   3.169   9.061   6.119 -0.0933 -0.2693 -0.1715
  803loPI   C2B11498   3.230   9.111   6.424 -0.0092 -0.2344 -0.0066
  803loPI   C3B11499   3.303   9.035   6.891 -0.0348 -0.2040  0.3149
  803loPI   C4B11500   3.389   8.742   7.169 -0.2226  0.1096  0.0770
  804loPI    C111501   8.406   0.688   5.034 -0.3536  0.0627 -0.0094
  804loPI    C211502   8.557   1.049   4.953 -0.1286  0.0384  0.2859
  804loPI    C311503   8.509   0.782   4.659  0.1393  0.1464  0.1399
  804loPI   PO411504   8.572   0.642   5.253 -0.0953 -0.1910 -0.3913
  804loPI   GL111505   8.636   0.903   5.734 -0.3636 -0.0159  0.1913
  804loPI   GL211506   8.594   0.568   5.765  0.4822  0.2746  0.1628
  804loPI   C1A11507   8.544   1.084   6.158  0.2287  0.1548  0.1550
  804loPI   C2A11508   8.577   1.123   6.625  0.1719  0.0673 -0.2046
  804loPI   C3A11509   8.638   0.973   6.994  0.0605 -0.0119 -0.1743
  804loPI   C4A11510   8.667   1.144   7.494  0.0001  0.2606 -0.0753
  804loPI   C5A11511   8.506   1.203   7.891  0.3530  0.0823  0.2940
  804loPI   C6A11512   8.176   1.351   7.875  0.0602  0.1244 -0.0589
  804loPI   C1B11513   8.524   0.547   6.179 -0.3143 -0.1425 -0.0478
  804loPI   C2B11514   8.482   0.577   6.578  0.0315  0.0176 -0.1809
  804loPI   C3B11515   8.527   0.455   7.016  0.4080 -0.0486 -0.5875
  804loPI   C4B11516   8.206   0.297   7.331  0.0254 -0.0024 -0.1923
  805loPI    C111517   8.252   4.624   5.059 -0.1297  0.2531 -0.0542
  805loPI    C211518   8.533   4.515   4.797  0.0354 -0.0372  0.2365
  805loPI    C311519   8.168   4.351   4.779 -0.0334  0.1339  0.0320
  805loPI   PO411520   8.300   4.621   5.250  0.1420 -0.3963  0.0821
  805loPI   GL111521   8.184   4.461   5.610 -0.2590  0.2243 -0.0870
  805loPI   GL211522   8.270   4.819   5.723  0.0947 -0.0587  0.0534
  805loPI   C1A11523   7.835   4.451   5.946  0.1032  0.0744 -0.0231
  805loPI   C2A11524   7.745   4.529   6.392 -0.2300  0.0310 -0.1466
  805loPI   C3A11525   7.747   4.384   6.845  0.1280  0.1369  0.1167
  805loPI   C4A11526   7.926   4.071   7.126  0.0505 -0.3172 -0.1360
  805loPI   C5A11527   7.905   3.835   7.556  0.1204 -0.1323 -0.0339
  805loPI   C6A11528   7.902   3.711   7.922 -0.0021 -0.0252  0.2540
  805loPI   C1B11529   8.273   4.606   6.194 -0.0600  0.1626 -0.4239
  805loPI   C2B11530   8.126   4.707   6.649 -0.0573  0.0022 -0.1440
  805loPI   C3B11531   8.245   4.901   7.067 -0.0796 -0.0982  0.2170
  805loPI   C4B11532   8.377   5.351   7.182  0.0844 -0.0004 -0.0511
  806loPI    C111533  10.610   2.340   5.613  0.0672  0.0029 -0.0377
  806loPI    C211534  10.897   2.490   5.378  0.2501 -0.3191 -0.0260
  806loPI    C311535  10.954   2.141   5.566 -0.0978 -0.3201  0.0859
  806loPI   PO411536  10.465   2.556   5.761 -0.0460 -0.1652 -0.2412
  806loPI   GL111537  10.349   2.484   6.127 -0.1603  0.0821  0.2926
  806loPI   GL211538  10.040   2.778   6.101 -0.0182 -0.2801  0.3853
  806loPI   C1A11539  10.346   2.668   6.528  0.0464 -0.0155 -0.2195
  806loPI   C2A11540  10.184   2.841   6.914  0.1303  0.1498  0.1494
  806loPI   C3A11541  10.119   3.070   7.158  0.0072 -0.1987  0.3092
  806loPI   C4A11542  10.318   3.047   7.525  0.3145  0.1356 -0.4969
  806loPI   C5A11543  10.247   2.676   7.886  0.0754  0.4202 -0.1232
  806loPI   C6A11544  10.392   2.252   8.129 -0.1985 -0.1050  0.2587
  806loPI   C1B11545   9.878   2.844   6.532 -0.2923  0.1556  0.1677
  806loPI   C2B11546   9.697   2.931   6.896  0.0562 -0.2507 -0.1807
  806loPI   C3B11547   9.618   3.020   7.185  0.0251  0.1534 -0.2349
  806loPI   C4B11548   9.849   3.255   7.551  0.1581  0.0419 -0.0243
  807loPI    C111549   6.025   1.817   5.298 -0.1388 -0.0259  0.0191
  807loPI    C211550   6.422   1.770   5.290 -0.1416 -0.0580  0.0620
  807loPI    C311551   6.187   1.521   5.084 -0.1409 -0.0550  0.0575
  807loPI   PO411552   6.040   1.930   5.562  0.3322  0.1411 -0.1652
  807loPI   GL111553   5.918   2.127   5.951  0.1842  0.5121  0.2895
  807loPI   GL211554   5.726   2.035   6.232 -0.0942  0.0569  0.1173
  807loPI   C1A11555   6.237   2.135   6.264 -0.1897  0.2873  0.3135
  807loPI   C2A11556   6.334   2.192   6.656  0.4136  0.1584  0.0616
  807loPI   C3A11557   6.320   1.880   7.023  0.2841  0.1986 -0.0498
  807loPI   C4A11558   6.530   1.795   7.424 -0.1902  0.0008 -0.2395
  807loPI   C5A11559   6.370   1.357   7.619  0.3582  0.1284  0.0605
  807loPI   C6A11560   6.668   0.957   7.775  0.0080  0.0877  0.2271
  807loPI   C1B11561   5.829   2.211   6.631  0.0196  0.0713 -0.1992
  807loPI   C2B11562   5.933   2.257   7.086 -0.0162 -0.1866 -0.0388
  807loPI   C3B11563   6.309   2.203   7.381 -0.2243 -0.0576 -0.0873
  807loPI   C4B11564   6.620   2.373   7.653  0.0193 -0.3606 -0.1594
  808loPI    C111565   1.952  15.238   5.648 -0.0635  0.1405  0.4062
  808loPI    C211566   1.640  15.098   5.442 -0.1090  0.1968  0.4367
  808loPI    C311567   1.987  15.167   5.256  0.0057 -0.2427  0.4778
  808loPI   PO411568   1.912  15.109   5.843  0.1041 -0.1312  0.2080
  808loPI   GL111569   2.122  15.016   6.175  0.0260  0.0672  0.0597
  808loPI   GL211570   2.396  14.906   6.165 -0.4005 -0.1415  0.1249
  808loPI   C1A11571   2.040  15.003   6.564  0.2333  0.3314  0.1050
  808loPI   C2A11572   2.034  14.998   6.994  0.2106 -0.0465 -0.1986
  808loPI   C3A11573   2.173  15.036   7.398 -0.0384 -0.2897 -0.0569
  808loPI   C4A11574   2.460  15.231   7.737  0.1984  0.1389 -0.2267
  808loPI   C5A11575   2.644  15.198   8.170  0.1457  0.0991  0.1155
  808loPI   C6A11576   2.853  14.734   8.503 -0.2294  0.1732  0.0091
  808loPI   C1B11577   2.483  14.967   6.553 -0.2271  0.1195 -0.0923
  808loPI   C2B11578   2.603  14.909   6.978 -0.0195  0.1365 -0.1716
  808loPI   C3B11579   2.663  14.815   7.436 -0.1892  0.2100  0.3246
  808loPI   C4B11580   2.899  14.923   7.820 -0.1636 -0.0258  0.3289
  809loPI    C111581   8.396  13.573   5.478  0.2472 -0.1619 -0.1449
  809loPI    C211582   8.167  13.301   5.295  0.0822  0.1242 -0.3717
  809loPI    C311583   8.449  13.495   5.089  0.1597  0.1683 -0.2254
  809loPI   PO411584   8.369  13.532   5.728  0.5084  0.2180  0.2988
  809loPI   GL111585   8.069  13.656   6.031  0.1222  0.2987  0.0924
  809loPI   GL211586   8.008  13.984   6.078 -0.0623 -0.1837  0.2259
  809loPI   C1A11587   7.777  13.692   6.402  0.1631 -0.1489 -0.0465
  809loPI   C2A11588   7.623  13.892   6.784 -0.2916  0.0390 -0.2407
  809loPI   C3A11589   7.478  14.151   7.165 -0.0339 -0.0475  0.2226
  809loPI   C4A11590   7.571  14.395   7.491 -0.1081 -0.1321 -0.0510
  809loPI   C5A11591   7.692  14.439   7.917  0.1841 -0.2328  0.0446
  809loPI   C6A11592   8.103  14.563   8.114  0.1756  0.0025  0.0699
  809loPI   C1B11593   7.970  14.109   6.519  0.1418 -0.0074 -0.0925
  809loPI   C2B11594   7.815  14.350   6.858 -0.2252  0.2287  0.0707
  809loPI   C3B11595   7.971  14.539   7.217 -0.0540 -0.2370  0.1500
  809loPI   C4B11596   8.054  14.631   7.628 -0.1805 -0.0063  0.1397
  810loPI    C111597  12.282   9.014   4.792 -0.0335  0.2036  0.0046
  810loPI    C211598  11.893   8.919   4.798  0.0455 -0.1374 -0.0952
  810loPI    C311599  12.114   8.840   4.474  0.1761  0.1541 -0.0804
  810loPI   PO411600  12.365   8.921   5.039 -0.1412 -0.0016 -0.2108
  810loPI   GL111601  12.344   9.177   5.453  0.0594  0.2113 -0.0831
  810loPI   GL211602  12.144   8.985   5.582 -0.0986 -0.0616 -0.0074
  810loPI   C1A11603  12.578   9.245   5.700 -0.1735  0.4185  0.4219
  810loPI   C2A11604  13.005   9.363   5.880  0.0928 -0.3243  0.3249
  810loPI   C3A11605  13.312   9.338   6.310  0.0047  0.1802  0.1461
  810loPI   C4A11606  13.431   9.645   6.537 -0.1289 -0.2184 -0.1701
  810loPI   C5A11607  13.215   9.950   6.844 -0.0347 -0.2302 -0.0316
  810loPI   C6A11608  13.093   9.904   7.233  0.0626  0.0750 -0.0295
  810loPI   C1B11609  12.150   9.055   6.009  0.1637  0.2407  0.0324
  810loPI   C2B11610  12.657   8.997   6.183  0.0709  0.0928 -0.2398
  810loPI   C3B11611  12.726   9.217   6.585 -0.1000 -0.0008 -0.0560
  810loPI   C4B11612  12.927   9.539   6.806  0.0954  0.1008  0.4673
  811loPI    C111613   0.393   5.908   5.144 -0.0801  0.2100  0.0008
  811loPI    C211614   0.029   6.039   5.039 -0.1077  0.0709 -0.0787
  811loPI    C311615   0.098   5.646   5.077  0.0132  0.1005  0.0154
  811loPI   PO411616   0.437   6.069   5.457  0.0985  0.3695 -0.1271
  811loPI   GL111617   0.746   6.144   5.850  0.2775 -0.0400 -0.1775
  811loPI   GL211618   0.272   6.182   5.898  0.1870 -0.1711  0.0671
  811loPI   C1A11619   0.552   6.179   6.237 -0.2327 -0.0071  0.3997
  811loPI   C2A11620   0.431   5.853   6.543  0.1086  0.0399 -0.1830
  811loPI   C3A11621   0.215   5.618   6.792  0.2071  0.2089 -0.2210
  811loPI   C4A11622   0.078   5.345   7.189  0.0158  0.1971 -0.0352
  811loPI   C5A11623   0.138   5.338   7.672 -0.0676 -0.1472  0.0118
  811loPI   C6A11624   0.492   5.247   7.964  0.2474  0.3011 -0.1274
  811loPI   C1B11625   0.006   6.075   6.210  0.0529 -0.1386  0.0556
  811loPI   C2B11626  -0.085   6.112   6.663 -0.0336  0.0015 -0.1598
  811loPI   C3B11627   0.175   6.079   7.026 -0.0276  0.1280 -0.1058
  811loPI   C4B11628   0.602   5.899   7.023  0.0218 -0.1359  0.1506
  812loPI    C111629   8.066   1.106   5.144 -0.3057  0.0912 -0.0155
  812loPI    C211630   7.862   0.767   5.083 -0.3664  0.1097  0.0831
  812loPI    C311631   7.951   1.006   4.774  0.2596 -0.3260 -0.0922
  812loPI   PO411632   8.187   1.022   5.354 -0.1101 -0.0719  0.2351
  812loPI   GL111633   7.916   0.865   5.687  0.1069 -0.2234 -0.1977
  812loPI   GL211634   8.134   0.807   5.811  0.0662 -0.1700  0.1449
  812loPI   C1A11635   7.752   1.262   6.012 -0.0929 -0.0161  0.0090
  812loPI   C2A11636   7.646   1.107   6.487  0.1511 -0.0036  0.0682
  812loPI   C3A11637   7.650   1.144   6.868 -0.2377 -0.1335  0.0017
  812loPI   C4A11638   7.632   1.134   7.215  0.1117 -0.1974 -0.1271
  812loPI   C5A11639   7.721   1.203   7.601  0.0243 -0.1917 -0.1235
  812loPI   C6A11640   7.626   0.982   7.945  0.0051  0.3474  0.2080
  812loPI   C1B11641   8.067   0.861   6.273  0.1950 -0.0226 -0.0899
  812loPI   C2B11642   8.123   0.920   6.696 -0.0052 -0.1944  0.2161
  812loPI   C3B11643   8.187   1.236   6.930 -0.1717 -0.2095 -0.0974
  812loPI   C4B11644   8.226   1.353   7.391  0.1625 -0.2604  0.0893
  813loPI    C111645   1.479   6.792   5.205 -0.0030  0.1266 -0.0428
  813loPI    C211646   1.183   6.905   4.959 -0.0772 -0.1264 -0.0722
  813loPI    C311647   1.522   6.755   4.809  0.0267  0.0669 -0.0340
  813loPI   PO411648   1.387   6.949   5.491 -0.2356  0.1657  0.1742
  813loPI   GL111649   1.477   7.025   5.877  0.0706  0.4447 -0.1484
  813loPI   GL211650   1.662   6.705   5.871 -0.5231 -0.0235  0.0214
  813loPI   C1A11651   1.663   7.138   6.166 -0.2245 -0.1166 -0.0876
  813loPI   C2A11652   1.943   7.254   6.486 -0.2284 -0.1154 -0.1104
  813loPI   C3A11653   1.794   7.458   6.850 -0.0259  0.1494  0.1480
  813loPI   C4A11654   1.577   7.576   7.364  0.0178 -0.1149 -0.0398
  813loPI   C5A11655   1.446   7.841   7.743  0.1735 -0.0771 -0.0158
  813loPI   C6A11656   1.083   8.016   7.733  0.3323  0.1498  0.3130
  813loPI   C1B11657   1.529   6.446   6.186 -0.2366  0.0287 -0.0823
  813loPI   C2B11658   1.396   6.336   6.570 -0.1958  0.0782 -0.3335
  813loPI   C3B11659   1.546   6.231   7.015  0.0314 -0.0573  0.0745
  813loPI   C4B11660   1.392   6.089   7.359  0.4129 -0.0684 -0.1612
  814loPI    C111661   2.380   6.411   4.972 -0.0125  0.1205 -0.0612
  814loPI    C211662   2.014   6.299   4.856 -0.0388  0.1028  0.0383
  814loPI    C311663   2.296   6.373   4.583 -0.1442  0.2096 -0.0422
  814loPI   PO411664   2.307   6.436   5.264 -0.1725  0.1541 -0.1420
  814loPI   GL111665   2.235   6.204   5.637  0.0252  0.0794  0.0020
  814loPI   GL211666   2.162   5.831   5.667  0.1542 -0.0204 -0.3490
  814loPI   C1A11667   2.020   6.441   5.961  0.2008  0.5035  0.0366
  814loPI   C2A11668   1.909   6.729   6.365 -0.1450 -0.0125 -0.2589
  814loPI   C3A11669   1.812   6.807   6.815 -0.1169  0.1473  0.2346
  814loPI   C4A11670   1.630   6.683   7.169 -0.3549 -0.0391 -0.2858
  814loPI   C5A11671   1.686   6.709   7.645 -0.1351  0.1482 -0.3220
  814loPI   C6A11672   1.910   6.351   7.643  0.0142 -0.1992 -0.1398
  814loPI   C1B11673   1.951   5.953   5.997 -0.0274  0.2207  0.0181
  814loPI   C2B11674   1.696   5.977   6.306 -0.1880 -0.0920  0.0200
  814loPI   C3B11675   1.599   5.860   6.686  0.0779 -0.1041 -0.0540
  814loPI   C4B11676   1.779   5.698   7.036  0.0918  0.1268 -0.0545
  815loPI    C111677   6.054  12.699   5.528 -0.2917 -0.2709  0.1166
  815loPI    C211678   6.021  13.055   5.349  0.0320 -0.2763  0.0395
  815loPI    C311679   6.285  13.004   5.645 -0.2165 -0.3769  0.2480
  815loPI   PO411680   5.795  12.502   5.456  0.1963 -0.0459 -0.0519
  815loPI   GL111681   5.505  12.469   5.835  0.1452 -0.0197 -0.1247
  815loPI   GL211682   5.302  12.185   5.816  0.1140  0.0197  0.0078
  815loPI   C1A11683   5.648  12.415   6.251 -0.0327 -0.1014 -0.0355
  815loPI   C2A11684   5.963  12.431   6.487  0.3034  0.1478 -0.0524
  815loPI   C3A11685   6.016  12.512   6.957  0.0405 -0.3494  0.0602
  815loPI   C4A11686   6.128  12.504   7.342 -0.2924 -0.3140  0.3187
  815loPI   C5A11687   6.180  12.729   7.653 -0.0042  0.1656 -0.4023
  815loPI   C6A11688   6.134  12.728   8.073 -0.0981  0.1949 -0.0238
  815loPI   C1B11689   5.099  12.488   6.029  0.4859 -0.1066  0.1505
  815loPI   C2B11690   4.972  12.908   6.249  0.2450  0.0458  0.1480
  815loPI   C3B11691   5.064  13.357   6.336 -0.1361  0.0660  0.0283
  815loPI   C4B11692   4.739  13.610   6.554  0.1123 -0.1641  0.1506
  816loPI    C111693  10.944  17.450   5.627  0.0125 -0.0546  0.0974
  816loPI    C211694  11.074  17.115   5.451  0.1049  0.0130  0.0359
  816loPI    C311695  10.781  17.329   5.283  0.1997  0.0828 -0.0419
  816loPI   PO411696  10.895  17.372   5.799  0.1629  0.0654  0.1490
  816loPI   GL111697  10.801  17.448   6.165  0.2107  0.4836  0.1492
  816loPI   GL211698  11.100  17.648   6.240  0.1106  0.0532 -0.0708
  816loPI   C1A11699  10.893  17.300   6.561 -0.1281  0.0544  0.0157
  816loPI   C2A11700  11.052  17.221   6.945  0.0087 -0.5165  0.0550
  816loPI   C3A11701  11.030  17.555   7.286 -0.1888  0.0213 -0.0265
  816loPI   C4A11702  10.830  17.805   7.516 -0.0605  0.0140  0.0688
  816loPI   C5A11703  10.538  17.803   7.847  0.1793 -0.1038 -0.1372
  816loPI   C6A11704  10.240  17.688   8.168 -0.1613  0.2450  0.2736
  816loPI   C1B11705  11.074  17.773   6.679  0.0143 -0.0819 -0.1101
  816loPI   C2B11706  11.063  17.951   7.008 -0.1686  0.1991 -0.0588
  816loPI   C3B11707  11.303  17.978   7.370  0.0576 -0.0246 -0.0704
  816loPI   C4B11708  11.288  17.770   7.722  0.0173 -0.3009  0.2679
  817loPI    C111709   5.719   8.874   5.115  0.0506 -0.1267  0.2028
  817loPI    C211710   5.422   9.098   5.263  0.0984  0.0034  0.1037
  817loPI    C311711   5.742   9.273   5.098  0.1416 -0.1381  0.0357
  817loPI   PO411712   5.793   8.623   5.339 -0.1505 -0.0841  0.0399
  817loPI   GL111713   5.862   8.633   5.795 -0.0588 -0.2211 -0.1327
  817loPI   GL211714   5.546   8.499   5.874  0.0288 -0.1014 -0.2509
  817loPI   C1A11715   6.023   8.681   6.129  0.1679  0.2248  0.0691
  817loPI   C2A11716   6.272   8.596   6.464  0.2551 -0.3243 -0.1606
  817loPI   C3A11717   6.298   8.463   6.959 -0.0442 -0.4046  0.0302
  817loPI   C4A11718   6.298   8.251   7.371 -0.1863 -0.1868  0.0764
  817loPI   C5A11719   6.096   8.376   7.757  0.3243 -0.1912  0.1836
  817loPI   C6A11720   6.186   8.486   8.094 -0.2497  0.1979  0.2922
  817loPI   C1B11721   5.548   8.534   6.317 -0.0780 -0.0563  0.1699
  817loPI   C2B11722   5.683   8.612   6.723  0.3579  0.1727  0.0973
  817loPI   C3B11723   5.814   8.709   7.099 -0.1187 -0.1850  0.0926
  817loPI   C4B11724   6.086   8.758   7.382 -0.0338  0.1005 -0.0305
  818loPI    C111725   1.752  14.334   5.665 -0.1281  0.2172  0.2335
  818loPI    C211726   1.833  14.679   5.478  0.0496  0.0738  0.0417
  818loPI    C311727   1.689  14.368   5.271 -0.0520  0.0126  0.2028
  818loPI   PO411728   1.918  14.186   5.722 -0.1573 -0.2563  0.0787
  818loPI   GL111729   1.826  13.713   6.010  0.3196  0.0208  0.0114
  818loPI   GL211730   1.451  13.765   6.097  0.0162  0.1936 -0.0453
  818loPI   C1A11731   1.979  13.823   6.417  0.2105  0.4128 -0.2310
  818loPI   C2A11732   1.903  13.705   6.845 -0.0565  0.1725  0.3368
  818loPI   C3A11733   1.792  13.451   7.225 -0.2838 -0.0311 -0.2040
  818loPI   C4A11734   1.935  13.256   7.542  0.0233 -0.1229 -0.0678
  818loPI   C5A11735   1.756  13.211   7.899 -0.0302  0.2168 -0.0285
  818loPI   C6A11736   1.390  13.219   8.138 -0.2216  0.0509 -0.3995
  818loPI   C1B11737   1.437  13.683   6.481  0.0379  0.0437 -0.1875
  818loPI   C2B11738   1.396  13.575   6.887  0.3070 -0.1629  0.0449
  818loPI   C3B11739   1.283  13.621   7.292 -0.1338 -0.0024 -0.0321
  818loPI   C4B11740   1.429  13.807   7.614  0.2109 -0.0301 -0.0703
  819loPI    C111741   9.419   2.705   5.085  0.0108 -0.0550  0.1088
  819loPI    C211742   9.105   2.758   4.843 -0.0004 -0.3578  0.0533
  819loPI    C311743   9.474   2.738   4.690  0.0599  0.0927  0.1275
  819loPI   PO411744   9.404   2.909   5.298  0.1662 -0.2174 -0.1728
  819loPI   GL111745   9.368   3.000   5.747 -0.0820  0.0245 -0.0283
  819loPI   GL211746   9.532   2.726   5.886  0.1007 -0.4545 -0.1997
  819loPI   C1A11747   9.483   3.225   6.210 -0.0853 -0.2128 -0.0007
  819loPI   C2A11748   9.514   3.273   6.605 -0.0235 -0.0440 -0.2229
  819loPI   C3A11749   9.542   3.490   6.949  0.1654  0.1725  0.2096
  819loPI   C4A11750   9.409   3.464   7.374 -0.1798  0.0980  0.1782
  819loPI   C5A11751   9.138   3.386   7.695 -0.1215  0.0773  0.0213
  819loPI   C6A11752   9.033   3.053   7.969  0.0267  0.0220  0.0126
  819loPI   C1B11753   9.494   2.632   6.267 -0.0431  0.0283  0.3848
  819loPI   C2B11754   9.351   2.545   6.591  0.3369  0.1043 -0.3521
  819loPI   C3B11755   9.247   2.826   6.954  0.3963  0.1713 -0.4264
  819loPI   C4B11756   9.064   3.005   7.373 -0.0157  0.0627  0.0291
  820loPI    C111757   8.435  15.893   5.435  0.0093 -0.0809  0.0216
  820loPI    C211758   8.805  15.910   5.284  0.0102  0.0749  0.0395
  820loPI    C311759   8.489  15.959   5.044  0.0047  0.0680  0.0453
  820loPI   PO411760   8.527  15.774   5.671  0.1206  0.2583  0.1752
  820loPI   GL111761   8.633  15.920   6.020 -0.3942 -0.0016 -0.1240
  820loPI   GL211762   8.777  16.133   6.114 -0.0924 -0.1387  0.1603
  820loPI   C1A11763   8.691  15.685   6.458  0.1721  0.2339 -0.2527
  820loPI   C2A11764   8.558  15.801   6.894  0.2918  0.1149 -0.0329
  820loPI   C3A11765   8.526  15.793   7.335  0.1335 -0.1394 -0.0927
  820loPI   C4A11766   8.277  15.509   7.602 -0.0302  0.0941 -0.2103
  820loPI   C5A11767   7.937  15.229   7.839  0.3214 -0.1876 -0.0310
  820loPI   C6A11768   7.722  14.899   7.976  0.0206  0.3157  0.1856
  820loPI   C1B11769   8.595  16.167   6.566 -0.2349 -0.0774 -0.1817
  820loPI   C2B11770   8.330  16.521   6.786 -0.1460  0.5407  0.1089
  820loPI   C3B11771   8.255  16.704   7.209 -0.0106  0.1708 -0.1757
  820loPI   C4B11772   8.221  16.606   7.683 -0.1506  0.0348 -0.1945
  821loPI    C111773   8.786  13.851   5.154 -0.1488 -0.0154  0.1602
  821loPI    C211774   9.111  13.988   4.965 -0.0737  0.0720  0.3505
  821loPI    C311775   8.973  13.621   4.885  0.0681  0.0366  0.2643
  821loPI   PO411776   8.783  13.982   5.492 -0.1416  0.1539  0.3090
  821loPI   GL111777   8.754  13.923   5.963  0.0005 -0.1309 -0.0402
  821loPI   GL211778   8.553  13.824   6.189 -0.1793  0.3854  0.0036
  821loPI   C1A11779   8.690  14.295   6.167  0.0674  0.0177 -0.0113
  821loPI   C2A11780   8.533  14.515   6.584 -0.5433  0.3030  0.0665
  821loPI   C3A11781   8.428  14.598   6.941 -0.3303 -0.1180 -0.5673
  821loPI   C4A11782   8.481  14.822   7.357 -0.4183 -0.0504  0.1879
  821loPI   C5A11783   8.413  15.025   7.722  0.0485  0.2175 -0.0394
  821loPI   C6A11784   8.509  15.059   8.095 -0.1977 -0.0644 -0.0423
  821loPI   C1B11785   8.445  14.045   6.480 -0.2300  0.0721 -0.2930
  821loPI   C2B11786   8.388  14.103   6.868  0.0379  0.2638  0.1403
  821loPI   C3B11787   8.408  14.227   7.294  0.3262 -0.0383  0.1158
  821loPI   C4B11788   8.429  14.358   7.764  0.2950 -0.2319  0.0992
  822loPI    C111789   7.133  17.993   5.002 -0.2100 -0.2734 -0.0045
  822loPI    C211790   7.306  17.672   4.838 -0.2217 -0.1221 -0.3196
  822loPI    C311791   7.126  17.943   4.605 -0.0134  0.2303 -0.0791
  822loPI   PO411792   7.347  18.017   5.294  0.1927  0.2601  0.2879
  822loPI   GL111793   7.129  18.093   5.656  0.2349  0.2359  0.1810
  822loPI   GL211794   6.834  18.388   5.728 -0.3422 -0.2212  0.1460
  822loPI   C1A11795   7.180  17.917   6.006 -0.2135  0.1253 -0.0228
  822loPI   C2A11796   7.188  17.966   6.504 -0.1447 -0.1159 -0.0976
  822loPI   C3A11797   6.902  18.215   6.705  0.2692  0.1448  0.0155
  822loPI   C4A11798   6.706  18.593   7.052 -0.2195 -0.3855 -0.1084
  822loPI   C5A11799   6.437  18.745   7.409  0.3148 -0.0307 -0.0260
  822loPI   C6A11800   6.040  18.614   7.578  0.0963 -0.2322 -0.1316
  822loPI   C1B11801   6.990  18.361   6.171 -0.3400  0.0348 -0.1819
  822loPI   C2B11802   7.008  18.589   6.387  0.0013 -0.0144  0.0426
  822loPI   C3B11803   7.066  18.858   6.710  0.1295 -0.2403 -0.0982
  822loPI   C4B11804   6.987  19.028   7.043  0.1685 -0.0910 -0.0095
  823loPI    C111805   9.793   3.113   5.609 -0.0812 -0.0843  0.1885
  823loPI    C211806  10.150   2.937   5.647 -0.0097  0.0421  0.1106
  823loPI    C311807   9.849   2.744   5.467  0.0639 -0.0061  0.0382
  823loPI   PO411808   9.916   3.417   5.553  0.1394  0.0778 -0.0162
  823loPI   GL111809   9.541   3.612   5.712  0.1131  0.2258 -0.0485
  823loPI   GL211810   9.442   3.881   5.765  0.1468  0.1116 -0.0145
  823loPI   C1A11811   9.675   3.655   6.180  0.0797 -0.3330  0.0351
  823loPI   C2A11812   9.728   3.859   6.601  0.0378  0.3801  0.3148
  823loPI   C3A11813   9.726   3.985   7.018 -0.0422 -0.2209 -0.1320
  823loPI   C4A11814   9.607   4.270   7.348  0.0321 -0.0928 -0.1314
  823loPI   C5A11815   9.575   4.603   7.575 -0.2108  0.1288  0.0716
  823loPI   C6A11816   9.574   4.972   7.790 -0.0237 -0.0739  0.0523
  823loPI   C1B11817   9.221   4.056   6.161 -0.2651  0.0853 -0.1694
  823loPI   C2B11818   9.419   4.248   6.530 -0.1232 -0.1174  0.3757
  823loPI   C3B11819   9.387   4.408   6.958 -0.0472  0.1722  0.0789
  823loPI   C4B11820   9.147   4.640   7.260  0.0044  0.2083 -0.0800
  824loPI    C111821   5.144  16.532   5.208 -0.2508  0.1345  0.1275
  824loPI    C211822   4.863  16.808   5.137 -0.0906  0.1966 -0.2985
  824loPI    C311823   4.804  16.430   5.023 -0.3077  0.0451  0.2800
  824loPI   PO411824   5.261  16.691   5.459 -0.0733  0.0585 -0.1915
  824loPI   GL111825   5.233  16.658   5.926 -0.0542  0.1408  0.1978
  824loPI   GL211826   5.015  16.609   6.129 -0.1564  0.0594 -0.0585
  824loPI   C1A11827   5.460  16.476   6.244  0.2115  0.0693  0.2975
  824loPI   C2A11828   5.454  16.392   6.769  0.1116  0.1653 -0.0500
  824loPI   C3A11829   5.224  16.612   7.048  0.1711  0.2072 -0.0630
  824loPI   C4A11830   4.783  16.651   7.107  0.1439 -0.0990  0.0543
  824loPI   C5A11831   4.575  16.386   7.489  0.1741 -0.2243  0.2155
  824loPI   C6A11832   4.367  16.332   7.881 -0.2535 -0.4931  0.0577
  824loPI   C1B11833   5.205  16.976   6.343 -0.0418  0.2387  0.0679
  824loPI   C2B11834   5.421  16.827   6.583  0.1481 -0.1356 -0.1513
  824loPI   C3B11835   5.664  16.854   6.972 -0.0117 -0.0262  0.1619
  824loPI   C4B11836   5.799  16.964   7.510 -0.1497  0.1864 -0.2778
  825loPI    C111837  15.979  12.856   5.171  0.0749  0.2155 -0.2343
  825loPI    C211838  15.889  12.481   5.066 -0.1812  0.1586  0.1666
  825loPI    C311839  15.759  12.787   4.844 -0.1884  0.0215 -0.0209
  825loPI   PO411840  15.986  12.838   5.378 -0.1325  0.1790  0.0081
  825loPI   GL111841  15.974  12.750   5.796 -0.3438 -0.1098  0.0318
  825loPI   GL211842  15.711  12.743   5.826  0.0981  0.1363  0.1236
  825loPI   C1A11843  16.099  12.793   6.267  0.2773  0.2209  0.1129
  825loPI   C2A11844  16.031  12.628   6.717 -0.0326  0.3948  0.3590
  825loPI   C3A11845  16.189  12.784   7.158 -0.2985  0.0943 -0.0807
  825loPI   C4A11846  16.347  12.844   7.631 -0.0177 -0.0418  0.0732
  825loPI   C5A11847  16.693  13.104   7.879  0.4329 -0.0431  0.1003
  825loPI   C6A11848  16.553  13.518   8.003  0.1486  0.1149 -0.1506
  825loPI   C1B11849  15.770  13.097   6.065 -0.0558  0.1744  0.0237
  825loPI   C2B11850  15.914  13.613   6.056  0.0501 -0.0774 -0.0659
  825loPI   C3B11851  15.946  14.000   6.284 -0.3283 -0.0907 -0.3615
  825loPI   C4B11852  15.845  14.201   6.752 -0.1419 -0.1982  0.0625
  826loPI    C111853  14.167  12.112   5.517 -0.1896  0.1988 -0.0563
  826loPI    C211854  13.955  12.413   5.673 -0.2150  0.1570 -0.0098
  826loPI    C311855  14.099  12.442   5.301  0.2311  0.4466  0.1765
  826loPI   PO411856  14.345  12.060   5.782 -0.0268 -0.0037  0.1393
  826loPI   GL111857  14.378  12.174   6.191  0.0137 -0.3340  0.0880
  826loPI   GL211858  14.256  12.434   6.141  0.2169 -0.1296  0.1020
  826loPI   C1A11859  14.452  12.055   6.517 -0.1522  0.0970 -0.0822
  826loPI   C2A11860  14.237  11.844   6.773  0.0570 -0.0946 -0.2733
  826loPI   C3A11861  13.920  11.718   7.116  0.2842  0.1254 -0.2593
  826loPI   C4A11862  13.790  11.743   7.661  0.1177  0.1743 -0.0868
  826loPI   C5A11863  13.924  11.793   8.207 -0.0032 -0.0762 -0.2241
  826loPI   C6A11864  14.028  11.785   8.690 -0.2957  0.2112 -0.5085
  826loPI   C1B11865  14.257  12.559   6.633  0.1525 -0.0119 -0.0331
  826loPI   C2B11866  14.245  12.691   7.008  0.3128  0.2020 -0.2206
  826loPI   C3B11867  14.191  12.743   7.473 -0.0439 -0.1158 -0.2040
  826loPI   C4B11868  14.286  12.779   7.939  0.0168 -0.1397  0.0440
  827loPI    C111869  13.177  14.780   5.706  0.2600  0.0655 -0.0469
  827loPI    C211870  13.176  15.007   5.377 -0.1366  0.1002 -0.0267
  827loPI    C311871  13.161  14.608   5.346 -0.1340  0.1021 -0.0512
  827loPI   PO411872  13.019  14.821   5.805  0.0757 -0.0450 -0.3826
  827loPI   GL111873  12.684  14.624   5.968 -0.0669 -0.0135  0.2624
  827loPI   GL211874  12.949  14.452   6.183 -0.2639  0.0605 -0.0586
  827loPI   C1A11875  12.461  14.578   6.263 -0.3662  0.2537  0.0370
  827loPI   C2A11876  12.519  14.399   6.692 -0.0900 -0.2587  0.0251
  827loPI   C3A11877  12.513  14.296   7.148 -0.1659 -0.1513  0.0064
  827loPI   C4A11878  12.308  14.498   7.483 -0.0546 -0.0514  0.1669
  827loPI   C5A11879  12.156  14.241   7.827 -0.1356 -0.0460  0.1195
  827loPI   C6A11880  12.318  14.328   8.313  0.0823  0.0652 -0.0558
  827loPI   C1B11881  12.979  14.430   6.561  0.2951 -0.0747  0.0076
  827loPI   C2B11882  12.961  14.217   6.987  0.2589 -0.0973  0.0805
  827loPI   C3B11883  13.036  14.243   7.414  0.0224  0.1156 -0.0358
  827loPI   C4B11884  13.162  13.952   7.757  0.0155 -0.2564 -0.1623
  828loPI    C111885   2.296  18.229   5.870  0.1862 -0.3190 -0.0399
  828loPI    C211886   2.197  18.324   5.494 -0.1890 -0.2295  0.0774
  828loPI    C311887   2.366  17.970   5.573  0.0715 -0.1703 -0.1988
  828loPI   PO411888   2.123  18.246   6.034  0.0473 -0.0956  0.0974
  828loPI   GL111889   2.084  18.250   6.471 -0.1006  0.0809 -0.0420
  828loPI   GL211890   2.225  17.955   6.470  0.3316  0.1080 -0.2615
  828loPI   C1A11891   2.126  18.381   6.925 -0.1262 -0.0597  0.1872
  828loPI   C2A11892   2.402  18.628   7.196  0.1363  0.6147  0.2544
  828loPI   C3A11893   2.401  18.565   7.655  0.2081  0.2072 -0.1070
  828loPI   C4A11894   2.232  18.293   8.009  0.1150  0.0028 -0.1580
  828loPI   C5A11895   2.097  17.916   8.179 -0.2857  0.1511 -0.4605
  828loPI   C6A11896   1.895  17.664   7.974  0.2534  0.0427 -0.0366
  828loPI   C1B11897   2.357  17.832   6.805 -0.4100 -0.0275  0.1683
  828loPI   C2B11898   2.472  17.686   7.237  0.0630 -0.3371  0.1401
  828loPI   C3B11899   2.774  17.570   7.547  0.0409  0.0332 -0.1250
  828loPI   C4B11900   3.107  17.705   7.757 -0.0150 -0.1332  0.3320
  829loPI    C111901  17.265  15.903   5.564 -0.0148 -0.0041 -0.1244
  829loPI    C211902  17.243  15.547   5.384  0.0279 -0.1393  0.1323
  829loPI    C311903  17.516  15.814   5.266 -0.0782 -0.1460 -0.1361
  829loPI   PO411904  17.288  15.964   5.868 -0.0392  0.1030  0.2972
  829loPI   GL111905  17.495  15.877   6.195 -0.1442  0.0221 -0.0165
  829loPI   GL211906  17.440  16.195   6.334  0.2489  0.3893 -0.0864
  829loPI   C1A11907  17.475  15.821   6.699  0.0934 -0.2353 -0.1501
  829loPI   C2A11908  17.707  15.843   7.031  0.1819 -0.3236  0.1169
  829loPI   C3A11909  17.848  15.582   7.341 -0.0341  0.1159  0.1031
  829loPI   C4A11910  17.778  15.520   7.768  0.0137 -0.1444  0.3437
  829loPI   C5A11911  17.588  15.470   8.155 -0.1723  0.3837 -0.0814
  829loPI   C6A11912  17.473  15.179   8.461 -0.0653 -0.2804  0.1003
  829loPI   C1B11913  17.464  16.302   6.765 -0.0041 -0.1164  0.1880
  829loPI   C2B11914  17.507  16.277   7.271 -0.0407 -0.0283 -0.2954
  829loPI   C3B11915  17.577  15.999   7.635 -0.0837  0.1832 -0.2238
  829loPI   C4B11916  17.576  16.016   8.085  0.0322  0.1373  0.2263
  830loPI    C111917   4.702   3.687   5.263  0.0337 -0.1839  0.1207
  830loPI    C211918   4.437   3.732   4.968 -0.1316 -0.2544  0.2566
  830loPI    C311919   4.803   3.593   4.888 -0.0808 -0.0068  0.0444
  830loPI   PO411920   4.622   3.884   5.449 -0.3219 -0.1816 -0.2420
  830loPI   GL111921   4.865   4.214   5.732 -0.0398  0.1656 -0.0029
  830loPI   GL211922   5.114   4.398   5.864  0.0044  0.1219 -0.2456
  830loPI   C1A11923   4.727   4.250   6.216  0.0576 -0.0307  0.1998
  830loPI   C2A11924   4.875   4.105   6.603  0.0701  0.2714 -0.1122
  830loPI   C3A11925   4.860   4.130   7.052 -0.1255  0.2631 -0.1900
  830loPI   C4A11926   5.150   4.053   7.316 -0.2589  0.0394  0.0867
  830loPI   C5A11927   5.203   4.150   7.765 -0.1502  0.1454  0.1426
  830loPI   C6A11928   5.198   3.909   8.077  0.1430 -0.0355 -0.0686
  830loPI   C1B11929   5.360   4.230   6.324  0.0854  0.3052  0.0010
  830loPI   C2B11930   5.401   3.999   6.685 -0.2313  0.3162  0.1546
  830loPI   C3B11931   5.521   4.029   7.005  0.1040  0.0747  0.0628
  830loPI   C4B11932   5.511   4.404   7.261  0.2162  0.0451  0.2179
  831loPI    C111933  12.600  18.064   5.700 -0.1992  0.1648 -0.0842
  831loPI    C211934  12.397  17.777   5.509  0.0164  0.0507 -0.1449
  831loPI    C311935  12.528  18.098   5.308  0.0348  0.0465 -0.1394
  831loPI   PO411936  12.472  18.087   5.933 -0.0075  0.4467 -0.5027
  831loPI   GL111937  12.439  17.704   6.266 -0.2056 -0.2728 -0.1826
  831loPI   GL211938  12.321  17.912   6.439 -0.2983  0.0762 -0.0377
  831loPI   C1A11939  12.487  17.523   6.679  0.0862 -0.2979  0.0695
  831loPI   C2A11940  12.812  17.428   6.948 -0.0449 -0.0756  0.0372
  831loPI   C3A11941  12.922  17.098   7.174 -0.1148  0.0091  0.0408
  831loPI   C4A11942  12.944  16.998   7.660 -0.2454  0.1082 -0.2724
  831loPI   C5A11943  12.962  17.332   7.994 -0.1356 -0.1311  0.1701
  831loPI   C6A11944  12.949  17.237   8.402 -0.2004 -0.0388  0.1942
  831loPI   C1B11945  12.187  18.021   6.738  0.1255  0.1853 -0.0526
  831loPI   C2B11946  12.110  18.105   7.159 -0.4655  0.2473  0.5345
  831loPI   C3B11947  12.272  18.227   7.521 -0.0855 -0.0833  0.0853
  831loPI   C4B11948  12.285  18.407   7.963  0.0308  0.0048 -0.0042
  832loPI    C111949   0.062   1.784   5.454  0.1117 -0.1713  0.2242
  832loPI    C211950   0.366   1.894   5.217 -0.1860 -0.0162 -0.0945
  832loPI    C311951   0.209   1.527   5.186 -0.1248 -0.0484 -0.0275
  832loPI   PO411952   0.119   1.862   5.674 -0.3202  0.0987 -0.1479
  832loPI   GL111953   0.051   1.777   6.075 -0.1552  0.2448  0.0922
  832loPI   GL211954   0.020   1.469   6.092  0.0475  0.2475 -0.1966
  832loPI   C1A11955  -0.038   1.925   6.448  0.0645  0.1695  0.1105
  832loPI   C2A11956  -0.025   1.987   6.843 -0.0879 -0.1701 -0.1970
  832loPI   C3A11957  -0.078   2.055   7.299 -0.1404 -0.1927  0.1637
  832loPI   C4A11958   0.057   1.963   7.668 -0.0793  0.1769 -0.0530
  832loPI   C5A11959   0.028   2.182   8.044 -0.0564 -0.0314 -0.3204
  832loPI   C6A11960  -0.317   2.494   8.082 -0.0455 -0.0050  0.0665
  832loPI   C1B11961   0.125   1.436   6.487 -0.0206  0.0230 -0.2999
  832loPI   C2B11962   0.262   1.591   6.829  0.0534 -0.1631 -0.0893
  832loPI   C3B11963   0.210   1.668   7.143 -0.1601  0.0294  0.1542
  832loPI   C4B11964   0.422   2.084   7.280  0.2780 -0.0781 -0.1330
  833loPI    C111965   7.350   1.483   5.044  0.0536  0.0352  0.0126
  833loPI    C211966   7.635   1.412   4.773 -0.1567  0.2112 -0.2593
  833loPI    C311967   7.439   1.107   4.941  0.2824  0.0810  0.0358
  833loPI   PO411968   7.483   1.605   5.227 -0.0225 -0.0912 -0.2870
  833loPI   GL111969   7.305   1.562   5.731 -0.0963 -0.0607  0.1274
  833loPI   GL211970   7.582   1.720   5.759 -0.0406 -0.0396  0.0451
  833loPI   C1A11971   7.162   1.861   5.953 -0.1246  0.1479  0.1751
  833loPI   C2A11972   7.176   2.018   6.301  0.0674  0.0545  0.1208
  833loPI   C3A11973   7.167   2.048   6.751  0.0002  0.2376 -0.1568
  833loPI   C4A11974   7.374   2.016   7.188  0.0261  0.1252  0.0048
  833loPI   C5A11975   7.715   2.192   7.323 -0.1850  0.2709 -0.2962
  833loPI   C6A11976   8.016   2.372   7.589  0.0773 -0.1910  0.1326
  833loPI   C1B11977   7.917   1.992   6.042  0.0711  0.5405  0.0006
  833loPI   C2B11978   8.149   2.327   6.252  0.0121 -0.0527 -0.3153
  833loPI   C3B11979   8.362   2.469   6.697  0.0773  0.1442  0.4778
  833loPI   C4B11980   8.235   2.394   7.117 -0.2692  0.1719 -0.0419
  834loPI    C111981   0.636  17.225   5.677 -0.1336 -0.1701 -0.1880
  834loPI    C211982   0.278  17.290   5.843 -0.0824 -0.0836 -0.1107
  834loPI    C311983   0.377  17.477   5.504 -0.1225 -0.1323 -0.1493
  834loPI   PO411984   0.744  17.085   5.888 -0.1235 -0.2384 -0.1203
  834loPI   GL111985   0.685  17.238   6.249 -0.0796 -0.1085  0.1317
  834loPI   GL211986   0.855  17.429   6.501 -0.1955  0.0274 -0.0816
  834loPI   C1A11987   0.727  16.956   6.640  0.3072 -0.0321 -0.0607
  834loPI   C2A11988   0.654  16.957   7.021  0.0782 -0.2499  0.0381
  834loPI   C3A11989   0.591  17.037   7.426  0.0217 -0.3150  0.4255
  834loPI   C4A11990   0.365  16.733   7.818  0.1536 -0.2058  0.3704
  834loPI   C5A11991   0.360  16.774   8.165 -0.0618  0.2427 -0.0312
  834loPI   C6A11992   0.514  16.987   8.539 -0.0310 -0.0247  0.1368
  834loPI   C1B11993   0.979  17.691   6.834 -0.1018  0.3272  0.1197
  834loPI   C2B11994   0.980  17.961   7.220  0.1085 -0.2590 -0.1039
  834loPI   C3B11995   1.224  17.885   7.633  0.0780  0.0753  0.0577
  834loPI   C4B11996   1.558  17.652   7.598  0.0057 -0.2512 -0.0392
  835loPI    C111997   9.974  13.135   5.723  0.1290  0.0321  0.2082
  835loPI    C211998  10.112  13.439   5.504 -0.0329 -0.2720 -0.3365
  835loPI    C311999   9.732  13.323   5.466 -0.1510 -0.1469  0.3364
  835loPI   PO412000   9.944  13.196   5.946  0.0581  0.2575 -0.1290
  835loPI   GL112001  10.082  13.067   6.260 -0.0576  0.3767 -0.0449
  835loPI   GL212002  10.255  13.308   6.520 -0.3339 -0.0017 -0.2862
  835loPI   C1A12003  10.164  12.870   6.575 -0.2205  0.2383  0.1745
  835loPI   C2A12004  10.052  12.732   6.871  0.1860  0.1506  0.1819
  835loPI   C3A12005  10.061  12.776   7.379  0.2551  0.0077  0.1906
  835loPI   C4A12006   9.931  12.945   7.671 -0.2611 -0.2026 -0.0452
  835loPI   C5A12007  10.057  13.254   8.128  0.1160  0.0199 -0.2876
  835loPI   C6A12008  10.205  13.663   8.233 -0.1323  0.1591 -0.0445
  835loPI   C1B12009  10.222  13.172   6.998 -0.2632  0.2213 -0.1911
  835loPI   C2B12010  10.074  13.357   7.346  0.2058  0.0186  0.2070
  835loPI   C3B12011  10.242  13.443   7.671 -0.0288 -0.0458  0.3073
  835loPI   C4B12012  10.575  13.350   7.928  0.3772 -0.3293 -0.1209
  836loPI    C112013  11.518  12.277   5.287  0.0285 -0.1192  0.0429
  836loPI    C212014  11.661  12.090   4.963 -0.0384 -0.0751 -0.0123
  836loPI    C312015  11.810  12.445   5.072  0.0085 -0.1063  0.0257
  836loPI   PO412016  11.547  12.184   5.573  0.0346 -0.0429 -0.1164
  836loPI   GL112017  11.848  12.199   5.833 -0.3145  0.1023  0.2571
  836loPI   GL212018  11.892  12.494   6.086 -0.0208  0.0818 -0.1133
  836loPI   C1A12019  11.739  12.056   6.246 -0.1175 -0.1585  0.0572
  836loPI   C2A12020  11.654  11.904   6.626 -0.1746  0.1617  0.0502
  836loPI   C3A12021  11.749  11.896   7.064  0.3713 -0.3723 -0.1245
  836loPI   C4A12022  11.795  11.991   7.478 -0.1271  0.0083  0.1394
  836loPI   C5A12023  11.704  12.242   7.864 -0.1898 -0.2845  0.0060
  836loPI   C6A12024  11.771  12.568   8.280  0.0774  0.0212  0.2729
  836loPI   C1B12025  11.897  12.420   6.564 -0.2610 -0.1206  0.0598
  836loPI   C2B12026  11.967  12.397   7.026 -0.4461  0.0780  0.1298
  836loPI   C3B12027  11.861  12.606   7.346  0.0622  0.1793  0.0644
  836loPI   C4B12028  11.993  12.712   7.740  0.2168  0.0155  0.3077
  837loPI    C112029  11.419   7.108   5.461  0.0008 -0.2650  0.3223
  837loPI    C212030  11.343   6.734   5.341  0.2493 -0.3011  0.2731
  837loPI    C312031  11.055   7.012   5.324  0.2785 -0.2956 -0.4402
  837loPI   PO412032  11.593   7.065   5.649 -0.0557  0.1823 -0.0527
  837loPI   GL112033  11.844   6.823   6.000 -0.4421 -0.0814  0.2195
  837loPI   GL212034  11.631   7.006   6.158  0.0721 -0.1497 -0.0850
  837loPI   C1A12035  12.124   6.682   6.265  0.3821  0.1540 -0.2124
  837loPI   C2A12036  12.322   6.319   6.440  0.2853 -0.1309  0.0329
  837loPI   C3A12037  12.535   6.266   6.822  0.4770 -0.4688  0.0119
  837loPI   C4A12038  12.859   6.134   7.156 -0.3544 -0.1997 -0.3216
  837loPI   C5A12039  12.935   6.498   7.483 -0.3630  0.0223 -0.3016
  837loPI   C6A12040  12.889   6.837   7.838 -0.1054 -0.1344  0.2022
  837loPI   C1B12041  11.728   7.041   6.577 -0.1243 -0.2837 -0.0141
  837loPI   C2B12042  11.949   6.734   6.725 -0.0612  0.1449 -0.0766
  837loPI   C3B12043  12.377   6.702   6.822 -0.1671  0.0216  0.0449
  837loPI   C4B12044  12.544   6.679   7.239  0.2478 -0.0022  0.0099
  838loPI    C112045  18.031   8.537   5.212 -0.1070  0.1028 -0.0828
  838loPI    C212046  18.034   8.447   4.822 -0.1785 -0.2119 -0.0130
  838loPI    C312047  18.332   8.662   4.979 -0.0091 -0.3142 -0.1895
  838loPI   PO412048  17.822   8.298   5.289 -0.0530  0.1229 -0.1740
  838loPI   GL112049  17.601   8.088   5.639  0.0303 -0.0224 -0.1904
  838loPI   GL212050  17.179   8.211   5.696 -0.2220  0.0266 -0.2658
  838loPI   C1A12051  17.541   8.348   6.051 -0.2634 -0.1117 -0.2586
  838loPI   C2A12052  17.611   8.449   6.512 -0.1812  0.2602  0.2210
  838loPI   C3A12053  17.510   8.401   6.950  0.0434  0.3587 -0.0899
  838loPI   C4A12054  17.601   8.123   7.244 -0.1425  0.4655  0.1458
  838loPI   C5A12055  17.836   7.802   7.526  0.0290 -0.1682 -0.1309
  838loPI   C6A12056  17.782   7.570   7.856  0.3277  0.0403  0.0448
  838loPI   C1B12057  17.112   8.220   6.146 -0.0821  0.3059  0.2305
  838loPI   C2B12058  17.103   8.257   6.585 -0.0684  0.2113 -0.0948
  838loPI   C3B12059  17.060   8.217   6.925 -0.0268 -0.0644  0.0052
  838loPI   C4B12060  16.654   8.197   7.265 -0.0874  0.0218  0.1036
  839loPI    C112061   4.817  11.851   5.100 -0.1916 -0.2114 -0.0503
  839loPI    C212062   4.619  11.572   4.893 -0.0396 -0.1149 -0.3308
  839loPI    C312063   5.001  11.650   4.807  0.0931 -0.2244  0.1343
  839loPI   PO412064   4.702  11.708   5.420  0.1219  0.1064 -0.0501
  839loPI   GL112065   4.764  11.465   5.728 -0.0374 -0.3737  0.1311
  839loPI   GL212066   5.088  11.545   5.864 -0.0027 -0.0234 -0.0521
  839loPI   C1A12067   4.414  11.742   5.995  0.0211 -0.2576  0.3963
  839loPI   C2A12068   4.136  11.748   6.240  0.1744  0.0103 -0.0830
  839loPI   C3A12069   4.156  11.889   6.647 -0.0195  0.0493 -0.0089
  839loPI   C4A12070   4.108  11.942   7.147 -0.3005 -0.4840 -0.0569
  839loPI   C5A12071   4.306  11.966   7.569  0.5869 -0.2601 -0.1210
  839loPI   C6A12072   4.414  12.231   7.885 -0.2940 -0.2798 -0.0359
  839loPI   C1B12073   4.944  11.463   6.307 -0.2440  0.2471 -0.1449
  839loPI   C2B12074   4.747  11.078   6.620 -0.0596  0.1017 -0.1171
  839loPI   C3B12075   4.799  11.028   6.998 -0.0885  0.1707 -0.0871
  839loPI   C4B12076   4.539  11.093   7.317  0.0941 -0.1336  0.3922
  840loPI    C112077  17.549  17.361   5.900  0.3746  0.0157  0.1349
  840loPI    C212078  17.409  17.344   5.526  0.2977  0.0156  0.1633
  840loPI    C312079  17.803  17.321   5.594  0.2999 -0.1623  0.0952
  840loPI   PO412080  17.302  17.445   6.021  0.3551 -0.5344  0.2759
  840loPI   GL112081  17.261  17.652   6.406 -0.2006  0.0127  0.2261
  840loPI   GL212082  17.570  17.649   6.436 -0.1614  0.2390  0.1734
  840loPI   C1A12083  17.230  17.603   6.873  0.0533  0.1326  0.2283
  840loPI   C2A12084  17.084  17.687   7.314 -0.0781  0.1791  0.2173
  840loPI   C3A12085  17.119  17.820   7.770  0.0171  0.1586  0.2506
  840loPI   C4A12086  17.056  17.776   8.205 -0.0322 -0.2067  0.1485
  840loPI   C5A12087  17.435  17.963   8.455  0.1308 -0.2720 -0.2845
  840loPI   C6A12088  17.742  18.067   8.751  0.2373 -0.0618 -0.0725
  840loPI   C1B12089  17.738  17.687   6.757  0.3636  0.1521 -0.1637
  840loPI   C2B12090  17.567  17.716   7.172 -0.3318 -0.1335  0.0384
  840loPI   C3B12091  17.583  17.901   7.616 -0.0314 -0.0014 -0.3418
  840loPI   C4B12092  17.631  17.961   8.007  0.1106  0.0960  0.1604
  841loPI    C112093  14.041  11.736   5.099 -0.0174  0.2737  0.0120
  841loPI    C212094  13.799  12.051   5.141  0.0270  0.3248 -0.1116
  841loPI    C312095  14.123  12.077   4.907  0.1920  0.2796  0.1091
  841loPI   PO412096  14.028  11.638   5.314 -0.0514 -0.2370  0.1142
  841loPI   GL112097  13.945  11.661   5.778  0.0120 -0.1958  0.0851
  841loPI   GL212098  14.250  11.533   5.807 -0.0009  0.1737  0.1534
  841loPI   C1A12099  13.862  11.203   5.965 -0.0012  0.1222  0.2492
  841loPI   C2A12100  13.914  10.793   6.170  0.1434 -0.1475  0.0156
  841loPI   C3A12101  14.201  10.516   6.432 -0.0161 -0.2156 -0.2155
  841loPI   C4A12102  14.200  10.196   6.739 -0.5934 -0.2128 -0.0995
  841loPI   C5A12103  14.355   9.885   6.945  0.0147 -0.1429 -0.1615
  841loPI   C6A12104  14.181   9.776   7.237  0.2775 -0.2422 -0.4306
  841loPI   C1B12105  14.079  11.508   6.307  0.2376 -0.1054  0.0077
  841loPI   C2B12106  13.776  11.664   6.626 -0.1077  0.0380 -0.0215
  841loPI   C3B12107  13.435  11.788   6.899  0.0384 -0.1776  0.3284
  841loPI   C4B12108  13.431  11.865   7.337 -0.0745  0.3627  0.1086
  842loPI    C112109   7.184  17.450   5.249 -0.3236  0.0348 -0.0776
  842loPI    C212110   7.340  17.562   5.600 -0.2872  0.1188 -0.1203
  842loPI    C312111   7.564  17.572   5.269 -0.3093  0.0001 -0.1394
  842loPI   PO412112   6.901  17.433   5.392  0.3796  0.0222 -0.1709
  842loPI   GL112113   6.791  17.702   5.747 -0.0922  0.0386  0.1725
  842loPI   GL212114   6.502  17.578   5.673  0.1464  0.0163  0.0868
  842loPI   C1A12115   7.031  17.461   6.016 -0.2364 -0.2593 -0.0854
  842loPI   C2A12116   7.015  17.382   6.470  0.2030  0.2013 -0.0131
  842loPI   C3A12117   6.882  17.223   6.732 -0.2526 -0.1028  0.3080
  842loPI   C4A12118   6.775  17.206   7.088 -0.0885  0.2100  0.0766
  842loPI   C5A12119   7.021  17.301   7.406  0.0756  0.0774 -0.0724
  842loPI   C6A12120   7.022  17.490   7.838 -0.0646  0.1009  0.0754
  842loPI   C1B12121   6.529  17.331   6.019 -0.0200 -0.1997  0.0118
  842loPI   C2B12122   6.392  17.395   6.486  0.1385 -0.1256  0.1045
  842loPI   C3B12123   6.317  17.440   6.950 -0.0223 -0.0281 -0.0157
  842loPI   C4B12124   6.083  17.325   7.309 -0.2131  0.0425  0.3137
  843loPI    C112125  11.260   5.836   5.264  0.2810 -0.5013  0.1339
  843loPI    C212126  11.501   6.081   5.469  0.0788 -0.1359 -0.0559
  843loPI    C312127  11.652   5.841   5.187  0.2358  0.0158 -0.1023
  843loPI   PO412128  11.046   5.849   5.448 -0.0765  0.1094 -0.3391
  843loPI   GL112129  10.982   5.968   5.890  0.0819 -0.1630  0.1372
  843loPI   GL212130  11.057   6.191   5.796 -0.2951 -0.0539  0.0073
  843loPI   C1A12131  10.994   6.191   6.300  0.1420 -0.1422  0.2240
  843loPI   C2A12132  10.946   6.214   6.696 -0.0011  0.3129  0.0397
  843loPI   C3A12133  10.788   6.204   7.127 -0.2814 -0.2180 -0.1300
  843loPI   C4A12134  10.811   5.903   7.443  0.1754  0.0241  0.2339
  843loPI   C5A12135  11.133   5.590   7.350 -0.3041  0.1414  0.0991
  843loPI   C6A12136  11.477   5.592   7.279 -0.1283  0.1198 -0.2372
  843loPI   C1B12137  11.386   6.034   6.063 -0.1278  0.2285 -0.1350
  843loPI   C2B12138  11.419   5.941   6.466  0.2676 -0.1814 -0.1354
  843loPI   C3B12139  11.361   5.919   6.892 -0.2529  0.3101 -0.2030
  843loPI   C4B12140  11.296   6.115   7.234 -0.5159  0.1336  0.2030
  844loPI    C112141  11.893   6.269   5.140 -0.1310  0.1223  0.0088
  844loPI    C212142  11.806   6.074   4.802 -0.2056  0.0312  0.0799
  844loPI    C312143  11.875   6.468   4.793 -0.0698  0.0053 -0.0619
  844loPI   PO412144  11.971   6.149   5.371  0.0616  0.2778 -0.0235
  844loPI   GL112145  11.890   5.945   5.738 -0.3362 -0.6576 -0.1603
  844loPI   GL212146  11.835   5.649   5.979 -0.0551 -0.3991  0.3909
  844loPI   C1A12147  11.915   6.137   6.167 -0.1313 -0.4140  0.0263
  844loPI   C2A12148  11.895   6.124   6.686  0.4182  0.1379 -0.0377
  844loPI   C3A12149  12.102   6.370   6.978 -0.0030  0.1237 -0.3689
  844loPI   C4A12150  12.063   6.575   7.363 -0.1929 -0.3151  0.0265
  844loPI   C5A12151  12.167   6.619   7.670  0.0878  0.2329 -0.1466
  844loPI   C6A12152  12.403   6.847   8.056 -0.3445 -0.1133  0.0862
  844loPI   C1B12153  11.771   5.679   6.259 -0.2472  0.0529  0.0154
  844loPI   C2B12154  11.793   5.638   6.669  0.3291 -0.0337 -0.0269
  844loPI   C3B12155  11.945   5.521   7.068 -0.1010 -0.1071  0.1002
  844loPI   C4B12156  11.959   5.582   7.453 -0.0535 -0.0037 -0.3966
  845loPI    C112157  14.863  11.819   5.733 -0.1878 -0.2228 -0.0444
  845loPI    C212158  15.219  11.930   5.879 -0.1991 -0.1713 -0.0560
  845loPI    C312159  15.123  12.013   5.499 -0.3374  0.0723  0.0300
  845loPI   PO412160  14.822  11.509   5.715 -0.0485 -0.1684  0.0005
  845loPI   GL112161  14.784  11.263   6.082  0.1349  0.2381  0.0565
  845loPI   GL212162  15.179  11.325   6.096 -0.1120 -0.2320 -0.1419
  845loPI   C1A12163  14.750  11.119   6.515 -0.1957 -0.0895 -0.1623
  845loPI   C2A12164  14.805  11.234   6.839  0.0509  0.1002  0.3197
  845loPI   C3A12165  14.627  11.083   7.225 -0.0685 -0.0453 -0.1640
  845loPI   C4A12166  14.608  11.243   7.530 -0.0141  0.2061 -0.1862
  845loPI   C5A12167  14.275  11.330   7.679  0.0882  0.0779 -0.1602
  845loPI   C6A12168  14.054  11.430   7.920 -0.0967  0.0849 -0.0388
  845loPI   C1B12169  15.186  11.454   6.516  0.1873 -0.3452  0.0194
  845loPI   C2B12170  15.211  11.527   6.928 -0.2625 -0.1829 -0.0799
  845loPI   C3B12171  15.546  11.454   7.344  0.2530 -0.0754 -0.1132
  845loPI   C4B12172  15.891  11.781   7.409 -0.0568 -0.0316  0.1151
  846loPI    C112173   3.750   9.439   5.176 -0.0782 -0.0838  0.0635
  846loPI    C212174   4.125   9.406   5.312  0.0605  0.0617 -0.2734
  846loPI    C312175   3.944   9.091   5.144 -0.0263 -0.0518  0.0271
  846loPI   PO412176   3.677   9.648   5.439  0.3080 -0.1402  0.1511
  846loPI   GL112177   3.618   9.753   5.789 -0.4758 -0.1493 -0.0631
  846loPI   GL212178   3.838   9.828   6.107 -0.0667  0.1354  0.0361
  846loPI   C1A12179   3.343   9.625   6.014  0.1151  0.0496 -0.2746
  846loPI   C2A12180   3.280   9.633   6.497  0.1141 -0.0974 -0.0338
  846loPI   C3A12181   3.375   9.600   6.989 -0.3690  0.1509 -0.0847
  846loPI   C4A12182   3.433   9.884   7.284  0.1515  0.2595 -0.1891
  846loPI   C5A12183   3.269  10.019   7.634  0.2314 -0.0201  0.0320
  846loPI   C6A12184   3.357  10.044   8.138 -0.0118  0.1101 -0.1527
  846loPI   C1B12185   3.728   9.869   6.616  0.0672  0.0199 -0.2209
  846loPI   C2B12186   3.855   9.717   7.030 -0.3246 -0.0283 -0.0209
  846loPI   C3B12187   3.859   9.663   7.405 -0.2332  0.0534  0.2453
  846loPI   C4B12188   3.795   9.861   7.732 -0.0428 -0.2715 -0.3511
  847loPI    C112189  15.325   8.159   5.197  0.0510 -0.1084 -0.0765
  847loPI    C212190  15.306   7.782   5.064 -0.0747 -0.0378 -0.2629
  847loPI    C312191  15.211   8.085   4.821 -0.1818  0.1022 -0.0502
  847loPI   PO412192  15.175   8.182   5.439  0.1628 -0.2142  0.0777
  847loPI   GL112193  15.050   8.013   5.822 -0.3640  0.2931  0.1350
  847loPI   GL212194  14.880   7.940   6.163  0.2239  0.1419  0.0449
  847loPI   C1A12195  15.274   8.171   6.161 -0.0856  0.0993  0.1513
  847loPI   C2A12196  15.123   8.196   6.578 -0.0053 -0.0092 -0.0301
  847loPI   C3A12197  14.933   8.468   6.910  0.3137 -0.0316  0.0924
  847loPI   C4A12198  14.774   8.646   7.307 -0.3742 -0.1868  0.1319
  847loPI   C5A12199  14.506   8.509   7.721  0.0128  0.3167  0.1884
  847loPI   C6A12200  14.388   8.680   8.082 -0.1864 -0.1283  0.0181
  847loPI   C1B12201  15.061   7.581   6.439  0.1167  0.0887  0.1934
  847loPI   C2B12202  15.218   7.496   6.875  0.1653 -0.0178  0.0526
  847loPI   C3B12203  15.186   7.312   7.287  0.1319  0.0634  0.3959
  847loPI   C4B12204  15.270   7.416   7.666  0.0812 -0.2427 -0.0079
  848loPI    C112205   8.842  12.443   5.305  0.0433 -0.0459 -0.1528
  848loPI    C212206   8.709  12.778   5.132 -0.3943 -0.0857  0.0930
  848loPI    C312207   8.567  12.423   5.015 -0.0711 -0.1765 -0.0362
  848loPI   PO412208   8.718  12.506   5.541 -0.0461 -0.2826 -0.2536
  848loPI   GL112209   8.448  12.646   5.852  0.0313  0.0216 -0.0172
  848loPI   GL212210   8.651  12.826   5.986 -0.1938  0.1088 -0.0216
  848loPI   C1A12211   8.326  12.419   6.200  0.2279 -0.0744  0.2384
  848loPI   C2A12212   8.393  12.324   6.663  0.0090  0.0448  0.0016
  848loPI   C3A12213   8.437  12.322   7.084 -0.1329  0.1102  0.2796
  848loPI   C4A12214   8.463  12.112   7.614  0.0215 -0.1284 -0.1597
  848loPI   C5A12215   8.408  11.918   7.985  0.0519  0.0625  0.0710
  848loPI   C6A12216   8.082  11.673   8.304 -0.2465  0.7592  0.0271
  848loPI   C1B12217   8.614  12.726   6.464 -0.0483 -0.0465  0.2985
  848loPI   C2B12218   8.719  12.749   6.911 -0.1784  0.2100 -0.0243
  848loPI   C3B12219   8.840  12.562   7.340 -0.0773 -0.0584 -0.3148
  848loPI   C4B12220   8.961  12.857   7.581 -0.1111 -0.3518 -0.1965
  849loPI    C112221   6.695   7.591   5.045 -0.0361  0.1004  0.1046
  849loPI    C212222   6.857   7.933   5.175  0.0447 -0.0291  0.3489
  849loPI    C312223   6.843   7.855   4.783 -0.2478  0.3892  0.2702
  849loPI   PO412224   6.466   7.505   5.221 -0.1565 -0.1090 -0.0267
  849loPI   GL112225   6.599   7.206   5.566 -0.2274  0.2638 -0.3836
  849loPI   GL212226   6.723   6.944   5.615 -0.0135  0.4259 -0.1283
  849loPI   C1A12227   6.203   7.133   5.891  0.2577 -0.0619 -0.2935
  849loPI   C2A12228   6.350   6.872   6.192 -0.0982  0.0615  0.2267
  849loPI   C3A12229   6.373   6.775   6.619 -0.0410  0.3538 -0.0490
  849loPI   C4A12230   6.322   6.657   6.986 -0.4347  0.0451  0.0922
  849loPI   C5A12231   6.253   6.491   7.446  0.0993  0.2230 -0.1181
  849loPI   C6A12232   5.782   6.374   7.793 -0.3847  0.2039  0.2756
  849loPI   C1B12233   6.970   6.761   5.906 -0.1524  0.1714 -0.2085
  849loPI   C2B12234   7.255   6.979   6.138 -0.1659  0.1500  0.0925
  849loPI   C3B12235   7.522   6.742   6.494 -0.0060  0.1570 -0.2653
  849loPI   C4B12236   7.578   6.630   6.928 -0.0940  0.1327 -0.3106
  850loPI    C112237   1.316   3.114   5.569 -0.2396  0.0312  0.0902
  850loPI    C212238   1.297   2.890   5.238 -0.1757  0.0360  0.0832
  850loPI    C312239   1.307   3.289   5.209  0.0813  0.0311  0.0787
  850loPI   PO412240   1.542   3.096   5.686  0.2482 -0.0442  0.0828
  850loPI   GL112241   1.443   3.207   6.100 -0.1324 -0.1790 -0.1747
  850loPI   GL212242   1.696   3.163   6.300 -0.1728  0.0417  0.1305
  850loPI   C1A12243   1.479   3.609   6.317  0.0956  0.2508  0.4645
  850loPI   C2A12244   1.464   3.757   6.790  0.0957 -0.0027  0.1344
  850loPI   C3A12245   1.456   3.759   7.205 -0.2021 -0.1041 -0.0460
  850loPI   C4A12246   1.385   3.939   7.564  0.1288 -0.0667 -0.1885
  850loPI   C5A12247   1.176   4.112   7.819  0.1828 -0.0992 -0.3238
  850loPI   C6A12248   1.360   4.519   7.710  0.3522  0.0089  0.4043
  850loPI   C1B12249   1.798   3.224   6.715  0.2563 -0.0386 -0.2121
  850loPI   C2B12250   1.976   3.162   7.129  0.1084  0.1992  0.1434
  850loPI   C3B12251   2.004   3.088   7.530 -0.0229 -0.0893  0.2612
  850loPI   C4B12252   2.093   2.823   7.790  0.0794  0.3466  0.1692
  851loPI    C112253  18.112   1.999   5.282 -0.2207 -0.2131  0.0791
  851loPI    C212254  17.972   1.830   4.948  0.1358 -0.1084 -0.1293
  851loPI    C312255  18.161   1.607   5.221  0.2662 -0.1145 -0.2236
  851loPI   PO412256  17.863   2.123   5.413  0.0439 -0.1720 -0.1161
  851loPI   GL112257  17.663   2.194   5.835 -0.1057  0.0041  0.0408
  851loPI   GL212258  17.701   2.452   5.710 -0.1177 -0.0822  0.0223
  851loPI   C1A12259  17.673   2.344   6.278  0.1010 -0.0757  0.1258
  851loPI   C2A12260  17.358   2.429   6.559  0.0994 -0.1568  0.0030
  851loPI   C3A12261  17.299   2.842   6.829  0.3500  0.0703  0.0431
  851loPI   C4A12262  17.221   3.155   7.171  0.1782  0.3002  0.1977
  851loPI   C5A12263  17.259   3.474   7.498  0.3997 -0.0444 -0.1435
  851loPI   C6A12264  16.951   3.658   7.837 -0.0843  0.0085 -0.1397
  851loPI   C1B12265  17.362   2.621   6.028 -0.2493 -0.1422  0.1148
  851loPI   C2B12266  16.996   2.749   6.326 -0.2143 -0.0273 -0.0800
  851loPI   C3B12267  16.813   2.685   6.724  0.1062 -0.0677 -0.1391
  851loPI   C4B12268  16.845   2.889   7.031 -0.0882  0.2245 -0.1599
  852loPI    C112269  15.328   0.309   5.397 -0.0291  0.1408 -0.1289
  852loPI    C212270  15.674   0.320   5.198 -0.1421 -0.1601 -0.3483
  852loPI    C312271  15.422   0.629   5.177  0.2038  0.1547 -0.0118
  852loPI   PO412272  15.440   0.240   5.640  0.0757  0.1342  0.1736
  852loPI   GL112273  15.216   0.330   6.036  0.0638  0.0790 -0.1677
  852loPI   GL212274  14.817   0.472   6.114  0.0103  0.0546 -0.0065
  852loPI   C1A12275  15.464   0.167   6.281  0.3499 -0.1025  0.1234
  852loPI   C2A12276  15.601  -0.198   6.499 -0.1723 -0.0658 -0.1939
  852loPI   C3A12277  15.581  -0.319   7.031 -0.1674 -0.2056  0.0501
  852loPI   C4A12278  15.602  -0.584   7.372 -0.1673  0.1407  0.0267
  852loPI   C5A12279  15.711  -0.868   7.758  0.1023 -0.3072 -0.0400
  852loPI   C6A12280  15.731  -0.965   8.144  0.0636 -0.2271  0.2364
  852loPI   C1B12281  14.650   0.609   6.370 -0.2170  0.0029 -0.0889
  852loPI   C2B12282  14.528   0.631   6.717 -0.0440 -0.0370  0.1918
  852loPI   C3B12283  14.631   0.648   7.129  0.0405 -0.1711 -0.2423
  852loPI   C4B12284  14.324   0.388   7.365 -0.1068 -0.2936  0.1880
  853loPI    C112285  16.260   4.604   5.081 -0.3590 -0.0123 -0.0699
  853loPI    C212286  16.155   4.270   4.889  0.4171 -0.1842 -0.2279
  853loPI    C312287  16.320   4.573   4.687 -0.0206  0.1899 -0.0387
  853loPI   PO412288  16.403   4.533   5.312  0.2464  0.1402  0.2091
  853loPI   GL112289  16.306   4.348   5.610 -0.1569  0.0287 -0.1319
  853loPI   GL212290  16.058   4.500   5.703 -0.0375  0.0439 -0.2552
  853loPI   C1A12291  16.411   4.352   6.097  0.2244  0.0750 -0.4196
  853loPI   C2A12292  16.260   4.481   6.491 -0.2262 -0.2783 -0.1795
  853loPI   C3A12293  16.025   4.407   6.872 -0.1218  0.1774  0.2751
  853loPI   C4A12294  15.898   4.469   7.255  0.1326 -0.1083  0.4681
  853loPI   C5A12295  15.983   4.568   7.595 -0.2057  0.0643 -0.2183
  853loPI   C6A12296  16.239   4.695   7.975  0.1259  0.1457  0.2080
  853loPI   C1B12297  15.960   4.610   6.125  0.0475  0.1800  0.2237
  853loPI   C2B12298  15.794   4.772   6.529 -0.0250  0.0293  0.1883
  853loPI   C3B12299  15.563   4.770   6.953 -0.0076 -0.1614 -0.1645
  853loPI   C4B12300  15.363   4.590   7.226 -0.0091 -0.0261 -0.0217
  854loPI    C112301   3.343  15.318   5.491 -0.2478  0.0945  0.0688
  854loPI    C212302   3.137  15.650   5.403 -0.1542  0.1018 -0.1273
  854loPI    C312303   3.148  15.347   5.142  0.1329  0.1259 -0.1462
  854loPI   PO412304   3.303  15.265   5.668  0.1484 -0.1179 -0.2027
  854loPI   GL112305   3.589  15.382   5.986 -0.0932 -0.0291 -0.3103
  854loPI   GL212306   3.369  15.251   6.185  0.2336  0.2064  0.1932
  854loPI   C1A12307   3.699  15.690   6.362  0.1603  0.0352 -0.0007
  854loPI   C2A12308   3.773  15.945   6.649  0.2092  0.0660  0.4060
  854loPI   C3A12309   3.986  16.086   6.913 -0.0646 -0.5627 -0.2935
  854loPI   C4A12310   4.027  16.141   7.365  0.0735  0.0698 -0.3102
  854loPI   C5A12311   4.065  16.479   7.473 -0.0708 -0.0295  0.1732
  854loPI   C6A12312   4.356  16.786   7.738  0.1923 -0.0462 -0.2389
  854loPI   C1B12313   3.360  15.360   6.648 -0.0948  0.3020  0.1298
  854loPI   C2B12314   3.390  15.264   7.083  0.2195  0.0101  0.1606
  854loPI   C3B12315   3.394  15.368   7.598 -0.1787  0.0604 -0.0865
  854loPI   C4B12316   3.527  15.521   7.977  0.0489 -0.2035 -0.1863
  855loPI    C112317  17.355  11.106   5.039 -0.1244 -0.1775  0.0080
  855loPI    C212318  17.114  10.893   4.801  0.0947 -0.1862 -0.2096
  855loPI    C312319  17.248  11.250   4.681 -0.0243 -0.0610  0.0244
  855loPI   PO412320  17.354  11.043   5.339 -0.4411  0.2317  0.1945
  855loPI   GL112321  17.274  10.817   5.726 -0.2677  0.1901  0.4398
  855loPI   GL212322  17.327  10.424   5.751  0.0250 -0.2854 -0.0791
  855loPI   C1A12323  17.050  10.695   6.126  0.1584  0.1070 -0.0132
  855loPI   C2A12324  17.034  10.742   6.612  0.0687 -0.2149 -0.0593
  855loPI   C3A12325  17.250  10.725   6.924 -0.0389  0.0918 -0.1468
  855loPI   C4A12326  17.608  10.750   7.164 -0.1163  0.1978  0.0027
  855loPI   C5A12327  17.706  10.541   7.545  0.1188  0.0130  0.2509
  855loPI   C6A12328  17.848  10.229   7.849 -0.0077  0.2151  0.0340
  855loPI   C1B12329  17.422  10.139   6.098 -0.4565  0.1119  0.3024
  855loPI   C2B12330  17.299  10.078   6.428 -0.2428  0.4913  0.1187
  855loPI   C3B12331  17.327   9.844   6.836  0.1126  0.1156 -0.1027
  855loPI   C4B12332  17.370   9.713   7.246 -0.0012  0.1401 -0.1220
  856loPI    C112333   9.501  15.810   5.501 -0.1455  0.0377 -0.0622
  856loPI    C212334   9.409  15.561   5.800  0.2961 -0.3795 -0.2602
  856loPI    C312335   9.160  15.601   5.490 -0.2063  0.1210  0.1856
  856loPI   PO412336   9.621  16.025   5.624  0.2979  0.0627  0.1580
  856loPI   GL112337   9.658  16.088   6.084 -0.0321 -0.1238 -0.0699
  856loPI   GL212338   9.784  16.445   6.078 -0.1707  0.3290  0.3010
  856loPI   C1A12339   9.456  16.041   6.534 -0.1007  0.0448 -0.4332
  856loPI   C2A12340   9.473  15.949   6.974 -0.3797 -0.0156 -0.1903
  856loPI   C3A12341   9.581  15.780   7.387 -0.1293 -0.2402 -0.0046
  856loPI   C4A12342   9.612  15.601   7.835 -0.0226 -0.1648 -0.0137
  856loPI   C5A12343   9.577  15.613   8.242 -0.0891  0.0524  0.1856
  856loPI   C6A12344   9.863  15.343   8.391  0.2409 -0.0326 -0.0746
  856loPI   C1B12345   9.952  16.328   6.515  0.1185 -0.0072 -0.0943
  856loPI   C2B12346   9.842  16.422   6.917  0.0263  0.1171 -0.0728
  856loPI   C3B12347   9.998  16.321   7.314 -0.3406 -0.0116 -0.1359
  856loPI   C4B12348  10.174  16.554   7.672 -0.3894  0.2136  0.3074
  857loPI    C112349  14.198   0.629   5.445 -0.0785  0.3568  0.2020
  857loPI    C212350  14.557   0.631   5.622  0.0819 -0.2630 -0.0874
  857loPI    C312351  14.509   0.803   5.263  0.1025 -0.2300 -0.0744
  857loPI   PO412352  14.027   0.680   5.633  0.1259 -0.0388  0.2577
  857loPI   GL112353  14.164   0.834   6.160 -0.0546  0.4535 -0.0058
  857loPI   GL212354  14.307   1.178   6.122 -0.0450  0.0791  0.1553
  857loPI   C1A12355  14.309   1.094   6.626  0.2551 -0.0313 -0.3343
  857loPI   C2A12356  14.518   1.093   7.015 -0.0978 -0.0320 -0.2308
  857loPI   C3A12357  14.647   1.147   7.441  0.1686  0.1391 -0.1594
  857loPI   C4A12358  14.819   1.103   7.858 -0.3159  0.1148  0.2092
  857loPI   C5A12359  14.587   0.834   8.131 -0.2456  0.1951  0.2518
  857loPI   C6A12360  14.509   0.407   8.068 -0.4491 -0.1791  0.1747
  857loPI   C1B12361  14.146   1.547   6.402  0.0858  0.3119 -0.1611
  857loPI   C2B12362  13.972   1.508   6.784 -0.0932  0.1984 -0.0666
  857loPI   C3B12363  14.010   1.266   7.055 -0.2858  0.0428 -0.0999
  857loPI   C4B12364  13.718   0.956   7.312  0.0369 -0.0536  0.1394
  858loPI    C112365   7.191  14.891   5.551  0.3486  0.1104  0.1380
  858loPI    C212366   7.018  14.820   5.198  0.1156  0.1618  0.2395
  858loPI    C312367   7.349  15.043   5.217  0.2934 -0.0769  0.0253
  858loPI   PO412368   6.813  15.030   5.666 -0.1088  0.0793  0.0800
  858loPI   GL112369   6.638  14.897   6.028  0.4762  0.1883  0.0524
  858loPI   GL212370   6.472  14.858   6.302 -0.1518 -0.1025  0.2259
  858loPI   C1A12371   6.858  15.180   6.426  0.1388  0.0227 -0.0472
  858loPI   C2A12372   6.789  15.264   6.817 -0.0914  0.3224  0.1202
  858loPI   C3A12373   6.581  15.348   7.301 -0.2544  0.1597  0.0411
  858loPI   C4A12374   6.322  15.020   7.530  0.1311 -0.0647 -0.1026
  858loPI   C5A12375   6.300  14.685   7.886  0.1341 -0.1739 -0.0412
  858loPI   C6A12376   6.130  14.490   8.302 -0.3041  0.4394 -0.3123
  858loPI   C1B12377   6.306  14.776   6.724 -0.1745 -0.0272 -0.1556
  858loPI   C2B12378   6.103  14.637   7.177  0.4018 -0.1620  0.0840
  858loPI   C3B12379   6.003  14.494   7.606  0.3981  0.0265  0.0371
  858loPI   C4B12380   5.805  14.665   7.998  0.0842  0.0762 -0.3179
  859loPI    C112381  16.556   0.285   5.905 -0.1627 -0.1815 -0.3497
  859loPI    C212382  16.861   0.076   6.058 -0.1342  0.0449 -0.0885
  859loPI    C312383  16.831   0.125   5.662  0.0921 -0.0929 -0.1246
  859loPI   PO412384  16.510   0.629   5.930 -0.1221 -0.1661 -0.1529
  859loPI   GL112385  16.390   0.858   6.252 -0.2261  0.1880 -0.1020
  859loPI   GL212386  16.415   1.236   6.104 -0.1459  0.1255  0.0062
  859loPI   C1A12387  16.342   0.790   6.699 -0.0818  0.2008 -0.0110
  859loPI   C2A12388  16.260   0.811   7.148  0.0173  0.3508 -0.2565
  859loPI   C3A12389  16.223   0.990   7.625 -0.2613 -0.0762 -0.1290
  859loPI   C4A12390  16.422   0.922   7.955 -0.0861  0.1287  0.1782
  859loPI   C5A12391  16.473   0.700   8.321 -0.1353 -0.1686 -0.0159
  859loPI   C6A12392  16.587   0.543   8.736 -0.2160 -0.3969 -0.1609
  859loPI   C1B12393  16.293   1.464   6.373  0.2871  0.0934 -0.1629
  859loPI   C2B12394  16.219   1.868   6.582  0.0152 -0.1886 -0.1196
  859loPI   C3B12395  16.088   2.278   6.792 -0.2595  0.0171  0.2247
  859loPI   C4B12396  16.064   2.443   7.291 -0.0779  0.0438  0.0731
  860loPI    C112397   6.507  14.282   5.058  0.0793 -0.2184  0.0429
  860loPI    C212398   6.906  14.284   5.083  0.0837 -0.1195 -0.0298
  860loPI    C312399   6.728  14.206   4.734  0.0422  0.0238 -0.0416
  860loPI   PO412400   6.374  14.192   5.386 -0.1821  0.2728 -0.2073
  860loPI   GL112401   6.205  13.933   5.711 -0.1526  0.2954 -0.1095
  860loPI   GL212402   6.507  13.901   5.852  0.4855  0.1104  0.0777
  860loPI   C1A12403   6.106  13.970   6.107  0.0556 -0.1755  0.1519
  860loPI   C2A12404   6.048  13.740   6.554 -0.0926  0.4119 -0.1008
  860loPI   C3A12405   5.918  13.397   6.852 -0.1984  0.2444  0.0693
  860loPI   C4A12406   5.858  13.497   7.232  0.2869  0.1932  0.3374
  860loPI   C5A12407   5.783  13.709   7.660  0.0369  0.3311  0.1324
  860loPI   C6A12408   5.818  14.142   7.867 -0.1321 -0.0015 -0.2179
  860loPI   C1B12409   6.559  13.888   6.319  0.1315 -0.2705 -0.0627
  860loPI   C2B12410   6.595  13.897   6.757  0.2047  0.0955 -0.0950
  860loPI   C3B12411   6.590  13.921   7.159 -0.1048  0.0311  0.0472
  860loPI   C4B12412   6.761  13.616   7.449  0.2044  0.1369 -0.0365
  861loPI    C112413  11.588  17.182   5.580 -0.0642 -0.1092  0.1171
  861loPI    C212414  11.403  17.478   5.385  0.1089  0.0125  0.1349
  861loPI    C312415  11.566  17.175   5.181  0.1943  0.0836  0.0972
  861loPI   PO412416  11.491  17.059   5.790 -0.0481  0.3553  0.0208
  861loPI   GL112417  11.235  16.892   6.176 -0.0468 -0.1962 -0.0663
  861loPI   GL212418  11.273  17.184   6.228 -0.2138 -0.0563  0.0994
  861loPI   C1A12419  11.323  16.884   6.646  0.4144  0.1210 -0.1191
  861loPI   C2A12420  11.372  16.882   7.069  0.2654 -0.0459 -0.2117
  861loPI   C3A12421  11.550  16.803   7.445 -0.0163 -0.2488 -0.2909
  861loPI   C4A12422  11.704  16.790   7.753 -0.1675 -0.0752  0.1372
  861loPI   C5A12423  11.600  16.636   8.112  0.0768  0.0186  0.0282
  861loPI   C6A12424  11.374  16.471   8.570 -0.0197  0.4172 -0.2375
  861loPI   C1B12425  11.374  17.431   6.602  0.1494  0.1219  0.1139
  861loPI   C2B12426  11.473  17.390   7.067 -0.3563 -0.1713 -0.0454
  861loPI   C3B12427  11.421  17.245   7.516 -0.1799 -0.3026 -0.1061
  861loPI   C4B12428  11.463  17.126   8.017 -0.0049 -0.1803  0.0292
  862loPI    C112429   8.976  13.556   5.717  0.1843  0.0656 -0.0390
  862loPI    C212430   8.937  13.362   5.369 -0.2260  0.1491 -0.0444
  862loPI    C312431   9.249  13.605   5.429  0.0671 -0.1811 -0.1960
  862loPI   PO412432   8.896  13.354   5.910  0.0553 -0.1068  0.0163
  862loPI   GL112433   8.535  13.295   6.182 -0.3884 -0.3723 -0.0918
  862loPI   GL212434   8.217  13.235   6.250  0.2822 -0.2068 -0.1849
  862loPI   C1A12435   8.780  13.167   6.631 -0.0283 -0.0023 -0.2232
  862loPI   C2A12436   8.770  13.158   7.123  0.1211 -0.1592 -0.3982
  862loPI   C3A12437   8.590  13.188   7.650 -0.4402  0.0054  0.1270
  862loPI   C4A12438   8.413  13.480   7.998 -0.1834 -0.0830  0.0834
  862loPI   C5A12439   8.190  13.662   8.333 -0.2131  0.3006 -0.1592
  862loPI   C6A12440   7.837  13.687   8.673  0.1012 -0.1113  0.0037
  862loPI   C1B12441   8.287  13.524   6.571  0.0273 -0.3286  0.1338
  862loPI   C2B12442   8.097  13.706   6.829  0.3065 -0.1680 -0.3089
  862loPI   C3B12443   7.990  13.945   7.158  0.2637  0.0970  0.2387
  862loPI   C4B12444   8.018  14.099   7.614 -0.0042  0.0808  0.1006
  863loPI    C112445   0.617  13.038   4.689  0.3104 -0.1855  0.0824
  863loPI    C212446   0.280  12.918   4.510  0.2207 -0.0892  0.1848
  863loPI    C312447   0.635  12.801   4.368  0.1524  0.0124 -0.0755
  863loPI   PO412448   0.489  13.042   4.995  0.0015 -0.0369 -0.0977
  863loPI   GL112449   0.540  12.919   5.435 -0.0386 -0.1429 -0.0089
  863loPI   GL212450   0.872  13.029   5.602 -0.0021  0.0197 -0.0775
  863loPI   C1A12451   0.404  12.658   5.710  0.0943 -0.0292  0.0855
  863loPI   C2A12452   0.625  12.534   6.137  0.1830 -0.2530  0.3274
  863loPI   C3A12453   0.475  12.137   6.407 -0.0242  0.2892  0.1977
  863loPI   C4A12454   0.263  11.944   6.855  0.1619 -0.0311 -0.2466
  863loPI   C5A12455   0.163  11.928   7.410 -0.0174  0.0550  0.0637
  863loPI   C6A12456   0.086  11.870   7.846  0.1347 -0.0972 -0.0005
  863loPI   C1B12457   0.768  13.057   6.026  0.0105  0.1639 -0.0243
  863loPI   C2B12458   0.759  13.012   6.372 -0.1012  0.2389 -0.0444
  863loPI   C3B12459   0.777  13.023   6.804 -0.0352  0.1626 -0.1407
  863loPI   C4B12460   0.815  13.058   7.211 -0.1923 -0.0321 -0.3075
  864loPI    C112461   5.413  14.245   5.319  0.0147 -0.0834  0.3933
  864loPI    C212462   5.467  14.518   5.606  0.4034  0.0191  0.2284
  864loPI    C312463   5.479  14.627   5.222  0.0273 -0.1421  0.1668
  864loPI   PO412464   5.145  14.029   5.370 -0.1940 -0.3184 -0.1662
  864loPI   GL112465   4.948  14.066   5.771  0.0926 -0.3642 -0.0208
  864loPI   GL212466   4.614  14.110   5.918 -0.1710 -0.1097  0.0622
  864loPI   C1A12467   5.120  14.360   6.117  0.0919 -0.1175  0.1239
  864loPI   C2A12468   5.026  14.256   6.604  0.1212  0.1643  0.1807
  864loPI   C3A12469   4.977  13.836   6.927 -0.0930 -0.0116  0.1314
  864loPI   C4A12470   5.097  13.760   7.287  0.0132 -0.0539 -0.1164
  864loPI   C5A12471   5.168  13.643   7.651 -0.1264 -0.1784 -0.1883
  864loPI   C6A12472   5.237  13.354   7.957 -0.0491  0.0158 -0.1487
  864loPI   C1B12473   4.581  14.136   6.356 -0.1703 -0.2902 -0.0765
  864loPI   C2B12474   4.554  14.166   6.859  0.3260 -0.0675 -0.0808
  864loPI   C3B12475   4.538  14.171   7.257 -0.1941  0.1472  0.2445
  864loPI   C4B12476   4.340  14.073   7.702 -0.3530  0.0139 -0.3265
  865loPI    C112477   3.390  13.712   5.585 -0.1696  0.0290  0.0301
  865loPI    C212478   3.372  14.057   5.382  0.1407  0.0544  0.0396
  865loPI    C312479   3.520  13.730   5.207  0.0176 -0.0297  0.0905
  865loPI   PO412480   3.324  13.797   5.807  0.0126 -0.1302  0.2193
  865loPI   GL112481   3.545  13.798   6.144 -0.3350 -0.1358 -0.0709
  865loPI   GL212482   3.244  13.702   6.270  0.0043 -0.2147  0.1199
  865loPI   C1A12483   3.858  13.874   6.415 -0.3508 -0.1075  0.0820
  865loPI   C2A12484   4.097  13.931   6.698 -0.3057  0.1359  0.1928
  865loPI   C3A12485   4.247  13.780   7.017 -0.0053 -0.0697  0.0493
  865loPI   C4A12486   4.630  13.658   7.202  0.0861 -0.0607 -0.2710
  865loPI   C5A12487   4.794  13.414   7.446  0.1899  0.0387  0.0805
  865loPI   C6A12488   5.073  13.049   7.591 -0.2118  0.5206 -0.0896
  865loPI   C1B12489   3.394  13.907   6.627  0.0368  0.0132 -0.0995
  865loPI   C2B12490   3.660  13.911   6.932  0.0295 -0.2886  0.0148
  865loPI   C3B12491   3.863  13.926   7.330 -0.2275  0.0864 -0.3271
  865loPI   C4B12492   3.800  13.781   7.734  0.2087  0.1334 -0.1354
  866loPI    C112493  11.877  11.092   5.266 -0.4384 -0.3174  0.1321
  866loPI    C212494  11.695  11.102   4.909  0.0398 -0.4128 -0.1231
  866loPI    C312495  12.052  11.277   4.957 -0.0884 -0.2666  0.3552
  866loPI   PO412496  11.697  11.268   5.405 -0.2298  0.3503 -0.1161
  866loPI   GL112497  11.526  11.342   5.816 -0.0730  0.3032  0.2353
  866loPI   GL212498  11.199  11.335   6.016 -0.1358  0.1018  0.0121
  866loPI   C1A12499  11.606  11.139   6.293  0.2686  0.0448  0.1386
  866loPI   C2A12500  11.656  10.928   6.692  0.1633  0.1062  0.0870
  866loPI   C3A12501  11.723  10.891   7.113 -0.0850  0.2113  0.0410
  866loPI   C4A12502  11.414  10.874   7.546  0.0336  0.0884 -0.0717
  866loPI   C5A12503  11.235  10.720   7.902  0.1514  0.2684  0.1199
  866loPI   C6A12504  10.930  10.665   8.232  0.0278  0.0065 -0.1036
  866loPI   C1B12505  11.374  11.568   6.351  0.0536  0.1533 -0.2186
  866loPI   C2B12506  11.480  11.374   6.747  0.2952 -0.0897 -0.4378
  866loPI   C3B12507  11.385  11.417   7.229  0.4003 -0.1403 -0.0143
  866loPI   C4B12508  11.466  11.617   7.574  0.0278  0.1361 -0.0323
  867loPI    C112509  14.764   1.852   5.433 -0.1159  0.0867 -0.1301
  867loPI    C212510  14.494   1.559   5.461 -0.0445  0.0320 -0.0051
  867loPI    C312511  14.640   1.663   5.104 -0.2920  0.1184 -0.0827
  867loPI   PO412512  14.639   2.023   5.638 -0.1950 -0.0405  0.0300
  867loPI   GL112513  14.518   2.094   6.058  0.1766  0.0307  0.4115
  867loPI   GL212514  14.798   2.266   6.076 -0.0773 -0.0956 -0.1170
  867loPI   C1A12515  14.406   1.982   6.504 -0.0286 -0.1686  0.0691
  867loPI   C2A12516  14.213   1.975   6.888  0.1225  0.1110 -0.0042
  867loPI   C3A12517  14.170   1.909   7.317  0.0324  0.2524 -0.1394
  867loPI   C4A12518  14.140   1.855   7.691  0.2886  0.1039  0.1411
  867loPI   C5A12519  13.812   1.731   8.028  0.2277  0.0002 -0.0718
  867loPI   C6A12520  13.529   1.519   8.182  0.2642  0.2688 -0.0006
  867loPI   C1B12521  14.747   2.387   6.462 -0.1957  0.2048 -0.3588
  867loPI   C2B12522  14.663   2.448   6.821 -0.1963 -0.1293 -0.0098
  867loPI   C3B12523  14.631   2.133   7.167  0.1230 -0.1256 -0.0016
  867loPI   C4B12524  14.622   2.085   7.596 -0.1601  0.0205 -0.0739
  868loPI    C112525  17.662   7.575   5.465  0.1550 -0.0005 -0.2088
  868loPI    C212526  17.795   7.526   5.091 -0.0655  0.0185 -0.2911
  868loPI    C312527  17.586   7.853   5.187  0.2605  0.1676 -0.0715
  868loPI   PO412528  17.830   7.616   5.630 -0.0058  0.0075 -0.0440
  868loPI   GL112529  17.728   7.766   5.982  0.1157 -0.0235 -0.3560
  868loPI   GL212530  18.023   8.061   5.878 -0.1643  0.2242 -0.0631
  868loPI   C1A12531  17.779   7.580   6.440  0.0105  0.0793  0.0024
  868loPI   C2A12532  17.519   7.361   6.676  0.2934 -0.0082 -0.3011
  868loPI   C3A12533  17.456   7.066   7.011 -0.1364 -0.2752 -0.0171
  868loPI   C4A12534  17.261   6.931   7.400 -0.0674  0.1395  0.1933
  868loPI   C5A12535  17.238   6.809   7.800  0.0496  0.0171  0.0402
  868loPI   C6A12536  17.428   6.636   8.114 -0.0304 -0.0616 -0.2338
  868loPI   C1B12537  17.917   8.092   6.372  0.4256  0.0555 -0.1206
  868loPI   C2B12538  17.774   8.025   6.738 -0.2300  0.1663 -0.2938
  868loPI   C3B12539  17.785   7.608   7.029  0.0018  0.2634  0.2544
  868loPI   C4B12540  17.528   7.407   7.457 -0.0489 -0.1195 -0.0493
  869loPI    C112541  12.144  11.641   5.334 -0.1841 -0.0954  0.1653
  869loPI    C212542  12.421  11.908   5.225 -0.2931 -0.0321  0.0405
  869loPI    C312543  12.090  11.862   5.005 -0.2665 -0.2834  0.0507
  869loPI   PO412544  12.261  11.467   5.394  0.1383  0.0010  0.2729
  869loPI   GL112545  12.153  11.224   5.655  0.1720  0.1687 -0.2251
  869loPI   GL212546  11.960  11.051   5.891 -0.3085  0.1648  0.1028
  869loPI   C1A12547  12.451  11.186   6.017  0.0782  0.1120 -0.0085
  869loPI   C2A12548  12.603  11.146   6.437  0.1821  0.4175 -0.1807
  869loPI   C3A12549  12.701  11.016   6.729 -0.1102 -0.1200 -0.3476
  869loPI   C4A12550  12.728  10.924   7.181  0.3513  0.2642 -0.0510
  869loPI   C5A12551  12.772  10.973   7.701 -0.3072 -0.1186  0.2737
  869loPI   C6A12552  12.569  11.048   8.169  0.0397 -0.1482 -0.1814
  869loPI   C1B12553  12.101  10.970   6.367  0.0249  0.0897 -0.2754
  869loPI   C2B12554  12.226  11.010   6.759 -0.1027 -0.1292 -0.1556
  869loPI   C3B12555  12.217  11.032   7.066  0.0951  0.0269 -0.1368
  869loPI   C4B12556  12.268  10.907   7.432 -0.0189  0.0142 -0.0434
  870loPI    C112557  13.095   2.669   5.456  0.2738  0.3196  0.0733
  870loPI    C212558  13.361   2.717   5.161  0.2069  0.0122 -0.0399
  870loPI    C312559  13.412   2.428   5.432  0.0216 -0.0093 -0.0264
  870loPI   PO412560  13.015   2.931   5.418 -0.1118 -0.1455  0.1398
  870loPI   GL112561  12.683   3.257   5.533  0.0114  0.2021 -0.0066
  870loPI   GL212562  12.970   3.319   5.707 -0.2606 -0.0294  0.2043
  870loPI   C1A12563  12.427   3.224   5.902  0.3008  0.2211 -0.0564
  870loPI   C2A12564  12.505   3.238   6.406 -0.0068 -0.0882  0.0012
  870loPI   C3A12565  12.447   3.144   6.861  0.0050 -0.2522  0.2418
  870loPI   C4A12566  12.737   3.058   7.212 -0.0616 -0.2635 -0.1362
  870loPI   C5A12567  12.616   3.112   7.603 -0.1868  0.1065 -0.0344
  870loPI   C6A12568  12.944   3.101   8.023  0.4396 -0.0610 -0.0584
  870loPI   C1B12569  12.897   3.200   6.060 -0.1189 -0.1822  0.0212
  870loPI   C2B12570  13.082   3.058   6.361  0.3195 -0.2471  0.1726
  870loPI   C3B12571  12.993   2.969   6.786  0.0138  0.0519  0.2558
  870loPI   C4B12572  13.150   2.737   7.186  0.1605 -0.0352  0.1268
  871loPI    C112573  16.861   3.772   5.214 -0.1042  0.1331  0.1978
  871loPI    C212574  17.017   3.792   4.847  0.1186  0.0615  0.2868
  871loPI    C312575  16.636   3.682   4.897  0.1266 -0.0623  0.0863
  871loPI   PO412576  16.988   3.560   5.382  0.1079  0.1905  0.0708
  871loPI   GL112577  17.166   3.480   5.790 -0.3753  0.1536  0.1716
  871loPI   GL212578  16.802   3.434   5.837 -0.0657 -0.3645  0.0303
  871loPI   C1A12579  17.417   3.113   6.038  0.1410 -0.2211 -0.0127
  871loPI   C2A12580  17.652   2.814   6.420 -0.2203  0.0915  0.1955
  871loPI   C3A12581  17.739   2.595   6.841  0.1817  0.3069 -0.1576
  871loPI   C4A12582  17.591   2.689   7.260  0.5110 -0.1218  0.0979
  871loPI   C5A12583  17.432   2.847   7.523  0.1562 -0.0633 -0.4709
  871loPI   C6A12584  17.035   2.972   7.737  0.3212  0.0315  0.1526
  871loPI   C1B12585  16.957   3.426   6.289  0.2004  0.1034 -0.0913
  871loPI   C2B12586  16.936   3.279   6.708 -0.1250  0.3001  0.1504
  871loPI   C3B12587  16.893   3.486   7.099 -0.0674  0.0327  0.0381
  871loPI   C4B12588  16.671   3.356   7.463  0.0008  0.0792 -0.0991
  872loPI    C112589   5.631  10.328   5.253 -0.1781 -0.0195  0.2534
  872loPI    C212590   5.588  10.477   4.884 -0.1962  0.0164  0.2699
  872loPI    C312591   5.456  10.109   4.968  0.1267 -0.1318  0.1478
  872loPI   PO412592   5.948  10.292   5.343  0.0161  0.1179  0.1934
  872loPI   GL112593   6.258  10.452   5.523  0.1196 -0.2524 -0.2953
  872loPI   GL212594   6.394  10.564   5.761 -0.0525 -0.1170  0.1162
  872loPI   C1A12595   6.208  10.099   5.913  0.0578  0.0396 -0.0852
  872loPI   C2A12596   6.093   9.917   6.211 -0.4836 -0.2172  0.2945
  872loPI   C3A12597   5.875   9.658   6.547  0.1062 -0.2309 -0.0449
  872loPI   C4A12598   5.787   9.695   6.954  0.0918 -0.1389 -0.0176
  872loPI   C5A12599   5.662   9.724   7.416  0.0646 -0.0779 -0.3602
  872loPI   C6A12600   5.378   9.767   7.739  0.1759 -0.1547  0.2366
  872loPI   C1B12601   6.615  10.588   6.167 -0.1348 -0.0855  0.2882
  872loPI   C2B12602   6.580  10.463   6.612  0.2803 -0.1553  0.1932
  872loPI   C3B12603   6.625  10.592   7.076  0.3031 -0.0813  0.1010
  872loPI   C4B12604   6.329  10.904   7.290  0.2899 -0.2385 -0.0250
  873loPI    C112605  11.362   1.934   5.235 -0.0372 -0.1135  0.2286
  873loPI    C212606  10.985   1.846   5.131  0.0227 -0.0694 -0.0311
  873loPI    C312607  11.142   2.201   5.034  0.0889 -0.0360  0.1932
  873loPI   PO412608  11.427   1.830   5.507  0.0999  0.1613  0.1727
  873loPI   GL112609  11.212   1.806   5.799  0.3067  0.1869  0.3712
  873loPI   GL212610  10.962   1.580   6.010 -0.0577  0.0937  0.1637
  873loPI   C1A12611  10.873   2.084   6.016  0.0540  0.1451  0.0082
  873loPI   C2A12612  10.754   2.335   6.405 -0.1254  0.0415  0.2370
  873loPI   C3A12613  10.815   2.416   6.769  0.0466  0.1319  0.2506
  873loPI   C4A12614  10.878   2.695   7.114  0.0928 -0.0188  0.3411
  873loPI   C5A12615  11.067   2.472   7.394 -0.0829 -0.0445 -0.1370
  873loPI   C6A12616  11.502   2.631   7.615 -0.0850  0.1266  0.2799
  873loPI   C1B12617  10.851   1.802   6.416 -0.1493 -0.0270 -0.1683
  873loPI   C2B12618  10.812   1.947   6.787  0.0317 -0.0171  0.4108
  873loPI   C3B12619  10.791   2.098   7.184 -0.2538  0.1770 -0.0259
  873loPI   C4B12620  10.675   2.115   7.717  0.2308 -0.0215  0.0931
  874loPI    C112621  11.888  16.769   5.382  0.0819  0.2233  0.2275
  874loPI    C212622  12.148  16.592   5.135 -0.2348 -0.0603  0.0897
  874loPI    C312623  12.025  16.966   5.062 -0.1032 -0.0370 -0.0163
  874loPI   PO412624  11.815  16.581   5.593  0.1036 -0.1342 -0.1261
  874loPI   GL112625  11.810  16.587   6.040 -0.0014 -0.0609  0.0574
  874loPI   GL212626  12.127  16.768   6.142  0.3462  0.0838  0.3005
  874loPI   C1A12627  11.708  16.746   6.326 -0.1398  0.0307 -0.1019
  874loPI   C2A12628  11.768  16.942   6.722  0.1229  0.1307 -0.1947
  874loPI   C3A12629  11.864  17.123   7.096  0.0131 -0.1841  0.1558
  874loPI   C4A12630  11.852  17.356   7.400 -0.5251 -0.1611  0.1250
  874loPI   C5A12631  11.936  17.456   7.825  0.1317  0.1906 -0.1211
  874loPI   C6A12632  11.691  17.675   8.112  0.1361 -0.0037 -0.0285
  874loPI   C1B12633  12.192  16.721   6.521  0.0805  0.1658 -0.1709
  874loPI   C2B12634  12.146  16.652   6.959  0.1082 -0.2940 -0.1652
  874loPI   C3B12635  12.108  16.624   7.340  0.0659 -0.1918  0.0254
  874loPI   C4B12636  12.159  17.001   7.684  0.0650 -0.0763 -0.0497
  875loPI    C112637   8.168   3.332   5.264 -0.2790  0.2568 -0.0183
  875loPI    C212638   7.976   3.396   4.920  0.0176  0.4426 -0.1535
  875loPI    C312639   8.298   3.159   4.928 -0.1041  0.2801  0.0365
  875loPI   PO412640   8.155   3.679   5.403  0.2915 -0.1832  0.0354
  875loPI   GL112641   8.303   3.766   5.750 -0.0144  0.4395 -0.3963
  875loPI   GL212642   8.085   3.585   5.884 -0.0747  0.0287 -0.2520
  875loPI   C1A12643   8.214   4.047   6.069  0.2679  0.0836  0.0250
  875loPI   C2A12644   8.156   4.135   6.502 -0.1529  0.3632  0.1001
  875loPI   C3A12645   8.303   3.798   6.858 -0.0256 -0.1144  0.0212
  875loPI   C4A12646   8.352   3.745   7.267 -0.1768  0.3108 -0.0255
  875loPI   C5A12647   8.375   3.622   7.710  0.0922 -0.2908 -0.0248
  875loPI   C6A12648   8.353   3.252   8.055  0.0099 -0.1760 -0.0481
  875loPI   C1B12649   8.151   3.521   6.360 -0.0104  0.0322 -0.0371
  875loPI   C2B12650   8.120   3.346   6.751  0.1484  0.1239 -0.3703
  875loPI   C3B12651   8.023   3.206   7.189 -0.1082 -0.2560  0.1090
  875loPI   C4B12652   8.028   3.308   7.582  0.1430 -0.0185  0.1426
  876loPI    C112653  16.228   2.724   5.539  0.0257 -0.0615  0.2278
  876loPI    C212654  16.254   2.622   5.153 -0.0521  0.0948  0.1804
  876loPI    C312655  16.277   2.341   5.436  0.0243 -0.0183  0.0629
  876loPI   PO412656  15.955   2.780   5.537 -0.4011 -0.1106 -0.1614
  876loPI   GL112657  15.722   2.895   5.956  0.0872  0.0921  0.0155
  876loPI   GL212658  16.084   2.795   6.034 -0.3344 -0.0306  0.2097
  876loPI   C1A12659  15.840   3.119   6.425  0.0617  0.1825  0.0633
  876loPI   C2A12660  16.052   3.222   6.841  0.2521  0.0141 -0.0992
  876loPI   C3A12661  15.897   3.427   7.220  0.1240 -0.1903 -0.1888
  876loPI   C4A12662  15.892   3.674   7.607  0.1405  0.2406 -0.0035
  876loPI   C5A12663  15.634   3.632   7.928  0.1080 -0.2058 -0.0588
  876loPI   C6A12664  15.482   3.628   8.428  0.0292  0.1445  0.3372
  876loPI   C1B12665  15.859   2.598   6.443 -0.0849 -0.2859 -0.0252
  876loPI   C2B12666  15.654   2.576   6.886  0.0796 -0.0592 -0.3093
  876loPI   C3B12667  15.345   2.693   7.188  0.1850 -0.0602 -0.0003
  876loPI   C4B12668  15.178   2.599   7.608 -0.2386  0.1912 -0.0399
  877loPI    C112669   8.818   4.533   5.274  0.0914 -0.0521  0.1697
  877loPI    C212670   8.577   4.215   5.306  0.1778 -0.1544 -0.1568
  877loPI    C312671   8.940   4.176   5.142  0.1835  0.1161 -0.2141
  877loPI   PO412672   8.794   4.631   5.459 -0.0477 -0.2288  0.0221
  877loPI   GL112673   8.744   4.593   5.832  0.0766  0.1062 -0.0826
  877loPI   GL212674   8.682   4.966   5.907  0.0138 -0.2628 -0.3132
  877loPI   C1A12675   8.890   4.714   6.316 -0.0515  0.1249 -0.2308
  877loPI   C2A12676   8.601   4.604   6.697  0.1386  0.0212 -0.2035
  877loPI   C3A12677   8.367   4.271   6.992  0.2481 -0.0661 -0.1135
  877loPI   C4A12678   8.022   4.524   7.340  0.0849 -0.0918 -0.2263
  877loPI   C5A12679   8.056   4.666   7.809 -0.3114  0.0456  0.0432
  877loPI   C6A12680   7.971   4.650   8.236  0.1660 -0.0120  0.1025
  877loPI   C1B12681   8.310   5.142   6.041  0.1326 -0.0886 -0.1406
  877loPI   C2B12682   7.919   5.034   6.235  0.2971  0.1727  0.1156
  877loPI   C3B12683   7.738   5.006   6.701 -0.1296 -0.0687  0.0649
  877loPI   C4B12684   7.767   4.865   7.013  0.1859 -0.2565  0.0752
  878loPI    C112685  18.001   1.643   5.658  0.2152 -0.0686 -0.4504
  878loPI    C212686  17.631   1.521   5.751  0.3571 -0.1664  0.0131
  878loPI    C312687  17.715   1.641   5.379 -0.1664 -0.0351 -0.0698
  878loPI   PO412688  18.103   1.653   5.882  0.3840  0.2356 -0.1998
  878loPI   GL112689  17.970   1.916   6.250 -0.1650 -0.0851 -0.0625
  878loPI   GL212690  17.693   1.679   6.220  0.2589  0.0715  0.2610
  878loPI   C1A12691  17.953   2.047   6.577  0.0004 -0.0901 -0.5515
  878loPI   C2A12692  17.796   2.132   6.855 -0.0244 -0.2361  0.1406
  878loPI   C3A12693  17.981   2.138   7.153  0.1695 -0.0958 -0.0197
  878loPI   C4A12694  17.956   1.906   7.486 -0.2424  0.1626 -0.0034
  878loPI   C5A12695  18.107   1.994   7.835 -0.0130  0.0444  0.1304
  878loPI   C6A12696  18.333   1.745   8.188  0.1704  0.0527 -0.0156
  878loPI   C1B12697  17.510   1.712   6.576 -0.0843  0.0843  0.0013
  878loPI   C2B12698  17.558   1.719   7.077 -0.0775  0.0623  0.1328
  878loPI   C3B12699  17.289   1.641   7.404 -0.1813 -0.0989 -0.0487
  878loPI   C4B12700  16.946   1.469   7.612 -0.0513 -0.0592  0.0451
  879loPI    C112701  15.470  14.013   5.445 -0.2525 -0.2813  0.0207
  879loPI    C212702  15.798  13.858   5.613 -0.1300 -0.1918 -0.1328
  879loPI    C312703  15.657  13.705   5.272 -0.1121 -0.0809 -0.1905
  879loPI   PO412704  15.256  14.026   5.628 -0.1085  0.3076  0.0039
  879loPI   GL112705  15.124  13.928   6.026 -0.3409 -0.0665  0.1285
  879loPI   GL212706  14.961  13.682   5.914  0.0168 -0.3363  0.1821
  879loPI   C1A12707  15.363  14.061   6.367 -0.1588  0.3196  0.2454
  879loPI   C2A12708  15.520  13.883   6.686  0.1370 -0.0440  0.1376
  879loPI   C3A12709  15.944  13.726   6.850  0.2572 -0.0037 -0.0078
  879loPI   C4A12710  16.022  13.470   7.293 -0.0008 -0.1327 -0.0102
  879loPI   C5A12711  16.087  13.355   7.739  0.1151 -0.3429  0.1800
  879loPI   C6A12712  16.090  13.164   8.237  0.0944  0.0386 -0.4389
  879loPI   C1B12713  14.890  13.616   6.376 -0.1597 -0.0259 -0.1847
  879loPI   C2B12714  15.402  13.551   6.281 -0.1198 -0.0753  0.2408
  879loPI   C3B12715  15.819  13.427   6.505  0.0251  0.0540 -0.1974
  879loPI   C4B12716  16.064  13.219   6.862 -0.3073  0.2243 -0.2202
  880loPI    C112717   3.758   3.629   5.168  0.0894  0.0427  0.1166
  880loPI    C212718   3.916   3.264   5.209  0.2846  0.1458  0.3069
  880loPI    C312719   3.988   3.476   4.878 -0.0783 -0.1042  0.0598
  880loPI   PO412720   3.739   3.709   5.431  0.3142 -0.1211  0.2039
  880loPI   GL112721   3.729   3.848   5.860 -0.2573  0.2489 -0.0514
  880loPI   GL212722   4.014   3.773   5.866  0.2169 -0.0295  0.1134
  880loPI   C1A12723   3.563   3.512   6.193 -0.1975 -0.0912 -0.0703
  880loPI   C2A12724   3.706   3.347   6.624  0.0037 -0.1917  0.2644
  880loPI   C3A12725   3.692   3.474   7.019 -0.1162 -0.1333  0.0146
  880loPI   C4A12726   3.657   3.626   7.512  0.0535 -0.1270 -0.1180
  880loPI   C5A12727   3.485   3.463   7.816  0.4325  0.0623  0.1308
  880loPI   C6A12728   3.477   3.185   8.102 -0.3331  0.0660  0.1520
  880loPI   C1B12729   3.875   3.851   6.393  0.0513  0.2951 -0.0670
  880loPI   C2B12730   4.007   3.779   6.744  0.1508  0.4684 -0.2632
  880loPI   C3B12731   3.788   3.955   7.085  0.0207  0.0024  0.2361
  880loPI   C4B12732   3.808   4.059   7.516  0.1153  0.0866  0.1158
  881loPI    C112733  18.054   2.579   5.316 -0.0513 -0.0233 -0.0229
  881loPI    C212734  18.139   2.867   5.052  0.3717 -0.0441  0.0830
  881loPI    C312735  17.758   2.766   5.122  0.2293  0.3293 -0.1219
  881loPI   PO412736  18.132   2.721   5.564  0.4254  0.0550  0.2563
  881loPI   GL112737  18.052   2.711   5.978  0.0640 -0.1047  0.1489
  881loPI   GL212738  17.856   2.964   5.930  0.1402 -0.0237 -0.0175
  881loPI   C1A12739  18.141   2.883   6.451 -0.2138  0.1443  0.2641
  881loPI   C2A12740  18.110   3.265   6.686 -0.2301 -0.2043  0.1614
  881loPI   C3A12741  18.198   3.361   7.190  0.2756  0.3188  0.0883
  881loPI   C4A12742  18.538   3.507   7.483  0.0354 -0.3546  0.0804
  881loPI   C5A12743  18.909   3.857   7.662  0.2153  0.0810  0.2124
  881loPI   C6A12744  19.317   3.863   7.461 -0.1856 -0.0606 -0.0651
  881loPI   C1B12745  17.864   3.330   6.233  0.0889 -0.2274  0.0285
  881loPI   C2B12746  17.568   3.265   6.517 -0.0505  0.0781  0.1302
  881loPI   C3B12747  17.710   3.125   6.955 -0.4508  0.0019  0.1687
  881loPI   C4B12748  17.709   3.271   7.285  0.5884  0.0959  0.2083
  882loPI    C112749   0.097   0.895   5.833  0.0047  0.1425 -0.0161
  882loPI    C212750   0.440   0.691   5.805  0.0239  0.1430  0.1977
  882loPI    C312751   0.217   0.753   5.479  0.3808  0.4115 -0.0020
  882loPI   PO412752   0.051   0.893   6.000 -0.2369  0.0715 -0.2468
  882loPI   GL112753  -0.101   1.001   6.411 -0.2423  0.1775  0.1512
  882loPI   GL212754  -0.109   0.696   6.519 -0.3706 -0.3791  0.0634
  882loPI   C1A12755   0.034   1.127   6.845  0.0250  0.1703 -0.2866
  882loPI   C2A12756   0.053   1.149   7.183 -0.0535  0.1812  0.1020
  882loPI   C3A12757   0.345   1.233   7.521 -0.0685 -0.3142  0.0291
  882loPI   C4A12758   0.431   1.616   7.742  0.1163  0.3220 -0.0341
  882loPI   C5A12759   0.478   1.389   8.099  0.3209 -0.0351  0.1525
  882loPI   C6A12760   0.477   1.251   8.541  0.2380 -0.0696 -0.2317
  882loPI   C1B12761  -0.207   0.604   6.962  0.3176 -0.1443  0.1948
  882loPI   C2B12762  -0.548   0.553   7.365  0.0870  0.0076  0.0284
  882loPI   C3B12763  -0.424   0.440   7.788  0.0626  0.3270 -0.3859
  882loPI   C4B12764  -0.084   0.293   7.865  0.2308 -0.2067  0.0875
  883loPI    C112765   0.659   2.654   5.088  0.3525 -0.0295 -0.0427
  883loPI    C212766   0.355   2.459   4.915  0.1987 -0.0248  0.2170
  883loPI    C312767   0.390   2.855   4.869  0.1445 -0.0200  0.2167
  883loPI   PO412768   0.566   2.506   5.404  0.1874 -0.0205  0.4330
  883loPI   GL112769   0.488   2.491   5.797  0.1927 -0.0182 -0.1247
  883loPI   GL212770   0.282   2.300   5.934 -0.1490 -0.1182 -0.2056
  883loPI   C1A12771   0.517   2.815   6.109  0.0334 -0.0042  0.1854
  883loPI   C2A12772   0.182   2.865   6.351 -0.2874 -0.1662 -0.1641
  883loPI   C3A12773   0.029   2.901   6.770 -0.2043  0.3387  0.3865
  883loPI   C4A12774   0.101   3.067   7.104  0.0206  0.1811 -0.2392
  883loPI   C5A12775   0.016   2.990   7.481 -0.0885  0.0384 -0.2081
  883loPI   C6A12776  -0.080   2.891   7.830 -0.0511 -0.2263  0.1103
  883loPI   C1B12777  -0.080   2.418   6.355 -0.1947 -0.1139 -0.0402
  883loPI   C2B12778  -0.258   2.434   6.735  0.0747  0.0288 -0.3065
  883loPI   C3B12779  -0.378   2.629   7.191 -0.2733 -0.0330  0.1940
  883loPI   C4B12780  -0.333   2.435   7.606  0.3861 -0.3995 -0.2016
  884loPI    C112781  16.795  15.684   5.578 -0.0006  0.1978 -0.1171
  884loPI    C212782  16.511  15.921   5.428 -0.1165 -0.0017 -0.2175
  884loPI    C312783  16.782  15.756   5.185 -0.0840 -0.0347 -0.1590
  884loPI   PO412784  16.761  15.819   5.853 -0.0979 -0.0271  0.2402
  884loPI   GL112785  16.844  15.942   6.229 -0.1996 -0.1683 -0.1201
  884loPI   GL212786  16.993  15.697   6.363  0.1655 -0.1984 -0.3543
  884loPI   C1A12787  16.949  16.264   6.421 -0.1212  0.1327  0.1882
  884loPI   C2A12788  17.015  16.237   6.865 -0.0453  0.3105 -0.0030
  884loPI   C3A12789  17.122  15.814   7.138 -0.0996 -0.3653 -0.0179
  884loPI   C4A12790  17.342  15.585   7.362  0.4145 -0.1529  0.0259
  884loPI   C5A12791  17.345  15.240   7.716 -0.0754  0.0417 -0.2168
  884loPI   C6A12792  17.359  14.954   8.003  0.0753 -0.1853 -0.1579
  884loPI   C1B12793  16.658  15.917   6.692 -0.0888  0.1089  0.1041
  884loPI   C2B12794  16.600  15.748   7.077  0.2154  0.0489 -0.1974
  884loPI   C3B12795  16.397  15.431   7.373 -0.0367  0.1980 -0.0421
  884loPI   C4B12796  16.562  15.040   7.456  0.1640  0.0079  0.0420
  885loPI    C112797  13.417   7.025   5.412  0.0242  0.4841  0.1368
  885loPI    C212798  13.447   7.232   5.071  0.1141 -0.1886 -0.2833
  885loPI    C312799  13.256   6.881   5.075  0.1838 -0.2313  0.3492
  885loPI   PO412800  13.423   7.267   5.548 -0.0496 -0.1592 -0.0484
  885loPI   GL112801  13.648   7.161   5.970 -0.0289  0.0143 -0.2192
  885loPI   GL212802  13.352   7.141   6.042  0.0577  0.0117 -0.0767
  885loPI   C1A12803  13.611   7.441   6.341  0.1845 -0.0304 -0.1895
  885loPI   C2A12804  13.573   7.330   6.700  0.2161 -0.0117  0.1492
  885loPI   C3A12805  13.542   7.295   7.106 -0.0956 -0.0597 -0.4488
  885loPI   C4A12806  13.591   7.435   7.501 -0.3709  0.0287  0.1167
  885loPI   C5A12807  13.715   7.608   7.955  0.0383 -0.2488 -0.3531
  885loPI   C6A12808  13.778   7.885   8.102  0.1469 -0.0548 -0.0838
  885loPI   C1B12809  13.193   6.980   6.420 -0.3076 -0.2303  0.2420
  885loPI   C2B12810  13.244   7.012   6.812  0.1481 -0.2131 -0.1178
  885loPI   C3B12811  13.474   6.857   7.003 -0.0155 -0.0961  0.3467
  885loPI   C4B12812  13.770   6.799   7.346  0.4549 -0.1930 -0.1383
  886loPI    C112813   8.885  14.916   5.764  0.0213 -0.0345 -0.1320
  886loPI    C212814   8.818  14.879   5.371 -0.1241 -0.0867 -0.1028
  886loPI    C312815   8.515  14.847   5.630 -0.0025 -0.2201  0.0248
  886loPI   PO412816   9.005  15.226   5.792 -0.1868  0.0920  0.1161
  886loPI   GL112817   8.969  15.507   6.067  0.1026  0.1044  0.0724
  886loPI   GL212818   8.960  15.289   6.281  0.4573  0.0560 -0.0491
  886loPI   C1A12819   9.191  15.803   6.241  0.0605  0.1986 -0.2422
  886loPI   C2A12820   9.025  15.931   6.698 -0.1752 -0.0015 -0.2130
  886loPI   C3A12821   8.867  16.166   6.997  0.4253 -0.0787  0.1670
  886loPI   C4A12822   8.527  16.263   7.103  0.2332 -0.1651 -0.2279
  886loPI   C5A12823   8.175  16.237   7.357  0.1439 -0.1765 -0.0507
  886loPI   C6A12824   7.991  16.139   7.705  0.0316 -0.1746 -0.0217
  886loPI   C1B12825   9.026  15.399   6.705 -0.1440  0.0055  0.0443
  886loPI   C2B12826   9.008  15.616   7.060 -0.0689 -0.0212  0.1566
  886loPI   C3B12827   9.086  15.885   7.347 -0.0012 -0.3038 -0.1911
  886loPI   C4B12828   9.304  16.028   7.678  0.4723  0.1191 -0.1639
  887loPI    C112829   2.743   6.208   5.639 -0.1051  0.1152 -0.2131
  887loPI    C212830   2.946   6.300   5.307  0.0624 -0.2155 -0.2057
  887loPI    C312831   2.614   6.078   5.284 -0.1776  0.1358 -0.1944
  887loPI   PO412832   2.782   6.508   5.716 -0.0180 -0.1671 -0.0714
  887loPI   GL112833   2.856   6.794   6.028 -0.0533  0.1123 -0.0902
  887loPI   GL212834   2.501   6.836   6.082 -0.1348 -0.0709  0.1073
  887loPI   C1A12835   2.759   6.615   6.506 -0.1360  0.1054  0.0465
  887loPI   C2A12836   2.771   6.582   6.978 -0.2112  0.0599 -0.0344
  887loPI   C3A12837   2.778   6.656   7.475 -0.0981  0.1008 -0.0687
  887loPI   C4A12838   2.954   6.886   7.763 -0.1774 -0.0431  0.0928
  887loPI   C5A12839   3.213   7.254   7.681 -0.0879  0.0137  0.2707
  887loPI   C6A12840   2.981   7.640   7.633 -0.1780 -0.1544  0.1530
  887loPI   C1B12841   2.346   6.880   6.546 -0.0865 -0.1094  0.0719
  887loPI   C2B12842   2.329   6.734   6.998  0.2794 -0.1509  0.1203
  887loPI   C3B12843   2.088   6.627   7.270 -0.0492 -0.0896  0.1028
  887loPI   C4B12844   2.351   6.618   7.759  0.0269 -0.0941 -0.1801
  888loPI    C112845   1.685  11.911   5.488  0.2619  0.0553  0.1140
  888loPI    C212846   1.964  11.992   5.213  0.0552  0.2339 -0.0471
  888loPI    C312847   1.666  11.739   5.127  0.0754  0.1708  0.0671
  888loPI   PO412848   1.806  11.869   5.753 -0.2937 -0.0993 -0.2474
  888loPI   GL112849   1.804  11.864   6.237  0.2001 -0.1444  0.0373
  888loPI   GL212850   2.161  11.931   6.080  0.2334 -0.0498  0.0174
  888loPI   C1A12851   1.721  11.876   6.676  0.0192 -0.1432 -0.1780
  888loPI   C2A12852   1.921  11.873   7.159 -0.3333  0.0888  0.0098
  888loPI   C3A12853   2.258  11.612   7.360  0.0982  0.0156  0.2329
  888loPI   C4A12854   2.601  11.493   7.663  0.0962 -0.2902  0.0308
  888loPI   C5A12855   2.845  11.339   8.013 -0.0046 -0.1136 -0.0754
  888loPI   C6A12856   3.020  11.259   8.446 -0.0008 -0.2651  0.0489
  888loPI   C1B12857   2.259  11.894   6.490  0.0160 -0.3071 -0.0542
  888loPI   C2B12858   2.438  11.931   6.991 -0.1189 -0.0472 -0.1362
  888loPI   C3B12859   2.681  11.998   7.310  0.1114 -0.0008 -0.0141
  888loPI   C4B12860   2.850  11.903   7.688  0.1481 -0.0740  0.2567
  889loPI    C112861   2.659  13.416   5.192  0.0627 -0.0030  0.0515
  889loPI    C212862   2.471  13.768   5.163  0.0537 -0.0279 -0.2182
  889loPI    C312863   2.411  13.486   4.886 -0.0585 -0.3009  0.0783
  889loPI   PO412864   2.613  13.401   5.518  0.1905 -0.0032  0.1001
  889loPI   GL112865   2.425  13.644   5.889 -0.0643  0.4056 -0.0779
  889loPI   GL212866   2.269  13.415   6.092  0.0355 -0.0435 -0.2399
  889loPI   C1A12867   2.437  13.804   6.331 -0.1001 -0.3649 -0.1832
  889loPI   C2A12868   2.363  14.015   6.707  0.0168  0.2336  0.2451
  889loPI   C3A12869   2.275  13.967   7.080  0.0064  0.0689 -0.2652
  889loPI   C4A12870   2.284  13.598   7.261 -0.1004  0.0444 -0.1106
  889loPI   C5A12871   2.367  13.576   7.627  0.0561  0.1051  0.3016
  889loPI   C6A12872   2.497  13.770   8.005 -0.3051  0.1124 -0.1584
  889loPI   C1B12873   2.229  13.433   6.576  0.1710  0.0282  0.0359
  889loPI   C2B12874   2.571  13.535   6.733 -0.0639 -0.3348 -0.1983
  889loPI   C3B12875   2.742  13.342   7.130  0.1005  0.3368 -0.2479
  889loPI   C4B12876   2.873  13.467   7.563 -0.2399 -0.1457  0.0274
  890loPI    C112877   3.068   5.000   5.464 -0.3051 -0.5728 -0.1915
  890loPI    C212878   3.092   5.250   5.154 -0.0327 -0.2349  0.0930
  890loPI    C312879   3.259   4.887   5.131  0.2878 -0.0835 -0.0362
  890loPI   PO412880   3.029   5.244   5.667 -0.1234 -0.0462  0.1584
  890loPI   GL112881   3.025   5.480   6.052  0.1018 -0.1405 -0.2293
  890loPI   GL212882   3.316   5.719   6.015  0.2035  0.0878  0.3093
  890loPI   C1A12883   2.857   5.591   6.345  0.1422  0.0671 -0.1232
  890loPI   C2A12884   2.711   5.608   6.722  0.0588 -0.1771 -0.1122
  890loPI   C3A12885   2.952   5.638   7.126 -0.1393  0.1119 -0.0299
  890loPI   C4A12886   3.069   5.664   7.571 -0.0146  0.0637 -0.0708
  890loPI   C5A12887   3.173   5.970   7.944 -0.0518  0.0029 -0.1103
  890loPI   C6A12888   3.016   6.104   8.312  0.1382 -0.1860  0.0335
  890loPI   C1B12889   3.313   5.614   6.531 -0.1961 -0.1932 -0.1942
  890loPI   C2B12890   3.452   5.557   6.979 -0.0094  0.0969  0.0577
  890loPI   C3B12891   3.466   5.487   7.323  0.1704  0.1595 -0.0464
  890loPI   C4B12892   3.616   5.405   7.768  0.1160 -0.1217 -0.1683
  891loPI    C112893   0.063  15.360   6.064 -0.1920  0.1837  0.0570
  891loPI    C212894  -0.098  15.725   6.045 -0.1696  0.1768 -0.3546
  891loPI    C312895   0.279  15.667   5.926 -0.0079  0.1053  0.1663
  891loPI   PO412896  -0.060  15.279   6.304  0.2701  0.1207 -0.1298
  891loPI   GL112897   0.009  15.436   6.637  0.3422  0.2576  0.1218
  891loPI   GL212898   0.387  15.446   6.565  0.2307  0.1515 -0.1796
  891loPI   C1A12899   0.172  15.472   7.017 -0.3002 -0.1195 -0.0667
  891loPI   C2A12900   0.160  15.589   7.471 -0.1278 -0.0068 -0.2366
  891loPI   C3A12901   0.312  15.564   7.893 -0.1291  0.0663 -0.2221
  891loPI   C4A12902   0.574  15.840   8.138  0.3527 -0.5164 -0.0187
  891loPI   C5A12903   0.872  15.849   8.461  0.1848 -0.2906 -0.1512
  891loPI   C6A12904   1.143  15.787   8.736 -0.1232 -0.0533 -0.2878
  891loPI   C1B12905   0.640  15.626   6.756  0.2494 -0.2618  0.2365
  891loPI   C2B12906   0.657  15.529   7.206 -0.1421 -0.5105  0.0712
  891loPI   C3B12907   0.662  15.514   7.572 -0.0703  0.0522 -0.3472
  891loPI   C4B12908   0.976  15.510   8.030  0.0951  0.1599  0.1040
  892loPI    C112909   4.617  14.922   5.357  0.3714  0.1498 -0.1938
  892loPI    C212910   4.731  14.793   4.996 -0.0359 -0.0961 -0.2409
  892loPI    C312911   4.405  14.639   5.169  0.0113  0.2012  0.1236
  892loPI   PO412912   4.874  14.994   5.438  0.4708  0.1056 -0.2576
  892loPI   GL112913   5.072  15.318   5.684 -0.0082 -0.0507  0.0161
  892loPI   GL212914   4.817  15.364   5.946  0.4207  0.0333  0.2434
  892loPI   C1A12915   5.168  15.121   6.191 -0.1989 -0.2447 -0.1916
  892loPI   C2A12916   5.046  15.137   6.576  0.3429 -0.2190 -0.2138
  892loPI   C3A12917   4.907  15.160   7.037 -0.3169 -0.2360  0.1573
  892loPI   C4A12918   4.795  15.192   7.397 -0.3423  0.1453  0.0292
  892loPI   C5A12919   4.895  15.157   7.841 -0.0237 -0.2750 -0.4095
  892loPI   C6A12920   5.030  15.044   8.214  0.2641  0.1567  0.0292
  892loPI   C1B12921   4.733  15.603   6.421 -0.1733  0.0234  0.1707
  892loPI   C2B12922   4.890  15.622   6.771  0.1485  0.1972 -0.1760
  892loPI   C3B12923   5.108  15.616   7.055  0.2133  0.1424  0.1508
  892loPI   C4B12924   5.358  15.417   7.395 -0.1315 -0.1719 -0.1305
  893loPI    C112925  13.490   8.219   4.999  0.0166  0.0624 -0.2193
  893loPI    C212926  13.660   7.858   4.966 -0.0673  0.0068 -0.0575
  893loPI    C312927  13.495   8.031   4.646 -0.2219 -0.1965 -0.0894
  893loPI   PO412928  13.388   8.213   5.235  0.3763 -0.0085 -0.3326
  893loPI   GL112929  13.247   8.341   5.622  0.2217  0.1190 -0.3477
  893loPI   GL212930  13.437   8.601   5.598  0.0018  0.0436  0.1981
  893loPI   C1A12931  13.361   8.353   6.026 -0.1026 -0.2743 -0.0655
  893loPI   C2A12932  13.274   8.449   6.359  0.0219  0.2851  0.2863
  893loPI   C3A12933  13.462   8.361   6.798 -0.4094  0.0051 -0.2239
  893loPI   C4A12934  13.408   8.309   7.236 -0.0433  0.0919 -0.0764
  893loPI   C5A12935  12.903   8.285   7.216 -0.1532  0.4220  0.1883
  893loPI   C6A12936  12.512   8.095   7.205 -0.1345 -0.1787 -0.0801
  893loPI   C1B12937  13.174   8.856   6.049 -0.0244  0.0102 -0.1036
  893loPI   C2B12938  13.086   8.882   6.592  0.2409 -0.1371  0.0183
  893loPI   C3B12939  13.170   8.713   7.003 -0.0362 -0.1260 -0.0104
  893loPI   C4B12940  13.409   8.953   7.381 -0.1000 -0.1245 -0.4362
  894loPI    C112941   4.404  16.838   5.339 -0.1277 -0.1613  0.2350
  894loPI    C212942   4.040  16.893   5.183 -0.0321  0.0657  0.0862
  894loPI    C312943   4.324  16.712   4.967  0.0335  0.1719  0.0830
  894loPI   PO412944   4.389  16.712   5.599  0.1152 -0.3658 -0.0602
  894loPI   GL112945   4.450  16.619   6.038  0.0721  0.2581 -0.0624
  894loPI   GL212946   4.078  16.608   5.967  0.1413  0.0530  0.0452
  894loPI   C1A12947   4.607  16.448   6.352 -0.0289  0.1751 -0.0288
  894loPI   C2A12948   4.904  16.670   6.603  0.1164 -0.1330 -0.1521
  894loPI   C3A12949   5.139  17.056   6.900 -0.0378 -0.3555  0.3131
  894loPI   C4A12950   5.302  17.075   7.314  0.1061 -0.0442 -0.0358
  894loPI   C5A12951   5.289  17.170   7.707 -0.0587 -0.0263  0.1673
  894loPI   C6A12952   5.541  17.143   8.077  0.1996 -0.0555 -0.1598
  894loPI   C1B12953   4.195  16.907   6.335  0.3381 -0.0700 -0.2360
  894loPI   C2B12954   3.849  16.991   6.701 -0.0583 -0.2479 -0.2776
  894loPI   C3B12955   3.777  16.665   7.038  0.0758  0.0421  0.0097
  894loPI   C4B12956   3.588  16.396   7.331  0.2358  0.0475  0.2330
  895loPI    C112957  14.545   0.263   5.266 -0.0284 -0.1881 -0.1945
  895loPI    C212958  14.857   0.132   5.052  0.1346 -0.2098  0.0524
  895loPI    C312959  14.886   0.472   5.262 -0.0055 -0.2165  0.0840
  895loPI   PO412960  14.426   0.127   5.489  0.1221  0.0795  0.0016
  895loPI   GL112961  14.273   0.108   5.775 -0.1927  0.1474  0.1943
  895loPI   GL212962  14.350   0.399   6.024  0.1733  0.0055  0.3290
  895loPI   C1A12963  14.177  -0.242   6.166 -0.0758 -0.2085 -0.0701
  895loPI   C2A12964  14.130  -0.430   6.550 -0.4348 -0.1602  0.2272
  895loPI   C3A12965  14.185  -0.325   7.030 -0.3316  0.1278 -0.0116
  895loPI   C4A12966  14.128  -0.127   7.323  0.0888  0.0628 -0.1682
  895loPI   C5A12967  14.179  -0.057   7.747 -0.0496 -0.2699 -0.0770
  895loPI   C6A12968  14.398  -0.199   8.124 -0.1123  0.2734 -0.2211
  895loPI   C1B12969  14.372   0.173   6.333 -0.2806 -0.1956 -0.1463
  895loPI   C2B12970  14.400   0.069   6.765 -0.1301 -0.2242 -0.0564
  895loPI   C3B12971  14.675   0.150   7.117 -0.0077 -0.1103 -0.0995
  895loPI   C4B12972  14.999   0.376   7.308  0.0684  0.2188  0.1594
  896loPI    C112973  10.739  13.949   5.805 -0.0574 -0.0809  0.2201
  896loPI    C212974  10.486  13.858   5.510  0.1744 -0.1710  0.0465
  896loPI    C312975  10.499  14.231   5.653  0.1327 -0.1015 -0.1277
  896loPI   PO412976  10.671  13.718   5.957 -0.1642 -0.0757 -0.0547
  896loPI   GL112977  10.705  13.626   6.427 -0.0075 -0.2803  0.2418
  896loPI   GL212978  11.019  13.435   6.520  0.0049  0.2481 -0.2496
  896loPI   C1A12979  10.629  13.852   6.853 -0.0170  0.2235  0.2475
  896loPI   C2A12980  10.390  13.722   7.210 -0.0451 -0.0267  0.1212
  896loPI   C3A12981  10.118  13.918   7.532 -0.3517 -0.1960 -0.1448
  896loPI   C4A12982  10.136  14.166   7.875  0.1302  0.0947 -0.1802
  896loPI   C5A12983  10.339  14.155   8.250 -0.1862  0.1945  0.0968
  896loPI   C6A12984  10.489  13.890   8.573  0.1868 -0.1411  0.0673
  896loPI   C1B12985  10.750  13.299   6.830 -0.0803 -0.0072 -0.0247
  896loPI   C2B12986  10.716  13.302   7.263 -0.2775  0.0123 -0.0342
  896loPI   C3B12987  10.956  13.115   7.631  0.0484 -0.0501  0.1486
  896loPI   C4B12988  11.247  13.162   8.011 -0.0579  0.0928  0.1597
  897loPI    C112989  12.892  17.633   5.869  0.2805  0.0417 -0.0201
  897loPI    C212990  12.855  17.319   6.114  0.1209  0.1258  0.0650
  897loPI    C312991  13.033  17.275   5.758  0.2414 -0.0250  0.1427
  897loPI   PO412992  13.006  17.861   5.953  0.1702 -0.0294  0.1286
  897loPI   GL112993  13.221  18.130   6.239  0.1504 -0.0630 -0.3877
  897loPI   GL212994  13.648  18.188   6.233  0.1809  0.0394 -0.1550
  897loPI   C1A12995  13.343  18.147   6.570 -0.1103 -0.2620 -0.0382
  897loPI   C2A12996  13.311  18.125   7.034  0.2440 -0.2505  0.0800
  897loPI   C3A12997  13.270  18.070   7.467  0.3565 -0.0558 -0.2156
  897loPI   C4A12998  13.148  18.116   7.882 -0.1883  0.2836 -0.1256
  897loPI   C5A12999  12.913  17.853   8.153  0.0249  0.1329  0.0584
  897loPI   C6A13000  12.606  17.581   8.317  0.4366  0.2167  0.1790
  897loPI   C1B13001  13.855  18.436   6.688 -0.1162  0.0831  0.0339
  897loPI   C2B13002  13.956  18.743   7.034  0.3909 -0.0313 -0.0444
  897loPI   C3B13003  13.697  18.950   7.324  0.0041 -0.0859  0.1404
  897loPI   C4B13004  13.268  19.134   7.415 -0.2604 -0.2232  0.1909
  898loPI    C113005   9.365   6.267   5.410  0.1809  0.2258 -0.2263
  898loPI    C213006   9.444   6.311   5.800 -0.0819 -0.2799 -0.1065
  898loPI    C313007   9.713   6.138   5.560  0.0381 -0.0601 -0.1333
  898loPI   PO413008   9.070   6.414   5.509 -0.1909  0.3308  0.0976
  898loPI   GL113009   8.712   6.231   5.842 -0.2961  0.1750  0.1726
  898loPI   GL213010   8.901   6.470   6.004  0.1115  0.1221  0.2736
  898loPI   C1A13011   8.549   6.114   6.233 -0.2043  0.0136 -0.3234
  898loPI   C2A13012   8.571   6.184   6.682 -0.1723 -0.0065 -0.1401
  898loPI   C3A13013   8.646   6.160   7.184  0.2300 -0.0327 -0.1544
  898loPI   C4A13014   8.896   6.099   7.616 -0.2448 -0.2336  0.0154
  898loPI   C5A13015   8.846   6.164   7.999  0.2173 -0.3651  0.3887
  898loPI   C6A13016   9.038   6.372   8.350  0.0377 -0.0359  0.4559
  898loPI   C1B13017   8.906   6.553   6.471  0.3313 -0.2329  0.1240
  898loPI   C2B13018   8.933   6.706   6.839 -0.0659 -0.0920 -0.0002
  898loPI   C3B13019   9.009   6.533   7.224 -0.0307  0.0422  0.1200
  898loPI   C4B13020   9.191   6.509   7.547  0.1035 -0.3131 -0.3168
  899loPI    C113021   2.041   3.094   5.365 -0.3033  0.1145  0.2415
  899loPI    C213022   1.786   2.786   5.347 -0.1368 -0.0064 -0.1941
  899loPI    C313023   1.756   3.087   5.085 -0.0760  0.1754  0.0042
  899loPI   PO413024   2.204   3.029   5.534 -0.0147 -0.0348  0.1352
  899loPI   GL113025   2.350   3.307   5.965  0.0621 -0.0987 -0.1466
  899loPI   GL213026   2.598   3.348   6.061  0.1603 -0.2138  0.2355
  899loPI   C1A13027   2.180   3.114   6.381  0.3011 -0.2346 -0.1624
  899loPI   C2A13028   2.293   3.188   6.766  0.0155  0.1916  0.0209
  899loPI   C3A13029   2.415   3.385   7.097 -0.3248 -0.1397 -0.0523
  899loPI   C4A13030   2.594   3.180   7.408  0.1154  0.2829  0.2038
  899loPI   C5A13031   2.551   3.096   7.822  0.1745  0.0123 -0.1158
  899loPI   C6A13032   2.206   3.267   8.084 -0.0031 -0.0543 -0.0669
  899loPI   C1B13033   2.729   3.224   6.453  0.0160  0.2815 -0.0471
  899loPI   C2B13034   2.779   3.103   6.902  0.2072  0.2677  0.1410
  899loPI   C3B13035   2.996   2.923   7.198  0.2402 -0.1795 -0.0241
  899loPI   C4B13036   3.008   2.699   7.479 -0.3629 -0.0127 -0.2832
  900loPI    C113037   3.889  14.822   5.111  0.1910 -0.1516  0.1855
  900loPI    C213038   3.525  14.987   5.109  0.2350 -0.0525 -0.0796
  900loPI    C313039   3.630  14.732   4.820  0.3643 -0.1091  0.0163
  900loPI   PO413040   4.079  15.029   5.205  0.1513  0.0149  0.2883
  900loPI   GL113041   4.175  14.943   5.651 -0.1185 -0.1388  0.1202
  900loPI   GL213042   4.428  15.084   5.886 -0.2887  0.0557 -0.0581
  900loPI   C1A13043   4.180  14.729   6.048 -0.0598  0.2795  0.1184
  900loPI   C2A13044   4.164  14.845   6.499 -0.1466  0.6051  0.0753
  900loPI   C3A13045   4.221  14.823   7.022 -0.2207 -0.1275 -0.0187
  900loPI   C4A13046   4.236  14.918   7.442  0.0771  0.0534 -0.0542
  900loPI   C5A13047   4.064  14.867   7.784 -0.0875 -0.1912  0.0679
  900loPI   C6A13048   4.147  14.893   8.147  0.3266 -0.0450 -0.1786
  900loPI   C1B13049   4.585  15.141   6.335  0.1342 -0.4905  0.1005
  900loPI   C2B13050   4.490  15.212   6.706  0.0031 -0.1230 -0.1264
  900loPI   C3B13051   4.419  15.326   7.173 -0.1022  0.0092 -0.0686
  900loPI   C4B13052   4.452  15.283   7.702  0.0939 -0.0220  0.2072
  901loPI    C113053   5.969   7.569   5.252 -0.1592  0.1322 -0.0865
  901loPI    C213054   6.072   7.244   5.461  0.3201  0.3378  0.0106
  901loPI    C313055   6.038   7.223   5.063  0.1190  0.1174  0.0371
  901loPI   PO413056   5.753   7.656   5.317 -0.1333  0.1264 -0.0065
  901loPI   GL113057   5.532   7.507   5.683 -0.0082  0.0482 -0.0299
  901loPI   GL213058   5.298   7.705   5.798  0.0897 -0.0582 -0.0741
  901loPI   C1A13059   5.728   7.257   6.034 -0.0749  0.1014  0.1142
  901loPI   C2A13060   6.045   7.136   6.486 -0.0685  0.2252 -0.0227
  901loPI   C3A13061   6.124   7.167   6.784 -0.3210  0.2092  0.0970
  901loPI   C4A13062   6.221   7.074   7.261 -0.0513 -0.2139 -0.2746
  901loPI   C5A13063   6.243   7.187   7.685  0.1262  0.2539 -0.0853
  901loPI   C6A13064   6.683   7.104   7.877  0.4722 -0.3402 -0.0882
  901loPI   C1B13065   5.579   7.738   6.137 -0.0533 -0.0281  0.0042
  901loPI   C2B13066   5.776   7.551   6.528 -0.1998  0.1767  0.3039
  901loPI   C3B13067   5.727   7.595   6.904 -0.0426  0.0884 -0.1491
  901loPI   C4B13068   5.826   7.339   7.192 -0.0688  0.0837  0.1127
  902loPI    C113069  11.393  13.678   5.625  0.0407  0.1603  0.1721
  902loPI    C213070  11.091  13.421   5.675 -0.0838  0.3405  0.3637
  902loPI    C313071  11.036  13.756   5.463  0.1059  0.1653  0.0284
  902loPI   PO413072  11.578  13.609   5.907  0.2555 -0.1784 -0.0305
  902loPI   GL113073  11.880  13.504   6.214  0.0396  0.3280 -0.0301
  902loPI   GL213074  12.110  13.591   6.440  0.4950 -0.2177 -0.1257
  902loPI   C1A13075  11.521  13.365   6.517  0.1683 -0.0143  0.0269
  902loPI   C2A13076  11.336  13.373   6.950 -0.2032 -0.1581 -0.2145
  902loPI   C3A13077  11.313  13.352   7.375 -0.0315 -0.0544  0.2569
  902loPI   C4A13078  11.552  13.457   7.782 -0.0813 -0.1422 -0.2276
  902loPI   C5A13079  11.487  13.571   8.209  0.2750 -0.2002  0.1209
  902loPI   C6A13080  11.739  13.674   8.538 -0.1172  0.3191 -0.0483
  902loPI   C1B13081  11.767  13.798   6.604  0.0421 -0.1804 -0.1109
  902loPI   C2B13082  11.709  13.725   7.006  0.2983 -0.1204 -0.0406
  902loPI   C3B13083  11.812  13.452   7.357 -0.2179 -0.3233 -0.0577
  902loPI   C4B13084  12.089  13.263   7.799 -0.2511  0.1837  0.2582
  903loPI    C113085  12.968  14.223   5.673 -0.0632 -0.1490 -0.0000
  903loPI    C213086  13.127  14.087   5.332  0.1386  0.1665 -0.0362
  903loPI    C313087  12.773  14.274   5.328  0.0955  0.0848 -0.0579
  903loPI   PO413088  13.080  13.934   5.906  0.3823 -0.3402 -0.2687
  903loPI   GL113089  13.210  13.774   6.308 -0.0087  0.2799  0.1230
  903loPI   GL213090  13.211  14.065   6.402 -0.2077  0.1256  0.1567
  903loPI   C1A13091  13.420  13.408   6.461  0.1385  0.2289  0.3018
  903loPI   C2A13092  13.477  13.181   6.804  0.1700 -0.0176  0.3258
  903loPI   C3A13093  13.647  13.179   7.211  0.3781  0.1351 -0.1573
  903loPI   C4A13094  13.501  13.213   7.605 -0.1268 -0.1381 -0.0607
  903loPI   C5A13095  13.366  13.104   8.049  0.0813  0.4261  0.0357
  903loPI   C6A13096  12.966  13.010   8.304  0.0812 -0.1573  0.0139
  903loPI   C1B13097  13.261  13.778   6.820  0.1555  0.1699  0.0815
  903loPI   C2B13098  13.363  13.871   7.283  0.2243  0.1449 -0.2154
  903loPI   C3B13099  13.674  14.166   7.537 -0.4378  0.1903  0.0475
  903loPI   C4B13100  14.107  14.137   7.639 -0.0513  0.3840  0.0881
  904loPI    C113101   7.174  15.525   4.986  0.0429  0.0107 -0.0553
  904loPI    C213102   7.556  15.504   4.868  0.0893  0.1098  0.0746
  904loPI    C313103   7.283  15.679   4.634  0.0966 -0.0811 -0.0793
  904loPI   PO413104   7.259  15.513   5.328 -0.1224 -0.2919  0.0651
  904loPI   GL113105   7.358  15.352   5.707 -0.1107 -0.1338  0.0579
  904loPI   GL213106   7.677  15.192   5.765  0.0742 -0.1088 -0.4150
  904loPI   C1A13107   7.152  15.550   6.048 -0.1324 -0.1675 -0.1327
  904loPI   C2A13108   7.194  15.549   6.476  0.1767 -0.3750  0.2097
  904loPI   C3A13109   7.088  15.683   6.818  0.0210 -0.2653 -0.2106
  904loPI   C4A13110   6.947  15.720   7.205 -0.1288  0.0868 -0.3904
  904loPI   C5A13111   7.062  15.552   7.550 -0.1044  0.2302 -0.1449
  904loPI   C6A13112   7.022  15.363   7.976  0.0695 -0.2014  0.1087
  904loPI   C1B13113   7.423  14.868   6.005 -0.0654  0.3167 -0.2716
  904loPI   C2B13114   7.067  14.693   6.299 -0.3623  0.0813  0.0942
  904loPI   C3B13115   6.770  14.743   6.680 -0.0290  0.2053  0.1873
  904loPI   C4B13116   6.664  14.826   7.107  0.5373 -0.0786 -0.0309
  905loPI    C113117  15.978  10.961   5.250  0.2599 -0.1139  0.0269
  905loPI    C213118  15.770  10.777   4.961  0.1466 -0.0928  0.0946
  905loPI    C313119  15.889  11.155   4.912  0.4666 -0.2129 -0.0866
  905loPI   PO413120  16.120  10.858   5.353  0.1258  0.1293  0.1434
  905loPI   GL113121  16.191  10.806   5.775 -0.0465 -0.0764  0.3141
  905loPI   GL213122  16.053  11.152   5.773 -0.0391 -0.0728 -0.1474
  905loPI   C1A13123  16.109  10.822   6.188 -0.1779 -0.4359  0.2013
  905loPI   C2A13124  16.115  11.023   6.697 -0.2058 -0.1127 -0.1031
  905loPI   C3A13125  16.211  10.887   7.092  0.0363  0.0107 -0.0917
  905loPI   C4A13126  16.074  10.865   7.458 -0.1067 -0.3464  0.1373
  905loPI   C5A13127  15.821  10.850   7.779  0.0845 -0.4332 -0.2250
  905loPI   C6A13128  15.869  10.843   8.131 -0.2516  0.0802  0.3192
  905loPI   C1B13129  16.124  11.307   6.112 -0.0881 -0.1286 -0.0489
  905loPI   C2B13130  16.089  11.503   6.489  0.1080 -0.0137 -0.0335
  905loPI   C3B13131  16.190  11.435   6.956  0.0939  0.1392  0.3015
  905loPI   C4B13132  16.196  11.357   7.406  0.0584 -0.1309 -0.4198
  906loPI    C113133  13.900   3.990   4.697 -0.0162  0.1494 -0.0845
  906loPI    C213134  14.102   4.109   4.373  0.0253 -0.1581 -0.1748
  906loPI    C313135  14.153   3.738   4.516  0.0185 -0.0211  0.1942
  906loPI   PO413136  13.930   4.261   4.870 -0.2159 -0.0979  0.1154
  906loPI   GL113137  13.855   4.438   5.330  0.3265 -0.2392  0.0253
  906loPI   GL213138  13.955   4.124   5.445  0.2844  0.2487 -0.3132
  906loPI   C1A13139  13.649   4.501   5.543  0.0841  0.2496  0.2217
  906loPI   C2A13140  13.483   4.410   5.846  0.1813  0.1811  0.1524
  906loPI   C3A13141  13.551   4.327   6.202 -0.2052  0.0446 -0.0309
  906loPI   C4A13142  13.519   4.606   6.535 -0.1511 -0.0257  0.0247
  906loPI   C5A13143  13.660   4.800   6.856  0.2185  0.1995  0.0129
  906loPI   C6A13144  13.835   5.256   6.990  0.4167 -0.1950 -0.0153
  906loPI   C1B13145  14.014   4.218   5.820  0.0903  0.0263 -0.1276
  906loPI   C2B13146  14.035   4.343   6.133  0.0009  0.2465 -0.0857
  906loPI   C3B13147  14.065   4.481   6.547  0.2802 -0.0153  0.0952
  906loPI   C4B13148  13.967   4.406   6.980  0.0568  0.1127 -0.0807
  907loPI    C113149  13.385  17.579   5.517 -0.0453 -0.2091 -0.1680
  907loPI    C213150  13.660  17.469   5.248  0.0128 -0.0074 -0.1930
  907loPI    C313151  13.478  17.823   5.215 -0.0128 -0.0002  0.0087
  907loPI   PO413152  13.509  17.489   5.795 -0.2137  0.0288 -0.1234
  907loPI   GL113153  13.313  17.598   6.207 -0.3050 -0.2283 -0.1344
  907loPI   GL213154  13.303  17.486   6.450 -0.0415 -0.2271 -0.0366
  907loPI   C1A13155  13.692  17.742   6.468 -0.0596  0.1283 -0.0604
  907loPI   C2A13156  13.746  17.918   6.892  0.2011  0.0833  0.4172
  907loPI   C3A13157  13.740  17.940   7.310 -0.1868 -0.1426  0.0713
  907loPI   C4A13158  13.663  18.010   7.775 -0.0416  0.3980  0.0494
  907loPI   C5A13159  13.608  18.346   8.101 -0.1984 -0.4030 -0.2537
  907loPI   C6A13160  13.486  18.726   8.366 -0.0111 -0.2705  0.2623
  907loPI   C1B13161  13.297  17.468   6.950 -0.2376 -0.1976 -0.4214
  907loPI   C2B13162  13.328  17.433   7.266  0.1465 -0.0653  0.0965
  907loPI   C3B13163  13.286  17.432   7.646 -0.0468 -0.0315 -0.3691
  907loPI   C4B13164  13.440  17.526   7.990  0.0553  0.1179 -0.0078
  908loPI    C113165  10.524   2.080   5.220 -0.2823  0.0303 -0.2014
  908loPI    C213166  10.485   1.918   4.856 -0.1319  0.0101 -0.2094
  908loPI    C313167  10.685   2.261   4.901  0.0165 -0.0869 -0.1208
  908loPI   PO413168  10.476   1.872   5.345  0.2883  0.1004 -0.2803
  908loPI   GL113169  10.570   1.800   5.754  0.0911 -0.0202  0.1019
  908loPI   GL213170  10.248   1.951   5.848 -0.0106 -0.1746 -0.2071
  908loPI   C1A13171  10.306   1.523   6.108  0.3613 -0.2772  0.0556
  908loPI   C2A13172  10.445   1.573   6.540 -0.0202 -0.0680  0.1578
  908loPI   C3A13173  10.435   1.741   6.978  0.1756 -0.0933 -0.0025
  908loPI   C4A13174  10.294   1.957   7.391 -0.0514  0.3861 -0.1110
  908loPI   C5A13175  10.107   2.243   7.722 -0.0752 -0.2363  0.2871
  908loPI   C6A13176   9.975   2.023   8.026  0.0488 -0.1776  0.2696
  908loPI   C1B13177  10.347   1.996   6.265 -0.0511 -0.0775  0.0187
  908loPI   C2B13178  10.366   2.124   6.708  0.0635 -0.0463 -0.0722
  908loPI   C3B13179  10.356   2.401   7.063 -0.2926 -0.0864 -0.0003
  908loPI   C4B13180  10.401   2.494   7.450 -0.0232 -0.1422  0.2089
  909loPI    C113181   9.541  11.963   5.278 -0.0811 -0.0222  0.2069
  909loPI    C213182   9.250  11.725   5.142 -0.0752 -0.0006  0.1563
  909loPI    C313183   9.295  12.093   4.991 -0.0453  0.0100  0.1906
  909loPI   PO413184   9.487  11.850   5.539  0.1585  0.0340 -0.1260
  909loPI   GL113185   9.627  11.589   5.919  0.0557 -0.0229 -0.0001
  909loPI   GL213186   9.238  11.415   5.848  0.4264 -0.0683  0.2039
  909loPI   C1A13187   9.622  11.465   6.391 -0.0910 -0.1198 -0.0073
  909loPI   C2A13188   9.613  11.497   6.806 -0.0106 -0.0384  0.1508
  909loPI   C3A13189   9.614  11.318   7.225  0.1235 -0.2609 -0.0406
  909loPI   C4A13190   9.769  10.894   7.344 -0.2112 -0.0825  0.0925
  909loPI   C5A13191   9.821  10.574   7.639  0.0024  0.0141  0.0218
  909loPI   C6A13192   9.638  10.264   7.861 -0.0881  0.0631  0.1153
  909loPI   C1B13193   8.996  11.384   6.172  0.0181  0.0415 -0.0778
  909loPI   C2B13194   9.001  11.336   6.621 -0.2563 -0.1163  0.0926
  909loPI   C3B13195   9.173  11.217   7.044  0.2123  0.0459  0.1876
  909loPI   C4B13196   9.199  11.129   7.471  0.0218  0.1503 -0.1330
  910loPI    C113197  15.344  16.992   5.728  0.0722 -0.0538 -0.0440
  910loPI    C213198  15.411  16.845   5.363 -0.1152 -0.0292 -0.0892
  910loPI    C313199  15.049  16.987   5.458 -0.0305  0.0866  0.0637
  910loPI   PO413200  15.434  16.743   5.892  0.3962 -0.3534  0.1020
  910loPI   GL113201  15.833  16.741   6.214 -0.3902  0.1117  0.0105
  910loPI   GL213202  15.863  16.544   6.283 -0.2366 -0.0140 -0.0281
  910loPI   C1A13203  15.757  17.018   6.606 -0.0908 -0.1260 -0.0358
  910loPI   C2A13204  15.762  17.328   6.876  0.2377 -0.1693  0.2790
  910loPI   C3A13205  15.780  17.487   7.291 -0.0544 -0.1689 -0.0799
  910loPI   C4A13206  15.307  17.494   7.486 -0.2131  0.0736 -0.1129
  910loPI   C5A13207  15.167  17.860   7.776 -0.2322 -0.0563  0.0886
  910loPI   C6A13208  15.354  17.873   8.244 -0.3398 -0.2429 -0.1090
  910loPI   C1B13209  15.986  16.568   6.781  0.0263  0.5507 -0.1087
  910loPI   C2B13210  16.071  16.434   7.267  0.0109  0.1379  0.1875
  910loPI   C3B13211  16.112  16.439   7.760 -0.1718  0.0295 -0.2458
  910loPI   C4B13212  16.338  16.180   7.968  0.0401  0.0019 -0.2553
  911loPI    C113213   3.517   4.521   5.310  0.0255  0.0861  0.0813
  911loPI    C213214   3.497   4.194   5.539  0.0305  0.0911  0.0888
  911loPI    C313215   3.550   4.158   5.145  0.0368  0.0830  0.0904
  911loPI   PO413216   3.663   4.702   5.392  0.1416 -0.1187  0.2257
  911loPI   GL113217   3.844   5.014   5.555  0.0418 -0.0915  0.1290
  911loPI   GL213218   3.536   5.122   5.728  0.0003  0.0657  0.0586
  911loPI   C1A13219   3.993   5.043   5.969  0.2024  0.3158 -0.2178
  911loPI   C2A13220   3.996   5.222   6.349 -0.2740 -0.4019 -0.0221
  911loPI   C3A13221   3.645   5.177   6.660 -0.1046 -0.2424 -0.1717
  911loPI   C4A13222   3.370   5.038   6.944 -0.0536  0.0800 -0.1323
  911loPI   C5A13223   3.075   5.158   7.290  0.0955 -0.0099 -0.2241
  911loPI   C6A13224   2.939   5.227   7.689 -0.1876 -0.0095 -0.1329
  911loPI   C1B13225   3.460   5.238   6.176 -0.0480 -0.1337 -0.1150
  911loPI   C2B13226   3.108   5.127   6.443  0.0234 -0.1673 -0.0546
  911loPI   C3B13227   2.844   5.079   6.779 -0.0295  0.1122 -0.0589
  911loPI   C4B13228   2.557   5.297   7.112  0.0254 -0.2355 -0.2514
  912loPI    C113229   2.624  10.238   5.432  0.0442 -0.0568  0.1257
  912loPI    C213230   2.632   9.938   5.167  0.1591  0.0229  0.0382
  912loPI    C313231   2.939  10.193   5.190 -0.0349  0.2685 -0.0429
  912loPI   PO413232   2.419  10.110   5.582 -0.1104 -0.0300 -0.0914
  912loPI   GL113233   2.526  10.019   6.005  0.1595 -0.1318  0.0089
  912loPI   GL213234   2.827  10.185   5.986 -0.0894  0.0327  0.1069
  912loPI   C1A13235   2.827   9.935   6.415 -0.3953 -0.1729  0.0974
  912loPI   C2A13236   2.996   9.907   6.850 -0.0693  0.3439  0.0738
  912loPI   C3A13237   2.920   9.879   7.269  0.0637 -0.0504 -0.2601
  912loPI   C4A13238   2.786  10.205   7.499  0.1478  0.1637  0.4040
  912loPI   C5A13239   2.713  10.585   7.785 -0.2053 -0.2233 -0.1656
  912loPI   C6A13240   2.909  10.845   8.073  0.3339  0.1844 -0.1661
  912loPI   C1B13241   2.986  10.470   6.334  0.3557  0.2341  0.2065
  912loPI   C2B13242   2.831  10.485   6.711  0.0881 -0.1217 -0.0676
  912loPI   C3B13243   2.721  10.649   7.157 -0.1044  0.2084  0.1218
  912loPI   C4B13244   2.304  10.595   7.430 -0.2271 -0.1988  0.0047
  913loPI    C113245   9.096   3.758   4.845 -0.1354 -0.2893 -0.1402
  913loPI    C213246   9.367   3.568   4.620  0.2416  0.0648  0.0024
  913loPI    C313247   9.279   3.952   4.547 -0.0812  0.0088  0.0817
  913loPI   PO413248   9.162   3.715   5.048 -0.0702  0.0032 -0.2206
  913loPI   GL113249   9.111   3.650   5.396  0.1434  0.0029 -0.1991
  913loPI   GL213250   9.152   3.392   5.514  0.0838 -0.0764  0.0342
  913loPI   C1A13251   8.894   3.868   5.621 -0.2655 -0.0103 -0.1197
  913loPI   C2A13252   8.750   4.041   6.012  0.1210 -0.0608  0.0953
  913loPI   C3A13253   8.730   4.249   6.414  0.0886 -0.2289  0.1001
  913loPI   C4A13254   8.943   4.327   6.865  0.1472  0.0537 -0.1259
  913loPI   C5A13255   8.846   4.246   7.303 -0.1406  0.1135  0.0364
  913loPI   C6A13256   9.059   4.299   7.648 -0.1712  0.1051  0.0187
  913loPI   C1B13257   9.085   3.415   5.891 -0.0086  0.0482 -0.1422
  913loPI   C2B13258   9.010   3.458   6.249  0.0646  0.1547 -0.0753
  913loPI   C3B13259   9.227   3.683   6.544 -0.2547 -0.0870  0.1995
  913loPI   C4B13260   9.257   3.940   6.898 -0.2832  0.0328  0.0769
  914loPI    C113261  12.670  17.019   5.637 -0.1938  0.2111  0.3244
  914loPI    C213262  12.367  17.077   5.383 -0.0100 -0.0140  0.0480
  914loPI    C313263  12.663  17.346   5.407 -0.1259  0.1042  0.1689
  914loPI   PO413264  12.581  16.935   5.924 -0.2626 -0.2203 -0.1181
  914loPI   GL113265  12.542  17.043   6.394  0.1776 -0.0308  0.0261
  914loPI   GL213266  12.316  17.164   6.275 -0.1031 -0.4122  0.4040
  914loPI   C1A13267  12.645  16.876   6.795 -0.0784 -0.1257 -0.4104
  914loPI   C2A13268  12.598  16.671   7.272 -0.1797 -0.1193  0.4952
  914loPI   C3A13269  12.651  16.525   7.709  0.2948 -0.1760  0.2540
  914loPI   C4A13270  12.787  16.275   8.105  0.4009 -0.1364  0.0186
  914loPI   C5A13271  12.874  16.199   8.432 -0.0991  0.0132  0.4578
  914loPI   C6A13272  12.934  16.310   8.892 -0.1233 -0.0687  0.1773
  914loPI   C1B13273  12.214  17.152   6.727  0.3103  0.0145  0.1628
  914loPI   C2B13274  12.351  17.134   7.143 -0.0769  0.0331  0.2751
  914loPI   C3B13275  12.567  17.307   7.550 -0.4317  0.1962  0.2499
  914loPI   C4B13276  12.827  17.525   7.446 -0.1339  0.0353  0.0767
  915loPI    C113277  13.969  16.989   5.811  0.2053  0.0455 -0.0188
  915loPI    C213278  14.021  17.308   5.576  0.0277 -0.0517 -0.1922
  915loPI    C313279  14.030  16.940   5.419 -0.1324 -0.1157 -0.0544
  915loPI   PO413280  13.807  17.205   6.026  0.0159  0.1816 -0.2801
  915loPI   GL113281  13.732  17.158   6.438  0.1327 -0.1856  0.1736
  915loPI   GL213282  13.626  16.828   6.461  0.1680  0.2034 -0.2931
  915loPI   C1A13283  13.798  17.322   6.811  0.3188  0.3492 -0.0592
  915loPI   C2A13284  13.877  17.358   7.201 -0.1407 -0.0577  0.1558
  915loPI   C3A13285  13.759  17.500   7.560  0.0353 -0.2583  0.2780
  915loPI   C4A13286  13.962  17.662   7.969 -0.0266 -0.0947 -0.0474
  915loPI   C5A13287  14.376  17.726   8.156 -0.1253 -0.2351  0.1328
  915loPI   C6A13288  14.781  17.979   8.062 -0.0159 -0.1231 -0.1207
  915loPI   C1B13289  13.823  16.720   6.891  0.1862 -0.0178  0.1402
  915loPI   C2B13290  13.925  16.733   7.277  0.4197 -0.1347 -0.0739
  915loPI   C3B13291  13.952  16.869   7.725  0.1175  0.0382  0.1139
  915loPI   C4B13292  13.840  17.133   8.127  0.0894 -0.2534  0.1158
  916loPI    C113293  10.050   4.410   5.244 -0.1148  0.0351  0.0846
  916loPI    C213294  10.355   4.533   5.017 -0.1059  0.0660  0.1134
  916loPI    C313295  10.016   4.745   5.029 -0.1467  0.0049  0.0426
  916loPI   PO413296  10.266   4.386   5.522 -0.0600  0.1389  0.1754
  916loPI   GL113297  10.070   4.288   5.922 -0.1239 -0.1311  0.0474
  916loPI   GL213298   9.689   4.291   6.029 -0.2174  0.2762 -0.0060
  916loPI   C1A13299  10.367   4.457   6.226 -0.3705 -0.0200  0.2758
  916loPI   C2A13300  10.322   4.458   6.659  0.0492  0.1896  0.0019
  916loPI   C3A13301  10.362   4.524   7.132 -0.1086  0.4012 -0.3497
  916loPI   C4A13302  10.595   4.588   7.492 -0.1702 -0.0747 -0.2066
  916loPI   C5A13303  10.991   4.618   7.757 -0.1972  0.2077 -0.1071
  916loPI   C6A13304  11.364   4.414   7.709 -0.0486  0.0771  0.2330
  916loPI   C1B13305   9.898   4.337   6.421 -0.1861 -0.3050 -0.3226
  916loPI   C2B13306   9.803   4.639   6.733  0.4013 -0.1145  0.3339
  916loPI   C3B13307   9.877   4.731   7.228 -0.2622  0.0582  0.3135
  916loPI   C4B13308  10.097   4.710   7.676  0.0234  0.1114  0.0912
  917loPI    C113309  17.090  14.809   5.670  0.1177 -0.1912 -0.1039
  917loPI    C213310  16.993  14.809   5.282  0.2133  0.2529 -0.1331
  917loPI    C313311  16.746  14.645   5.550 -0.0462  0.3049 -0.3370
  917loPI   PO413312  17.184  14.970   5.701  0.2618 -0.6095 -0.3733
  917loPI   GL113313  17.301  14.982   6.174  0.2704  0.2877  0.3616
  917loPI   GL213314  17.576  14.764   6.246  0.0094  0.0298 -0.1574
  917loPI   C1A13315  17.037  15.054   6.493 -0.3653 -0.3929 -0.2476
  917loPI   C2A13316  17.005  15.397   6.815  0.1019  0.0903  0.1692
  917loPI   C3A13317  16.885  15.349   7.180  0.0055  0.1572  0.1349
  917loPI   C4A13318  16.869  15.441   7.599  0.0676  0.0835 -0.0116
  917loPI   C5A13319  16.997  15.561   7.992  0.0592 -0.0567  0.0931
  917loPI   C6A13320  16.861  15.888   8.219 -0.1175  0.0562 -0.0862
  917loPI   C1B13321  17.542  14.814   6.609  0.2984 -0.0670 -0.1030
  917loPI   C2B13322  17.212  14.976   6.919 -0.3191 -0.3337 -0.3220
  917loPI   C3B13323  17.086  14.907   7.309 -0.0687 -0.0869  0.0158
  917loPI   C4B13324  16.881  14.811   7.750 -0.0151  0.0151 -0.0665
  918loPI    C113325  15.382  11.285   5.159  0.0742  0.1138 -0.0436
  918loPI    C213326  15.007  11.395   5.244  0.0303 -0.0912  0.0332
  918loPI    C313327  15.272  11.668   5.120 -0.1462  0.0530 -0.0310
  918loPI   PO413328  15.433  11.066   5.230  0.0190  0.2474  0.0429
  918loPI   GL113329  15.519  10.793   5.542 -0.2031  0.2475  0.2359
  918loPI   GL213330  15.565  10.989   5.689 -0.1958 -0.3924  0.1447
  918loPI   C1A13331  15.653  10.571   5.973  0.1637 -0.0861  0.1353
  918loPI   C2A13332  15.733  10.712   6.435 -0.1184 -0.1866 -0.0892
  918loPI   C3A13333  15.731  10.761   6.890  0.2322 -0.0247  0.0279
  918loPI   C4A13334  15.632  10.974   7.228  0.2035  0.1257 -0.0519
  918loPI   C5A13335  15.383  10.829   7.532 -0.0345 -0.1589 -0.2117
  918loPI   C6A13336  15.288  10.816   7.920  0.0863  0.1437 -0.1186
  918loPI   C1B13337  15.609  11.081   6.103  0.3474 -0.0417  0.1343
  918loPI   C2B13338  15.689  11.226   6.459  0.3566 -0.0427 -0.1977
  918loPI   C3B13339  15.655  11.362   6.860 -0.0652  0.1946 -0.3334
  918loPI   C4B13340  15.811  11.754   6.909  0.0738  0.2269  0.3865
  919loPI    C113341   1.835  12.897   5.304  0.0519  0.1430 -0.2143
  919loPI    C213342   2.061  13.115   5.057  0.2524 -0.0376 -0.1935
  919loPI    C313343   1.729  12.939   4.920  0.2366  0.0550 -0.2761
  919loPI   PO413344   2.080  12.751   5.449  0.0579 -0.3006 -0.0984
  919loPI   GL113345   2.256  12.785   5.856  0.3315 -0.2073 -0.0502
  919loPI   GL213346   2.458  12.507   6.038  0.1363 -0.0849  0.1225
  919loPI   C1A13347   2.158  12.902   6.302  0.2053  0.1263  0.2855
  919loPI   C2A13348   2.106  12.788   6.715  0.2031 -0.1433  0.2099
  919loPI   C3A13349   1.919  12.783   7.008 -0.0047 -0.0482  0.0618
  919loPI   C4A13350   1.774  12.739   7.483 -0.0378 -0.2680 -0.1503
  919loPI   C5A13351   1.332  12.795   7.770  0.0634 -0.1938 -0.0931
  919loPI   C6A13352   0.986  12.964   7.973 -0.2640  0.2176 -0.2824
  919loPI   C1B13353   2.441  12.456   6.466 -0.1460  0.2266  0.0981
  919loPI   C2B13354   2.705  12.341   6.775 -0.1871 -0.3823 -0.0485
  919loPI   C3B13355   2.975  12.386   7.095 -0.3131  0.1046  0.1447
  919loPI   C4B13356   3.069  12.428   7.518 -0.2046 -0.0552 -0.0753
  920loPI    C113357  12.952   4.336   4.870  0.0168  0.0674 -0.2449
  920loPI    C213358  12.781   4.047   4.652  0.0079 -0.0298 -0.1102
  920loPI    C313359  13.033   4.305   4.479 -0.0374 -0.0755 -0.2455
  920loPI   PO413360  12.832   4.301   5.108  0.2839  0.0441  0.0433
  920loPI   GL113361  12.800   4.043   5.443 -0.0708  0.3555  0.0279
  920loPI   GL213362  12.692   3.805   5.635  0.1916 -0.1168 -0.1624
  920loPI   C1A13363  13.056   4.034   5.792  0.1353  0.0938 -0.0273
  920loPI   C2A13364  13.154   4.026   6.175 -0.2106 -0.5721  0.2568
  920loPI   C3A13365  13.232   4.007   6.539  0.2263 -0.3043 -0.1042
  920loPI   C4A13366  13.044   3.875   7.004 -0.1618  0.3995  0.2214
  920loPI   C5A13367  12.900   3.968   7.438  0.1437  0.0809  0.0662
  920loPI   C6A13368  13.052   3.975   7.841 -0.0018 -0.1849 -0.1061
  920loPI   C1B13369  12.669   3.678   5.963  0.3520 -0.5006 -0.0394
  920loPI   C2B13370  12.777   3.710   6.417 -0.1428  0.3001 -0.0739
  920loPI   C3B13371  12.795   3.469   6.760 -0.0924  0.1721  0.0907
  920loPI   C4B13372  13.134   3.363   6.983  0.1753  0.0202 -0.0760
  921loPI    C113373   0.264  16.212   5.954 -0.0463  0.0401  0.1249
  921loPI    C213374  -0.074  16.181   5.742 -0.0720  0.0284  0.1673
  921loPI    C313375   0.266  16.021   5.602 -0.1397 -0.1871  0.2454
  921loPI   PO413376   0.104  16.353   6.161  0.0078 -0.3820 -0.0709
  921loPI   GL113377  -0.049  16.479   6.531  0.1264  0.0965  0.2440
  921loPI   GL213378  -0.038  16.797   6.492  0.1409  0.0782  0.0899
  921loPI   C1A13379  -0.024  16.384   6.918 -0.0194  0.1804  0.0807
  921loPI   C2A13380   0.022  16.211   7.399 -0.0440  0.3767 -0.1420
  921loPI   C3A13381   0.073  15.994   7.831  0.1893  0.0332 -0.0802
  921loPI   C4A13382   0.104  15.797   8.289  0.1455  0.2025  0.2136
  921loPI   C5A13383   0.390  15.506   8.521 -0.1067  0.2208 -0.0832
  921loPI   C6A13384   0.333  15.176   8.562 -0.0673 -0.0493  0.1467
  921loPI   C1B13385   0.185  16.912   6.896  0.0405  0.1259  0.1146
  921loPI   C2B13386   0.215  17.239   7.216 -0.3707  0.2353 -0.0846
  921loPI   C3B13387   0.056  17.576   7.436  0.0507  0.3016 -0.0208
  921loPI   C4B13388   0.089  17.734   7.874 -0.0943  0.0204 -0.1019
  922loPI    C113389  10.158   9.238   5.134 -0.3024 -0.1978  0.0420
  922loPI    C213390  10.421   9.158   4.843 -0.2652 -0.3790  0.1242
  922loPI    C313391  10.100   9.385   4.766 -0.1416 -0.2455 -0.0032
  922loPI   PO413392  10.175   9.075   5.281  0.0277  0.0853  0.1801
  922loPI   GL113393  10.322   8.874   5.599  0.0174  0.1154 -0.3084
  922loPI   GL213394  10.253   9.085   5.803  0.3159 -0.2326 -0.0283
  922loPI   C1A13395  10.116   8.559   5.890  0.1141  0.0515 -0.0428
  922loPI   C2A13396  10.051   8.206   6.140  0.1269 -0.2120 -0.1566
  922loPI   C3A13397  10.173   8.064   6.689 -0.0587  0.0943 -0.2084
  922loPI   C4A13398  10.094   8.296   7.078 -0.2591  0.0917 -0.2265
  922loPI   C5A13399  10.098   8.541   7.427  0.4728  0.1911 -0.3271
  922loPI   C6A13400  10.182   8.946   7.693 -0.0132  0.0498 -0.0960
  922loPI   C1B13401  10.390   8.823   6.173 -0.1499  0.0145 -0.0593
  922loPI   C2B13402  10.258   8.504   6.485 -0.1164  0.4529 -0.2104
  922loPI   C3B13403   9.798   8.433   6.702  0.1336  0.1226 -0.0577
  922loPI   C4B13404   9.401   8.309   6.894 -0.1570 -0.0993 -0.0981
  923loPI    C113405   7.184   0.739   5.152 -0.1284 -0.1803  0.2500
  923loPI    C213406   7.424   0.504   4.935  0.0123  0.1224  0.0717
  923loPI    C313407   7.033   0.420   4.963  0.0731 -0.1720  0.0727
  923loPI   PO413408   7.345   0.775   5.347  0.0404 -0.0436 -0.0807
  923loPI   GL113409   7.340   1.016   5.834  0.7669 -0.5492  0.1080
  923loPI   GL213410   7.443   0.788   5.878  0.1605  0.0312 -0.0341
  923loPI   C1A13411   7.237   0.887   6.311  0.2540 -0.0946  0.2876
  923loPI   C2A13412   6.975   0.858   6.672  0.0602 -0.1792 -0.3018
  923loPI   C3A13413   7.102   1.027   7.119  0.2794 -0.2597  0.2834
  923loPI   C4A13414   7.236   1.183   7.532  0.3768 -0.0985  0.1222
  923loPI   C5A13415   6.886   1.409   7.772  0.0589 -0.6166  0.0453
  923loPI   C6A13416   6.692   1.392   8.171 -0.3235 -0.2271  0.1827
  923loPI   C1B13417   7.154   0.476   6.077 -0.0971  0.2256 -0.4511
  923loPI   C2B13418   6.771   0.519   6.316 -0.0713  0.1332  0.2209
  923loPI   C3B13419   6.562   0.555   6.646 -0.0098  0.2389  0.0133
  923loPI   C4B13420   6.392   0.484   6.954  0.0880  0.1653  0.1607
  924loPI    C113421  17.457   6.607   5.454  0.1751 -0.0267 -0.1489
  924loPI    C213422  17.688   6.301   5.567  0.1021 -0.0189  0.0239
  924loPI    C313423  17.548   6.318   5.193  0.2958 -0.0767 -0.0525
  924loPI   PO413424  17.167   6.663   5.644  0.2040  0.2521  0.1350
  924loPI   GL113425  16.801   6.756   5.903 -0.0756  0.1708  0.1422
  924loPI   GL213426  16.947   7.101   5.872 -0.1154 -0.2756  0.2892
  924loPI   C1A13427  16.642   6.861   6.241  0.2603  0.1094 -0.0350
  924loPI   C2A13428  16.655   6.913   6.723  0.1852  0.2164  0.0983
  924loPI   C3A13429  16.798   6.806   7.082  0.3157 -0.1703 -0.1732
  924loPI   C4A13430  16.853   6.650   7.524 -0.1840 -0.1671  0.2651
  924loPI   C5A13431  17.058   6.323   7.835  0.4664 -0.0953  0.1499
  924loPI   C6A13432  17.270   5.965   7.836  0.0106 -0.2613 -0.3423
  924loPI   C1B13433  16.847   7.392   6.149  0.2190 -0.3641 -0.0491
  924loPI   C2B13434  16.984   7.447   6.475 -0.2397  0.3229 -0.0415
  924loPI   C3B13435  16.996   7.349   6.883  0.2442  0.0163  0.1541
  924loPI   C4B13436  16.986   7.314   7.133 -0.1871  0.3329 -0.1311
  925loPI    C113437   8.862   8.588   5.492 -0.0914 -0.1332 -0.0764
  925loPI    C213438   8.814   8.958   5.635 -0.0597 -0.2771  0.3181
  925loPI    C313439   8.897   8.903   5.248 -0.0596  0.1265  0.2561
  925loPI   PO413440   8.556   8.448   5.501 -0.5642 -0.0261  0.0135
  925loPI   GL113441   8.330   8.234   5.894  0.1157 -0.2220 -0.1577
  925loPI   GL213442   8.501   8.009   6.152 -0.0524 -0.0081  0.5532
  925loPI   C1A13443   7.928   8.110   6.182  0.2175  0.1432 -0.0568
  925loPI   C2A13444   7.641   8.049   6.512 -0.1806 -0.1627 -0.0616
  925loPI   C3A13445   7.646   8.091   7.003 -0.0874 -0.1105  0.0411
  925loPI   C4A13446   7.477   8.051   7.406 -0.0137  0.4754 -0.3834
  925loPI   C5A13447   7.074   7.840   7.447  0.1112  0.1646 -0.0679
  925loPI   C6A13448   6.677   7.557   7.575  0.1988 -0.0030  0.1031
  925loPI   C1B13449   8.319   7.887   6.521 -0.1328  0.2042  0.1822
  925loPI   C2B13450   8.113   8.082   6.851  0.0469  0.0856  0.1922
  925loPI   C3B13451   8.013   8.357   7.208  0.4825 -0.1641  0.2367
  925loPI   C4B13452   7.624   8.528   7.337  0.0036 -0.1976 -0.1225
  926loPI    C113453  14.261   3.813   4.972 -0.1336  0.1073 -0.1411
  926loPI    C213454  14.617   3.743   4.803 -0.0140  0.1889  0.0731
  926loPI    C313455  14.428   4.088   4.734  0.0363  0.2236  0.1077
  926loPI   PO413456  14.272   3.765   5.162  0.0232  0.2190 -0.2474
  926loPI   GL113457  14.470   3.862   5.590 -0.2342  0.2007  0.1237
  926loPI   GL213458  14.526   3.537   5.644 -0.1547 -0.0059 -0.2854
  926loPI   C1A13459  14.473   4.170   5.887 -0.0646  0.3613  0.1373
  926loPI   C2A13460  14.466   4.249   6.333 -0.0202  0.0081  0.0150
  926loPI   C3A13461  14.576   4.492   6.753 -0.0167  0.1410 -0.3503
  926loPI   C4A13462  14.394   4.571   7.198  0.0014  0.1889  0.0506
  926loPI   C5A13463  13.994   4.754   7.396 -0.0195 -0.1306 -0.0507
  926loPI   C6A13464  13.622   4.602   7.319  0.1242  0.1240  0.2062
  926loPI   C1B13465  14.932   3.690   5.688 -0.0837 -0.0973 -0.1791
  926loPI   C2B13466  15.123   3.668   6.125 -0.1090  0.0171  0.0757
  926loPI   C3B13467  15.392   3.306   6.385 -0.0120 -0.2011  0.2850
  926loPI   C4B13468  15.417   2.962   6.652 -0.2783  0.4317 -0.1274
  927loPI    C113469  16.993  17.986   5.603  0.0206  0.0463 -0.1449
  927loPI    C213470  17.361  17.832   5.571 -0.0016 -0.1169  0.3014
  927loPI    C313471  17.048  17.634   5.421  0.0913  0.0490 -0.1293
  927loPI   PO413472  17.009  18.111   5.823 -0.0077 -0.1998 -0.1712
  927loPI   GL113473  16.949  18.102   6.334 -0.1639 -0.1633 -0.1869
  927loPI   GL213474  16.641  18.060   6.167  0.0021  0.1430  0.3819
  927loPI   C1A13475  16.974  17.998   6.754 -0.1296  0.1174  0.0214
  927loPI   C2A13476  16.843  18.079   7.086 -0.1420  0.0958  0.2031
  927loPI   C3A13477  16.774  18.122   7.542  0.1491 -0.2621 -0.0941
  927loPI   C4A13478  16.675  18.430   7.965 -0.2166  0.2192  0.1706
  927loPI   C5A13479  16.482  18.674   8.291 -0.1626  0.0364  0.0188
  927loPI   C6A13480  16.033  18.754   8.338  0.0255 -0.0661  0.2437
  927loPI   C1B13481  16.517  18.194   6.600 -0.0737  0.3535 -0.0626
  927loPI   C2B13482  16.394  18.284   7.104 -0.1854 -0.1841 -0.3506
  927loPI   C3B13483  16.360  18.383   7.527  0.0032 -0.2685  0.2820
  927loPI   C4B13484  16.179  18.405   7.936 -0.0354  0.1647 -0.0717
  928loPI    C113485  10.234   0.136   5.514  0.1549 -0.1385  0.1695
  928loPI    C213486  10.430   0.275   5.195 -0.1147 -0.1879 -0.0210
  928loPI    C313487  10.074   0.099   5.149 -0.1475 -0.2117  0.3065
  928loPI   PO413488  10.400   0.255   5.740 -0.1195  0.0883 -0.2545
  928loPI   GL113489  10.770   0.282   6.103 -0.0785 -0.5334  0.3279
  928loPI   GL213490  10.927   0.023   6.186 -0.2179 -0.0257 -0.0256
  928loPI   C1A13491  10.421   0.183   6.362 -0.1018  0.2663 -0.0826
  928loPI   C2A13492  10.353   0.135   6.802 -0.0192  0.0883 -0.1741
  928loPI   C3A13493  10.160  -0.173   7.028  0.1619 -0.1920  0.1484
  928loPI   C4A13494   9.806  -0.164   7.279  0.0429 -0.0985  0.0198
  928loPI   C5A13495   9.856   0.116   7.655 -0.0299  0.0882  0.1489
  928loPI   C6A13496   9.700   0.374   7.806  0.1847 -0.2705  0.1021
  928loPI   C1B13497  10.906   0.289   6.606 -0.3429  0.2647 -0.1230
  928loPI   C2B13498  10.837   0.407   6.988  0.1324 -0.0481 -0.0187
  928loPI   C3B13499  10.587   0.269   7.271 -0.0006 -0.1332  0.1989
  928loPI   C4B13500  10.483   0.140   7.637 -0.0226 -0.3553 -0.0248
  929loPI    C113501  16.023   6.219   4.807 -0.0522  0.1167  0.1313
  929loPI    C213502  15.977   6.580   4.642 -0.1950  0.0598  0.0443
  929loPI    C313503  15.777   6.266   4.495  0.3348 -0.1644 -0.2278
  929loPI   PO413504  15.997   6.297   5.107 -0.0764  0.0359  0.1067
  929loPI   GL113505  16.255   6.271   5.458 -0.3862 -0.0659 -0.2743
  929loPI   GL213506  15.944   6.118   5.629  0.1087  0.1025  0.1718
  929loPI   C1A13507  16.257   6.527   5.821 -0.1272  0.2028  0.1590
  929loPI   C2A13508  16.296   6.482   6.375  0.1009  0.0219  0.2669
  929loPI   C3A13509  16.345   6.389   6.873  0.2834 -0.0214 -0.1377
  929loPI   C4A13510  16.384   6.445   7.327 -0.1367  0.0142  0.0679
  929loPI   C5A13511  16.181   6.595   7.606  0.1006  0.3741 -0.1883
  929loPI   C6A13512  16.140   6.547   8.051 -0.1506  0.2577 -0.0796
  929loPI   C1B13513  15.998   6.160   5.991 -0.1525 -0.0487 -0.2421
  929loPI   C2B13514  16.024   6.061   6.474  0.1096 -0.0687 -0.0981
  929loPI   C3B13515  15.799   6.335   6.757  0.0259  0.2560 -0.2392
  929loPI   C4B13516  15.796   6.504   7.214 -0.1581 -0.1975 -0.4762
  930loPI    C113517   8.795   0.249   5.023 -0.0280 -0.0873 -0.0177
  930loPI    C213518   8.844   0.028   4.693 -0.1538  0.0898 -0.1575
  930loPI    C313519   8.873   0.426   4.673  0.0446  0.0902  0.0870
  930loPI   PO413520   8.406   0.085   5.198  0.1357  0.2268  0.0814
  930loPI   GL113521   8.292   0.090   5.603 -0.1298 -0.1216  0.2380
  930loPI   GL213522   8.005  -0.001   5.616  0.1648  0.0484 -0.0577
  930loPI   C1A13523   8.458   0.119   5.954  0.2962 -0.0495 -0.4054
  930loPI   C2A13524   8.453   0.029   6.377  0.2097  0.0333 -0.3094
  930loPI   C3A13525   8.404  -0.014   6.823 -0.0944  0.2682  0.1569
  930loPI   C4A13526   8.565  -0.026   7.240 -0.0325  0.1090  0.2959
  930loPI   C5A13527   8.913   0.020   7.599  0.2857 -0.0501  0.0192
  930loPI   C6A13528   9.044   0.349   7.877  0.0951  0.1208 -0.1396
  930loPI   C1B13529   7.996  -0.133   6.085 -0.0439  0.0080 -0.1268
  930loPI   C2B13530   7.938  -0.172   6.577 -0.1314  0.1866 -0.2889
  930loPI   C3B13531   7.878   0.012   7.080 -0.1811 -0.0157 -0.2971
  930loPI   C4B13532   7.738   0.007   7.407  0.3236 -0.1097  0.2234
  931loPI    C113533   8.598   2.122   5.293  0.0256  0.1820  0.0285
  931loPI    C213534   8.341   1.910   5.514  0.0341  0.2433  0.0975
  931loPI    C313535   8.267   1.973   5.126  0.0690  0.0506  0.0590
  931loPI   PO413536   8.630   2.316   5.458  0.1010 -0.1132 -0.1554
  931loPI   GL113537   8.613   2.209   5.801  0.0584  0.0421 -0.1087
  931loPI   GL213538   8.494   2.580   5.882  0.2117  0.4409  0.0639
  931loPI   C1A13539   8.661   1.912   6.155  0.3323 -0.0389  0.0710
  931loPI   C2A13540   8.325   1.914   6.458  0.1687  0.0627  0.0480
  931loPI   C3A13541   8.184   1.878   6.874 -0.0667  0.0909 -0.0593
  931loPI   C4A13542   8.157   1.870   7.334  0.0379  0.1013  0.0426
  931loPI   C5A13543   8.107   1.805   7.701  0.2343  0.2359  0.1287
  931loPI   C6A13544   7.902   2.112   7.960  0.1388 -0.1347  0.1253
  931loPI   C1B13545   8.522   2.671   6.279 -0.1339  0.1567 -0.2643
  931loPI   C2B13546   8.843   2.707   6.685  0.2346  0.0508 -0.3349
  931loPI   C3B13547   8.957   2.420   6.962 -0.2704 -0.0964 -0.0704
  931loPI   C4B13548   9.078   2.087   7.220  0.0286  0.2502 -0.1263
  932loPI    C113549   5.356   3.415   4.821 -0.0948  0.0764 -0.2267
  932loPI    C213550   5.460   3.051   4.953 -0.0578  0.2157  0.1408
  932loPI    C313551   5.591   3.180   4.598  0.1617 -0.0191  0.1341
  932loPI   PO413552   5.330   3.601   5.089  0.1429 -0.1521  0.2563
  932loPI   GL113553   5.541   3.573   5.424 -0.2513 -0.1542 -0.0364
  932loPI   GL213554   5.585   3.861   5.501 -0.3798 -0.2656  0.1542
  932loPI   C1A13555   5.557   3.438   5.864 -0.0273 -0.2289  0.0281
  932loPI   C2A13556   5.439   3.353   6.335 -0.0116 -0.0089  0.1304
  932loPI   C3A13557   5.571   3.535   6.674  0.0512 -0.0106  0.1415
  932loPI   C4A13558   5.677   3.534   7.062 -0.2458 -0.0488 -0.0855
  932loPI   C5A13559   5.444   3.592   7.347  0.2219  0.0068 -0.0086
  932loPI   C6A13560   5.377   3.683   7.679 -0.0645  0.1148  0.1071
  932loPI   C1B13561   5.399   3.918   5.864  0.2870  0.0706  0.2274
  932loPI   C2B13562   5.024   3.897   6.165  0.2531  0.0360  0.5021
  932loPI   C3B13563   4.977   3.597   6.553  0.2037 -0.1572 -0.3667
  932loPI   C4B13564   5.097   3.605   6.981 -0.2117 -0.3209 -0.0413
  933loPI    C113565  16.082   3.656   5.002 -0.0066 -0.0630  0.0896
  933loPI    C213566  16.226   3.819   4.666  0.0043 -0.1167  0.0679
  933loPI    C313567  16.208   3.422   4.703 -0.0857 -0.1106  0.0931
  933loPI   PO413568  16.038   3.817   5.214  0.2233  0.0832 -0.2288
  933loPI   GL113569  16.012   3.878   5.651  0.0842 -0.0845 -0.1702
  933loPI   GL213570  16.274   3.848   5.827  0.1784 -0.0265 -0.0106
  933loPI   C1A13571  15.801   4.053   5.981 -0.0625 -0.6428 -0.2462
  933loPI   C2A13572  15.805   4.221   6.447  0.0087 -0.3446 -0.0796
  933loPI   C3A13573  15.549   4.194   6.939  0.1514 -0.0320 -0.2923
  933loPI   C4A13574  15.433   3.856   7.147  0.0259  0.0525  0.4906
  933loPI   C5A13575  15.450   3.610   7.408 -0.0993 -0.1146 -0.0984
  933loPI   C6A13576  15.675   3.170   7.657  0.0341 -0.2462  0.1199
  933loPI   C1B13577  16.260   3.939   6.343 -0.0142 -0.0127  0.1458
  933loPI   C2B13578  16.364   4.039   6.718 -0.2767 -0.0235  0.0218
  933loPI   C3B13579  16.792   3.966   6.883 -0.1518 -0.2020 -0.0044
  933loPI   C4B13580  17.155   3.920   7.202  0.2854 -0.0231 -0.0429
  934loPI    C113581  11.381  15.090   5.864 -0.2851 -0.0602 -0.2201
  934loPI    C213582  11.374  14.693   5.811 -0.1369 -0.0721 -0.1544
  934loPI    C313583  11.706  14.901   5.727 -0.1829  0.0251 -0.0968
  934loPI   PO413584  11.353  15.112   6.119 -0.2465  0.1129 -0.0052
  934loPI   GL113585  11.390  15.319   6.418  0.3011  0.1577 -0.2809
  934loPI   GL213586  11.695  15.446   6.465  0.0205 -0.4311 -0.1253
  934loPI   C1A13587  11.255  15.314   6.823  0.0470 -0.4310  0.0552
  934loPI   C2A13588  11.095  15.578   7.237 -0.0490  0.0914 -0.0869
  934loPI   C3A13589  10.868  15.327   7.551  0.2478  0.0282  0.1906
  934loPI   C4A13590  10.631  15.385   7.880  0.0319 -0.0065  0.1103
  934loPI   C5A13591  10.726  15.290   8.385  0.1245  0.3416 -0.0182
  934loPI   C6A13592  10.882  15.509   8.858 -0.2617 -0.2882 -0.1027
  934loPI   C1B13593  11.777  15.713   6.797 -0.1229 -0.1852 -0.2642
  934loPI   C2B13594  11.764  15.725   7.342  0.0701 -0.1827  0.0597
  934loPI   C3B13595  11.813  15.577   7.698  0.1149  0.1686  0.0932
  934loPI   C4B13596  11.658  15.591   8.118 -0.0235 -0.2308  0.1770
  935loPI    C113597   7.302   3.143   5.077  0.4575 -0.1164  0.0549
  935loPI    C213598   7.478   2.802   4.967  0.1421 -0.2146 -0.1594
  935loPI    C313599   7.205   2.971   4.729  0.2044  0.1229  0.0034
  935loPI   PO413600   7.629   3.210   5.233 -0.1678 -0.0218  0.0091
  935loPI   GL113601   7.654   3.236   5.572 -0.1270  0.0612  0.0233
  935loPI   GL213602   7.588   3.503   5.625 -0.0873 -0.2251 -0.2825
  935loPI   C1A13603   7.735   3.265   6.016 -0.2705  0.2155  0.3002
  935loPI   C2A13604   7.736   3.191   6.469  0.0527  0.0074  0.1071
  935loPI   C3A13605   7.632   3.206   6.900  0.0684  0.1731 -0.0333
  935loPI   C4A13606   7.498   3.161   7.240 -0.0884  0.3197 -0.4676
  935loPI   C5A13607   7.678   2.943   7.596  0.0039 -0.1423 -0.2524
  935loPI   C6A13608   7.583   2.519   7.747  0.2786 -0.1213  0.0708
  935loPI   C1B13609   7.171   3.389   5.825  0.0455 -0.0312  0.2409
  935loPI   C2B13610   7.083   3.375   6.205  0.1560  0.1122 -0.0957
  935loPI   C3B13611   6.779   3.389   6.527  0.0118  0.0090  0.1514
  935loPI   C4B13612   6.620   3.443   6.965 -0.0150  0.0631 -0.2391
  936loPI    C113613   7.884  16.147   5.261 -0.0678 -0.2913  0.4160
  936loPI    C213614   7.611  15.973   5.026 -0.0099 -0.1444  0.2379
  936loPI    C313615   7.991  15.848   5.018  0.0062 -0.0936  0.2013
  936loPI   PO413616   7.764  16.128   5.521 -0.2252  0.2447 -0.1068
  936loPI   GL113617   7.573  15.830   5.818  0.1900 -0.0669  0.2698
  936loPI   GL213618   7.430  16.087   5.947  0.1180  0.2556 -0.1587
  936loPI   C1A13619   7.715  15.599   6.134  0.0814 -0.1290 -0.0010
  936loPI   C2A13620   7.648  15.519   6.516  0.0572 -0.3907 -0.3666
  936loPI   C3A13621   7.635  15.489   6.972 -0.0588  0.2600  0.0442
  936loPI   C4A13622   7.465  15.406   7.330 -0.4384  0.2073 -0.2018
  936loPI   C5A13623   7.360  15.202   7.689 -0.2422  0.1665  0.0329
  936loPI   C6A13624   7.268  14.978   7.817  0.0451 -0.0317 -0.0846
  936loPI   C1B13625   7.516  15.981   6.400 -0.1910 -0.1973  0.0890
  936loPI   C2B13626   7.544  16.019   6.821  0.0403  0.0224 -0.1849
  936loPI   C3B13627   7.319  15.968   7.166  0.1646 -0.2036 -0.3449
  936loPI   C4B13628   7.442  16.023   7.595 -0.0327  0.2285 -0.2500
  937loPI    C113629   1.345  12.953   5.239 -0.1355 -0.0709 -0.1575
  937loPI    C213630   0.960  12.998   5.139 -0.1373 -0.2202 -0.2194
  937loPI    C313631   1.242  13.000   4.855 -0.0905 -0.0962 -0.1727
  937loPI   PO413632   1.370  13.042   5.543  0.0960 -0.0667 -0.0305
  937loPI   GL113633   1.757  12.839   5.811  0.1051  0.0073  0.0104
  937loPI   GL213634   1.677  13.277   5.820  0.0442 -0.0506 -0.0811
  937loPI   C1A13635   1.663  12.780   6.312  0.3427 -0.0427 -0.0121
  937loPI   C2A13636   1.561  12.519   6.753 -0.2464 -0.0585  0.0108
  937loPI   C3A13637   1.633  12.320   7.204  0.1807  0.1892 -0.3996
  937loPI   C4A13638   1.761  12.292   7.624 -0.0843  0.1715  0.0323
  937loPI   C5A13639   1.761  12.704   8.028 -0.0656  0.1927 -0.2445
  937loPI   C6A13640   1.747  12.972   8.390  0.2712 -0.0992  0.1004
  937loPI   C1B13641   1.803  13.268   6.269 -0.1409  0.1060 -0.0944
  937loPI   C2B13642   1.854  13.207   6.708  0.2296 -0.1194  0.2213
  937loPI   C3B13643   2.230  13.168   7.044  0.2399  0.2031 -0.1274
  937loPI   C4B13644   2.399  13.135   7.425  0.1886 -0.0962  0.1941
  938loPI    C113645  12.765   7.731   5.363  0.1387 -0.2690  0.1228
  938loPI    C213646  13.008   7.419   5.301  0.0577 -0.2911 -0.0899
  938loPI    C313647  12.724   7.508   5.033  0.0421 -0.0695 -0.0016
  938loPI   PO413648  12.975   7.862   5.555  0.2050  0.0786 -0.0532
  938loPI   GL113649  12.951   8.003   5.956  0.0429 -0.0249 -0.0484
  938loPI   GL213650  12.863   7.911   6.281  0.0404 -0.0236 -0.1588
  938loPI   C1A13651  13.322   7.858   6.298 -0.1688 -0.1057 -0.1856
  938loPI   C2A13652  13.509   7.911   6.627  0.2773 -0.2480 -0.0722
  938loPI   C3A13653  13.410   7.848   6.977  0.1377 -0.2135  0.1036
  938loPI   C4A13654  13.196   7.891   7.384 -0.2786  0.0915 -0.0560
  938loPI   C5A13655  12.765   7.843   7.528  0.3149 -0.1484  0.0236
  938loPI   C6A13656  12.546   7.786   7.922  0.0569 -0.0597  0.3113
  938loPI   C1B13657  12.586   7.618   6.446  0.1238 -0.0648 -0.0992
  938loPI   C2B13658  12.528   7.568   6.813  0.1349  0.1859 -0.1888
  938loPI   C3B13659  12.443   7.504   7.121 -0.1034 -0.1414  0.2940
  938loPI   C4B13660  12.388   7.523   7.582  0.0687  0.2348 -0.0378
  939loPI    C113661   6.458  10.869   5.290  0.0053  0.0632 -0.1579
  939loPI    C213662   6.089  10.900   5.140 -0.0151  0.0233 -0.1161
  939loPI    C313663   6.406  10.943   4.900 -0.0464  0.0936 -0.1452
  939loPI   PO413664   6.536  10.963   5.450 -0.3182  0.2031 -0.1556
  939loPI   GL113665   6.695  11.058   5.937  0.0263 -0.1631  0.0439
  939loPI   GL213666   6.722  11.120   6.240  0.0684  0.3396  0.1339
  939loPI   C1A13667   6.579  11.587   6.124  0.0472 -0.0444  0.2105
  939loPI   C2A13668   6.700  11.696   6.624 -0.3824  0.1385  0.3463
  939loPI   C3A13669   6.676  11.832   7.125  0.5056  0.2541 -0.2023
  939loPI   C4A13670   6.431  11.840   7.538 -0.0572 -0.1350  0.1055
  939loPI   C5A13671   5.959  11.671   7.533 -0.1434  0.0589 -0.2492
  939loPI   C6A13672   5.712  11.936   7.628  0.1363 -0.1625 -0.0724
  939loPI   C1B13673   6.948  11.201   6.567  0.4828  0.1243 -0.1509
  939loPI   C2B13674   6.834  11.142   7.022 -0.1437  0.0154  0.0415
  939loPI   C3B13675   6.809  10.915   7.464  0.0891  0.3899  0.1311
  939loPI   C4B13676   7.092  11.016   7.886 -0.3200  0.3067  0.0378
  940loPI    C113677  11.211  18.244   5.612  0.0876  0.0720  0.1103
  940loPI    C213678  11.126  17.909   5.814 -0.1323  0.0958  0.0593
  940loPI    C313679  11.045  17.933   5.423  0.4047  0.0056 -0.0644
  940loPI   PO413680  11.244  18.417   5.826  0.0958  0.0869  0.1140
  940loPI   GL113681  11.406  18.528   6.245 -0.1962  0.2343  0.0173
  940loPI   GL213682  11.343  18.116   6.274 -0.3524 -0.0624  0.0200
  940loPI   C1A13683  11.422  18.819   6.551  0.1224  0.0104 -0.4317
  940loPI   C2A13684  11.515  19.163   6.769 -0.1379 -0.1733  0.1702
  940loPI   C3A13685  11.322  19.007   7.207 -0.1710 -0.2811 -0.1219
  940loPI   C4A13686  11.503  18.814   7.662 -0.0209  0.1220  0.3221
  940loPI   C5A13687  11.855  18.543   7.896  0.1692 -0.1291 -0.0724
  940loPI   C6A13688  11.901  18.408   8.388 -0.1744  0.1453  0.1825
  940loPI   C1B13689  11.169  18.341   6.631 -0.4867  0.0689  0.0912
  940loPI   C2B13690  11.170  18.556   6.919 -0.1826  0.0953 -0.1651
  940loPI   C3B13691  11.202  18.555   7.305 -0.0956 -0.0457 -0.0544
  940loPI   C4B13692  10.991  18.729   7.603 -0.2064  0.0389  0.0545
  941loPI    C113693   6.675  16.407   5.052  0.0274 -0.1614  0.0342
  941loPI    C213694   6.967  16.600   4.859 -0.1771  0.0567 -0.0619
  941loPI    C313695   6.604  16.765   4.889 -0.2987 -0.2224  0.0351
  941loPI   PO413696   6.773  16.339   5.283 -0.1300 -0.2087 -0.0410
  941loPI   GL113697   7.063  16.522   5.633 -0.2975 -0.3241  0.0361
  941loPI   GL213698   7.476  16.635   5.758  0.0657 -0.0194 -0.0409
  941loPI   C1A13699   7.067  16.482   6.031 -0.1742 -0.0510 -0.0932
  941loPI   C2A13700   7.353  16.502   6.363 -0.1405 -0.0369 -0.1764
  941loPI   C3A13701   7.530  16.598   6.716  0.0182 -0.0227  0.4748
  941loPI   C4A13702   7.393  16.573   7.112 -0.2224  0.1621  0.0900
  941loPI   C5A13703   7.361  16.900   7.524 -0.0530  0.0537  0.2791
  941loPI   C6A13704   7.495  17.269   7.749 -0.2218  0.0991 -0.0877
  941loPI   C1B13705   7.769  16.356   6.113  0.2527 -0.0828  0.2295
  941loPI   C2B13706   7.910  16.354   6.529 -0.1621 -0.2637 -0.1411
  941loPI   C3B13707   7.865  16.422   7.019  0.0720  0.1725 -0.3831
  941loPI   C4B13708   7.684  16.439   7.480 -0.0202  0.3892  0.2044
  942loPI    C113709  14.929  12.721   5.435  0.1812 -0.0732 -0.0501
  942loPI    C213710  14.630  12.584   5.208  0.1201 -0.1283  0.0623
  942loPI    C313711  14.785  12.946   5.137 -0.1071 -0.0165  0.1278
  942loPI   PO413712  15.009  12.540   5.517 -0.1311 -0.0110  0.4622
  942loPI   GL113713  14.763  12.304   5.902 -0.1114 -0.1263 -0.2582
  942loPI   GL213714  14.859  12.681   6.000 -0.0686  0.1256  0.1995
  942loPI   C1A13715  14.818  11.881   6.244  0.0983  0.2320  0.1194
  942loPI   C2A13716  14.549  11.537   6.480  0.0140  0.0003 -0.2117
  942loPI   C3A13717  14.266  11.396   6.785  0.0520  0.1206 -0.0954
  942loPI   C4A13718  14.145  11.243   7.139  0.0347  0.3589 -0.2076
  942loPI   C5A13719  14.103  10.917   7.379 -0.0585  0.3785 -0.0595
  942loPI   C6A13720  14.409  10.680   7.514  0.1033 -0.1377  0.0419
  942loPI   C1B13721  14.752  12.446   6.397  0.1361  0.0453  0.3526
  942loPI   C2B13722  14.679  12.337   6.848  0.2541  0.0801  0.0818
  942loPI   C3B13723  14.465  12.190   7.188 -0.1600  0.0553  0.2147
  942loPI   C4B13724  14.555  12.354   7.635  0.0591 -0.2726  0.2233
  943loPI    C113725   4.482   9.045   5.227 -0.0879 -0.1242  0.0108
  943loPI    C213726   4.327   8.784   4.967  0.0967 -0.0888 -0.1369
  943loPI    C313727   4.404   9.160   4.852 -0.1063  0.0145  0.0563
  943loPI   PO413728   4.300   8.994   5.492  0.0259  0.2809  0.2041
  943loPI   GL113729   3.944   8.981   5.673  0.0734 -0.2089 -0.3113
  943loPI   GL213730   3.761   9.252   5.738 -0.5377 -0.2416 -0.3875
  943loPI   C1A13731   4.161   9.006   6.103  0.0821 -0.3093 -0.4637
  943loPI   C2A13732   4.082   8.826   6.520 -0.2806 -0.0668 -0.1159
  943loPI   C3A13733   4.234   8.825   6.815 -0.0812 -0.1448 -0.0575
  943loPI   C4A13734   4.252   8.556   7.084  0.0218  0.0280 -0.0604
  943loPI   C5A13735   4.285   8.263   7.458  0.0707 -0.1533 -0.1248
  943loPI   C6A13736   3.991   8.175   7.781 -0.0604 -0.2550  0.0094
  943loPI   C1B13737   3.712   9.261   6.055  0.4397  0.1045 -0.3257
  943loPI   C2B13738   3.771   9.299   6.531 -0.0678 -0.1644  0.2872
  943loPI   C3B13739   3.812   9.209   6.945 -0.2114  0.0695 -0.1167
  943loPI   C4B13740   3.876   9.074   7.389 -0.0837  0.0297 -0.2696
  944loPI    C113741  16.746  16.750   5.426 -0.0918 -0.0044  0.1380
  944loPI    C213742  16.504  16.456   5.306 -0.1379  0.1064 -0.0443
  944loPI    C313743  16.857  16.510   5.126 -0.2020  0.2662 -0.1240
  944loPI   PO413744  16.711  16.760   5.714 -0.0324  0.2218 -0.2931
  944loPI   GL113745  16.635  16.795   6.065  0.2825 -0.0305 -0.3065
  944loPI   GL213746  16.362  16.767   6.154 -0.0166  0.0111 -0.1012
  944loPI   C1A13747  16.678  16.619   6.474  0.3661 -0.2801  0.1936
  944loPI   C2A13748  16.625  16.659   6.924  0.0589  0.1004 -0.0107
  944loPI   C3A13749  16.507  16.815   7.263  0.0973  0.3678 -0.0293
  944loPI   C4A13750  16.355  16.877   7.724  0.3603  0.0038 -0.1916
  944loPI   C5A13751  16.623  16.684   8.068 -0.3404 -0.3538 -0.2818
  944loPI   C6A13752  16.711  16.312   8.327  0.1829  0.1180  0.0237
  944loPI   C1B13753  16.265  16.909   6.523  0.0376 -0.2396 -0.1613
  944loPI   C2B13754  16.213  16.984   6.932 -0.3095 -0.0006  0.2810
  944loPI   C3B13755  15.904  16.996   7.191  0.3985 -0.0894 -0.2867
  944loPI   C4B13756  15.854  17.034   7.663  0.0458 -0.0128 -0.1037
  945loPI    C113757  15.891   7.192   5.202  0.3165  0.0873 -0.1476
  945loPI    C213758  15.644   7.494   5.290 -0.0388 -0.2691  0.1106
  945loPI    C313759  15.631   7.324   4.928  0.1404 -0.0008 -0.0247
  945loPI   PO413760  16.003   7.151   5.394 -0.0207  0.0490 -0.1013
  945loPI   GL113761  15.630   7.098   5.630 -0.0122 -0.0361 -0.1315
  945loPI   GL213762  15.664   7.381   5.751 -0.3004  0.2402  0.2436
  945loPI   C1A13763  15.624   6.925   5.959  0.0713 -0.1793  0.1140
  945loPI   C2A13764  16.025   6.912   6.324  0.2660  0.2234  0.2130
  945loPI   C3A13765  16.201   6.897   6.654  0.0202  0.1742 -0.1803
  945loPI   C4A13766  16.173   6.795   7.134  0.1897 -0.3638  0.2838
  945loPI   C5A13767  16.464   6.999   7.404  0.0910  0.0987 -0.2967
  945loPI   C6A13768  16.765   7.183   7.590 -0.6186 -0.0977 -0.0482
  945loPI   C1B13769  15.917   7.370   6.082 -0.0217 -0.1672  0.1879
  945loPI   C2B13770  16.118   7.647   6.398  0.2606  0.1311 -0.0576
  945loPI   C3B13771  16.193   7.756   6.873  0.0588 -0.0640 -0.0818
  945loPI   C4B13772  16.238   7.889   7.231  0.5751  0.0299  0.0061
  946loPI    C113773   3.418   3.328   5.041  0.1667  0.2466 -0.0610
  946loPI    C213774   3.296   3.014   4.826  0.0066  0.0875  0.2562
  946loPI    C313775   3.660   3.167   4.766 -0.0177  0.0168 -0.0917
  946loPI   PO413776   3.396   3.219   5.328 -0.1589 -0.1331 -0.1824
  946loPI   GL113777   3.089   3.311   5.632  0.0238 -0.1781  0.2616
  946loPI   GL213778   3.282   3.575   5.705  0.1405  0.0973 -0.1105
  946loPI   C1A13779   3.199   3.198   6.091 -0.0439  0.2070 -0.3789
  946loPI   C2A13780   3.233   3.207   6.536  0.0496 -0.1102  0.0921
  946loPI   C3A13781   3.260   3.287   6.909 -0.1541  0.3006 -0.0777
  946loPI   C4A13782   3.326   3.317   7.333  0.2825  0.0297 -0.0640
  946loPI   C5A13783   3.509   3.052   7.594 -0.0746  0.2046  0.2135
  946loPI   C6A13784   3.745   2.767   7.929  0.0355  0.1721 -0.0666
  946loPI   C1B13785   3.267   3.921   6.100 -0.1107  0.1386  0.2843
  946loPI   C2B13786   3.553   4.225   6.300  0.2582  0.0628  0.0950
  946loPI   C3B13787   3.683   4.267   6.726 -0.2057 -0.1945 -0.3302
  946loPI   C4B13788   3.565   4.441   7.182 -0.1397 -0.0832  0.1977
  947loPI    C113789  17.151  14.005   5.649  0.2317  0.1417 -0.0167
  947loPI    C213790  17.382  13.989   5.322  0.2290  0.1327 -0.0179
  947loPI    C313791  17.531  13.883   5.678  0.1327 -0.1886 -0.0706
  947loPI   PO413792  17.026  14.241   5.582 -0.5136 -0.0964 -0.0749
  947loPI   GL113793  16.597  14.458   5.970 -0.0564  0.1468  0.0168
  947loPI   GL213794  16.780  14.155   6.044 -0.0888 -0.0773  0.0293
  947loPI   C1A13795  16.700  14.629   6.423 -0.2468  0.1165  0.0598
  947loPI   C2A13796  17.087  14.559   6.647  0.2028  0.2447 -0.0448
  947loPI   C3A13797  17.279  14.437   6.984  0.1485  0.0634  0.4174
  947loPI   C4A13798  17.148  14.398   7.414 -0.0001 -0.0414  0.0746
  947loPI   C5A13799  16.986  14.151   7.602 -0.2855 -0.2138  0.0397
  947loPI   C6A13800  16.764  13.954   7.907 -0.1318  0.1193 -0.1001
  947loPI   C1B13801  16.770  14.126   6.534  0.0079  0.0034  0.0999
  947loPI   C2B13802  16.890  14.140   6.914 -0.1612  0.0604 -0.0465
  947loPI   C3B13803  17.025  13.875   7.241  0.0372 -0.1061 -0.1697
  947loPI   C4B13804  16.901  13.569   7.555 -0.0456 -0.0031  0.0398
  948loPI    C113805   7.546   0.326   5.437 -0.1890  0.0873  0.0342
  948loPI    C213806   7.447  -0.041   5.562  0.1502 -0.0881 -0.1967
  948loPI    C313807   7.441   0.047   5.171  0.0923  0.1474 -0.1447
  948loPI   PO413808   7.678   0.446   5.590  0.1455 -0.1164 -0.0271
  948loPI   GL113809   7.998   0.344   5.985 -0.0358  0.1873  0.1608
  948loPI   GL213810   7.706   0.348   6.071  0.1442  0.4251  0.3652
  948loPI   C1A13811   8.007   0.372   6.447 -0.0486 -0.1001  0.1102
  948loPI   C2A13812   8.004   0.417   6.839  0.2016 -0.1897  0.3051
  948loPI   C3A13813   7.993   0.737   7.204  0.0701  0.1334 -0.3084
  948loPI   C4A13814   8.294   0.825   7.599  0.2648 -0.6057  0.0261
  948loPI   C5A13815   8.143   0.850   8.053 -0.1085 -0.0664  0.0032
  948loPI   C6A13816   8.019   0.890   8.415 -0.0688 -0.2175 -0.2707
  948loPI   C1B13817   7.576   0.546   6.481 -0.0906 -0.0037  0.2172
  948loPI   C2B13818   7.460   0.676   6.845 -0.1682 -0.0274 -0.0806
  948loPI   C3B13819   7.491   0.678   7.356 -0.3509  0.0509 -0.1118
  948loPI   C4B13820   7.251   0.755   7.776  0.0029 -0.0444  0.1641
  949loPI    C113821   8.684  11.480   5.208 -0.2334 -0.0195  0.0530
  949loPI    C213822   8.927  11.373   4.909  0.0433  0.0153  0.2621
  949loPI    C313823   8.648  11.118   5.041 -0.0889  0.0041 -0.0310
  949loPI   PO413824   8.864  11.502   5.386  0.1294  0.2008  0.2944
  949loPI   GL113825   8.757  11.536   5.781 -0.1959 -0.0432 -0.0572
  949loPI   GL213826   8.467  11.676   5.973 -0.1405 -0.2003  0.0375
  949loPI   C1A13827   8.977  11.832   6.017  0.1661 -0.1995 -0.0357
  949loPI   C2A13828   9.126  11.785   6.462 -0.0404  0.2851  0.2133
  949loPI   C3A13829   9.164  11.761   6.895 -0.2461 -0.0589  0.1038
  949loPI   C4A13830   9.204  11.613   7.303  0.0083 -0.0413  0.1930
  949loPI   C5A13831   9.224  11.618   7.692 -0.2346 -0.0084  0.2475
  949loPI   C6A13832   9.507  11.431   7.906 -0.0540  0.1926  0.0397
  949loPI   C1B13833   8.205  11.856   6.391  0.0669  0.0470 -0.4264
  949loPI   C2B13834   8.150  11.953   6.916 -0.0328  0.1445  0.2010
  949loPI   C3B13835   7.970  12.178   7.269 -0.0163  0.1869  0.1749
  949loPI   C4B13836   8.208  12.572   7.667 -0.0500  0.0564 -0.0510
  950loPI    C113837  14.108  10.819   4.855  0.0972 -0.0495 -0.1818
  950loPI    C213838  14.205  11.200   4.927  0.0311 -0.0912  0.1469
  950loPI    C313839  14.427  10.981   4.676  0.2437  0.0773  0.1845
  950loPI   PO413840  14.020  10.706   5.164 -0.0472 -0.1737 -0.0948
  950loPI   GL113841  13.973  10.806   5.625 -0.0339  0.3816  0.0361
  950loPI   GL213842  13.714  10.779   5.678 -0.0077  0.0720 -0.3089
  950loPI   C1A13843  14.198  10.436   5.930  0.2108 -0.1582  0.1076
  950loPI   C2A13844  14.101   9.998   6.015  0.1386 -0.3251 -0.1293
  950loPI   C3A13845  14.058   9.821   6.438  0.1157 -0.0972  0.4004
  950loPI   C4A13846  13.836   9.607   6.826 -0.1922 -0.1775 -0.1534
  950loPI   C5A13847  14.027   9.263   7.006 -0.3430  0.3288  0.3020
  950loPI   C6A13848  13.935   9.032   7.313  0.0462 -0.1026  0.0119
  950loPI   C1B13849  13.679  10.409   5.889 -0.3009  0.1474  0.0007
  950loPI   C2B13850  13.673  10.176   6.219 -0.2484  0.0771  0.3306
  950loPI   C3B13851  13.636  10.103   6.657 -0.2199  0.2302 -0.1423
  950loPI   C4B13852  13.600   9.972   7.142  0.4068  0.1147  0.0898
  951loPI    C113853  12.416   6.302   5.217 -0.2613  0.4044 -0.0469
  951loPI    C213854  12.379   5.922   5.098  0.1828  0.2918  0.1541
  951loPI    C313855  12.337   6.219   4.834  0.3825  0.0792 -0.1236
  951loPI   PO413856  12.642   6.222   5.382  0.0920  0.0366  0.1497
  951loPI   GL113857  12.687   6.321   5.755 -0.1825  0.2360  0.1869
  951loPI   GL213858  12.592   6.339   6.026 -0.4100  0.2329 -0.0911
  951loPI   C1A13859  12.867   5.906   5.911  0.1530 -0.3927 -0.0728
  951loPI   C2A13860  13.102   5.724   6.287 -0.0226  0.1932 -0.2580
  951loPI   C3A13861  13.411   5.639   6.457  0.0197 -0.0017 -0.1152
  951loPI   C4A13862  13.366   5.460   6.836  0.1261  0.1328  0.0908
  951loPI   C5A13863  13.008   5.401   7.137  0.0069 -0.0582 -0.1320
  951loPI   C6A13864  12.745   5.608   7.409  0.4262  0.1048  0.0376
  951loPI   C1B13865  12.794   6.118   6.355  0.2639 -0.0253 -0.2835
  951loPI   C2B13866  13.051   6.064   6.660  0.4457  0.1907  0.2701
  951loPI   C3B13867  13.224   5.916   6.968 -0.1062  0.2334  0.1393
  951loPI   C4B13868  13.294   6.049   7.407 -0.0407 -0.0407 -0.0808
  952loPI    C113869  12.008   1.556   5.329  0.2235  0.0481 -0.2165
  952loPI    C213870  11.749   1.293   5.174 -0.0576  0.1027  0.1462
  952loPI    C313871  11.760   1.668   5.035  0.1256 -0.0113 -0.1572
  952loPI   PO413872  11.927   1.582   5.556 -0.0759  0.0315 -0.0211
  952loPI   GL113873  11.837   1.771   5.919 -0.3343  0.2303 -0.2134
  952loPI   GL213874  11.754   2.068   5.834  0.1576  0.1903 -0.0553
  952loPI   C1A13875  11.685   1.941   6.355  0.1181  0.0398 -0.1301
  952loPI   C2A13876  11.713   1.994   6.855 -0.1902 -0.4400 -0.0105
  952loPI   C3A13877  11.979   1.927   7.180  0.1920  0.2315  0.0787
  952loPI   C4A13878  11.947   2.132   7.531 -0.1397 -0.0660  0.3336
  952loPI   C5A13879  11.618   2.169   7.780  0.2815  0.3861 -0.2317
  952loPI   C6A13880  11.170   2.119   7.689 -0.2635  0.2109 -0.3791
  952loPI   C1B13881  11.340   2.196   6.065 -0.0510  0.0814 -0.0672
  952loPI   C2B13882  11.220   2.142   6.456  0.0041 -0.0063 -0.0547
  952loPI   C3B13883  11.300   2.220   6.988 -0.0339 -0.2298  0.1704
  952loPI   C4B13884  11.493   2.186   7.313 -0.0222  0.1178 -0.2440
  953loPI    C113885   4.113  17.370   5.385 -0.1136 -0.1593  0.1514
  953loPI    C213886   4.512  17.391   5.405 -0.1035 -0.3492  0.1687
  953loPI    C313887   4.334  17.278   5.065 -0.1450 -0.2301  0.1500
  953loPI   PO413888   4.085  17.461   5.631 -0.0593 -0.0760  0.0109
  953loPI   GL113889   4.084  17.389   6.013 -0.1675  0.0107 -0.4232
  953loPI   GL213890   3.892  17.514   6.183  0.3268  0.1426 -0.5366
  953loPI   C1A13891   4.399  17.492   6.305 -0.0732  0.0916 -0.0959
  953loPI   C2A13892   4.570  17.556   6.838 -0.2340  0.0008  0.0207
  953loPI   C3A13893   4.556  17.680   7.199 -0.0070  0.0136  0.2004
  953loPI   C4A13894   4.285  17.923   7.416 -0.0363 -0.1354 -0.0577
  953loPI   C5A13895   4.158  18.318   7.564 -0.0530 -0.0011 -0.2117
  953loPI   C6A13896   4.014  18.573   7.849  0.0586  0.1095  0.1639
  953loPI   C1B13897   3.900  17.538   6.650  0.2174 -0.1608 -0.2702
  953loPI   C2B13898   4.195  17.286   7.068  0.0875  0.1578  0.3421
  953loPI   C3B13899   4.364  17.278   7.532  0.1026  0.1794  0.0502
  953loPI   C4B13900   4.635  17.202   7.890 -0.1018  0.1976 -0.1875
  954loPI    C113901  18.380  11.157   5.435 -0.0836  0.0741 -0.0451
  954loPI    C213902  18.326  10.899   5.134 -0.1253 -0.0860  0.0980
  954loPI    C313903  18.580  11.205   5.092 -0.2318 -0.0290 -0.1472
  954loPI   PO413904  18.144  11.323   5.480 -0.0718 -0.3243  0.0494
  954loPI   GL113905  18.021  11.533   5.805  0.3157  0.2456  0.0544
  954loPI   GL213906  18.334  11.585   5.836 -0.0276  0.0679 -0.1074
  954loPI   C1A13907  17.923  11.707   6.234  0.1701 -0.2478  0.0912
  954loPI   C2A13908  17.846  11.753   6.689  0.0186 -0.1228  0.0726
  954loPI   C3A13909  17.869  11.691   7.142  0.1525 -0.0010 -0.1065
  954loPI   C4A13910  17.922  11.469   7.549  0.1070 -0.2230  0.1491
  954loPI   C5A13911  18.108  11.157   7.729 -0.4614 -0.2013  0.3026
  954loPI   C6A13912  18.121  10.746   7.899  0.0736  0.0098 -0.0570
  954loPI   C1B13913  18.362  11.357   6.253  0.0438 -0.0692 -0.2139
  954loPI   C2B13914  18.464  11.124   6.467 -0.0091  0.3560  0.0954
  954loPI   C3B13915  18.536  11.124   6.864  0.0444 -0.1541  0.1751
  954loPI   C4B13916  18.546  11.046   7.217  0.0302 -0.1939  0.3355
  955loPI    C113917   0.340  10.813   5.368  0.0321 -0.1730  0.2791
  955loPI    C213918   0.503  10.487   5.204 -0.1003 -0.1277  0.0527
  955loPI    C313919   0.329  10.761   4.972  0.2432  0.2375  0.2140
  955loPI   PO413920   0.209  10.766   5.505 -0.1497 -0.0090 -0.5846
  955loPI   GL113921   0.293  10.811   5.954 -0.0135 -0.2099 -0.1884
  955loPI   GL213922  -0.002  11.040   5.877 -0.0445  0.1736  0.2431
  955loPI   C1A13923   0.094  10.640   6.330 -0.1130  0.1464 -0.0496
  955loPI   C2A13924   0.061  10.660   6.770 -0.0041 -0.0888  0.1234
  955loPI   C3A13925   0.041  10.569   7.154 -0.0579 -0.1411 -0.2731
  955loPI   C4A13926   0.250  10.396   7.356 -0.3216 -0.1854  0.0200
  955loPI   C5A13927   0.261  10.169   7.728  0.1439 -0.0318  0.0360
  955loPI   C6A13928   0.560   9.849   7.813 -0.0154 -0.2921 -0.1106
  955loPI   C1B13929  -0.334  10.862   6.174  0.1753  0.0133  0.2363
  955loPI   C2B13930  -0.457  10.789   6.533  0.0016 -0.0102  0.0136
  955loPI   C3B13931  -0.401  10.611   6.931  0.2003  0.3440 -0.0709
  955loPI   C4B13932  -0.544  10.349   7.154 -0.0881  0.0195  0.1374
  956loPI    C113933  10.371   7.418   5.737 -0.0602  0.3333 -0.1407
  956loPI    C213934  10.364   7.290   5.358 -0.1574  0.1193 -0.0684
  956loPI    C313935  10.641   7.150   5.612 -0.1518  0.1901 -0.0353
  956loPI   PO413936  10.134   7.349   5.863 -0.3528  0.0438 -0.0852
  956loPI   GL113937  10.115   7.521   6.262 -0.1030  0.0132 -0.1806
  956loPI   GL213938  10.438   7.641   6.201 -0.0606 -0.2352 -0.3317
  956loPI   C1A13939  10.186   7.489   6.759  0.6560 -0.0412 -0.0314
  956loPI   C2A13940  10.074   7.581   7.127  0.0371  0.0298 -0.2056
  956loPI   C3A13941   9.873   7.657   7.519 -0.4035  0.0340 -0.2096
  956loPI   C4A13942   9.587   7.920   7.687  0.1819  0.1742 -0.0100
  956loPI   C5A13943   9.212   7.679   7.853  0.1086 -0.2557  0.0346
  956loPI   C6A13944   8.767   7.735   7.686 -0.2795  0.1353  0.0535
  956loPI   C1B13945  10.507   7.728   6.526 -0.4090 -0.0022  0.0874
  956loPI   C2B13946  10.588   7.814   6.973  0.2376 -0.2097  0.0016
  956loPI   C3B13947  10.901   7.968   7.285 -0.2154  0.3466  0.2263
  956loPI   C4B13948  11.308   7.929   7.486  0.2483 -0.0366  0.0593
  957loPI    C113949  10.406   3.692   5.158  0.0574  0.1584  0.0097
  957loPI    C213950  10.120   3.954   5.062 -0.0642  0.0427  0.0542
  957loPI    C313951  10.041   3.562   5.062  0.0563  0.0177  0.1986
  957loPI   PO413952  10.560   3.804   5.324 -0.1078 -0.0220  0.2900
  957loPI   GL113953  10.503   3.937   5.725  0.3003  0.1538 -0.4602
  957loPI   GL213954  10.231   3.776   5.845  0.1929  0.1403 -0.2486
  957loPI   C1A13955  10.604   4.064   6.128 -0.0520  0.1639 -0.0232
  957loPI   C2A13956  10.635   4.030   6.591  0.0863 -0.1890  0.1523
  957loPI   C3A13957  10.666   4.108   7.092 -0.1932  0.0607  0.2819
  957loPI   C4A13958  10.592   4.008   7.512  0.2335 -0.2625  0.0409
  957loPI   C5A13959  10.527   3.848   7.953  0.3208 -0.2499  0.2610
  957loPI   C6A13960  10.161   3.826   7.924  0.1333 -0.0971 -0.0198
  957loPI   C1B13961  10.175   3.882   6.285  0.0618  0.1307 -0.1242
  957loPI   C2B13962  10.192   3.911   6.696  0.3398  0.1059 -0.2037
  957loPI   C3B13963  10.164   4.069   7.158 -0.1191  0.1426 -0.1797
  957loPI   C4B13964  10.132   4.243   7.487 -0.0672  0.1755 -0.1110
  958loPI    C113965   5.068   2.455   5.487 -0.1864 -0.1348 -0.0699
  958loPI    C213966   5.217   2.248   5.179 -0.1223 -0.3566  0.1075
  958loPI    C313967   4.821   2.266   5.236 -0.1395 -0.2278 -0.0462
  958loPI   PO413968   5.327   2.695   5.434 -0.1039  0.2391  0.0970
  958loPI   GL113969   5.674   3.047   5.519  0.1913 -0.0952 -0.1269
  958loPI   GL213970   5.947   3.201   5.660 -0.0963  0.1256 -0.0475
  958loPI   C1A13971   5.521   2.946   6.010 -0.0848  0.0292 -0.0123
  958loPI   C2A13972   5.178   2.910   6.281  0.1407 -0.1276 -0.1827
  958loPI   C3A13973   5.340   3.099   6.715  0.0750 -0.0039  0.1108
  958loPI   C4A13974   5.379   3.156   7.147  0.2067  0.1444 -0.1518
  958loPI   C5A13975   5.333   3.025   7.526  0.0388 -0.0434 -0.1383
  958loPI   C6A13976   5.159   2.907   7.901 -0.1157  0.1423  0.2155
  958loPI   C1B13977   5.989   3.081   5.974  0.0560 -0.0281  0.2934
  958loPI   C2B13978   5.877   3.098   6.342 -0.2135 -0.1706 -0.2011
  958loPI   C3B13979   5.829   3.032   6.872  0.2039  0.0367 -0.2422
  958loPI   C4B13980   5.840   3.197   7.381  0.1501  0.0579 -0.2595
  959loPI    C113981  14.532   3.024   5.148 -0.3029 -0.1108  0.2305
  959loPI    C213982  14.731   3.155   5.468  0.0236  0.0803 -0.0439
  959loPI    C313983  14.682   3.394   5.152 -0.2727 -0.1150 -0.1495
  959loPI   PO413984  14.309   2.844   5.279 -0.4792 -0.0724 -0.1571
  959loPI   GL113985  14.286   2.961   5.717 -0.0113 -0.0590  0.0543
  959loPI   GL213986  14.050   2.737   5.874 -0.0017  0.0918  0.0751
  959loPI   C1A13987  14.373   3.217   6.025  0.2648  0.2395  0.0161
  959loPI   C2A13988  14.386   3.359   6.365 -0.2215  0.2449 -0.2002
  959loPI   C3A13989  14.561   3.477   6.838  0.0566 -0.2206 -0.1814
  959loPI   C4A13990  14.708   3.628   7.171 -0.0145  0.0417  0.1011
  959loPI   C5A13991  14.885   3.872   7.448 -0.2161  0.3490 -0.1455
  959loPI   C6A13992  14.834   4.106   7.805  0.0364  0.0601  0.3562
  959loPI   C1B13993  14.051   2.865   6.372 -0.1934 -0.2863 -0.0328
  959loPI   C2B13994  14.046   2.959   6.796 -0.3422 -0.3016 -0.2382
  959loPI   C3B13995  14.060   2.991   7.315  0.2449 -0.1148 -0.0771
  959loPI   C4B13996  13.789   3.174   7.676  0.2644 -0.0567 -0.0619
  960loPI    C113997  16.157   5.529   4.917  0.0297  0.0305 -0.0132
  960loPI    C213998  16.279   5.856   5.111 -0.0334  0.0388  0.0130
  960loPI    C313999  16.441   5.760   4.758  0.0544  0.0449  0.0513
  960loPI   PO414000  16.121   5.412   5.151 -0.0966  0.2259 -0.1025
  960loPI   GL114001  16.072   5.400   5.653  0.0960 -0.1488  0.3996
  960loPI   GL214002  16.252   5.680   5.605  0.2148 -0.1446  0.0066
  960loPI   C1A14003  16.171   5.160   5.969 -0.2010 -0.0543 -0.1053
  960loPI   C2A14004  16.178   5.002   6.420  0.0596  0.1982  0.1113
  960loPI   C3A14005  16.217   4.829   6.842 -0.0111 -0.1478  0.1422
  960loPI   C4A14006  16.485   4.859   7.202  0.0471 -0.2547 -0.2308
  960loPI   C5A14007  16.594   4.564   7.612 -0.0743 -0.1789  0.1093
  960loPI   C6A14008  16.974   4.631   7.643  0.0705  0.0904  0.2292
  960loPI   C1B14009  16.104   5.661   6.059 -0.0423  0.0985  0.1957
  960loPI   C2B14010  16.020   5.519   6.441  0.2422 -0.0880  0.1689
  960loPI   C3B14011  16.019   5.406   6.830 -0.0838 -0.1549 -0.0460
  960loPI   C4B14012  15.914   5.177   7.177 -0.0486  0.3298 -0.3757
  961loPI    C114013   2.610   8.252   5.073  0.0980 -0.1267 -0.1223
  961loPI    C214014   2.251   8.401   4.980  0.1570  0.2589  0.2393
  961loPI    C314015   2.568   8.485   4.751  0.0647  0.1231  0.0597
  961loPI   PO414016   2.638   8.308   5.353 -0.0114  0.1137  0.2879
  961loPI   GL114017   2.618   8.524   5.631 -0.0065  0.1488  0.4395
  961loPI   GL214018   2.315   8.640   5.625 -0.2060 -0.0132  0.3062
  961loPI   C1A14019   2.579   8.326   6.041 -0.0081  0.0248  0.2746
  961loPI   C2A14020   2.329   8.293   6.322 -0.1147 -0.0509  0.0786
  961loPI   C3A14021   2.253   8.235   6.689  0.3770  0.0641  0.1613
  961loPI   C4A14022   1.976   7.899   6.917 -0.1161 -0.1294  0.2608
  961loPI   C5A14023   2.060   7.630   7.265 -0.0109  0.0675  0.4979
  961loPI   C6A14024   2.025   7.754   7.623  0.0908 -0.1546 -0.0107
  961loPI   C1B14025   2.333   8.768   6.008 -0.1295  0.4490 -0.0420
  961loPI   C2B14026   2.642   8.807   6.343 -0.1258  0.1092  0.1143
  961loPI   C3B14027   2.852   8.781   6.697  0.0844 -0.1230 -0.1794
  961loPI   C4B14028   2.818   8.762   7.110 -0.0184  0.2990  0.0949
  962loPI    C114029   2.747   1.261   5.210 -0.0371  0.1819 -0.1299
  962loPI    C214030   2.568   1.035   4.933  0.1491  0.2567 -0.3141
  962loPI    C314031   2.367   1.335   5.107 -0.0010  0.1445 -0.2916
  962loPI   PO414032   2.837   1.141   5.435 -0.1503 -0.3415 -0.3266
  962loPI   GL114033   2.749   1.370   5.814  0.1822  0.1919 -0.0820
  962loPI   GL214034   2.613   1.449   6.004  0.0190 -0.1060  0.0290
  962loPI   C1A14035   2.854   1.079   6.222  0.2596 -0.0873  0.0180
  962loPI   C2A14036   2.842   1.074   6.688  0.1652  0.0821 -0.1307
  962loPI   C3A14037   2.858   0.940   7.074  0.0915  0.3353 -0.4206
  962loPI   C4A14038   2.676   0.874   7.515 -0.2922 -0.1642  0.1487
  962loPI   C5A14039   2.391   0.684   7.827  0.1242  0.1145  0.4210
  962loPI   C6A14040   2.337   0.404   8.207  0.2547  0.0348 -0.1480
  962loPI   C1B14041   2.464   1.338   6.390 -0.0732 -0.0807 -0.0788
  962loPI   C2B14042   2.160   1.511   6.718 -0.1728 -0.2414  0.3230
  962loPI   C3B14043   2.098   1.542   7.125  0.2448  0.1204  0.3388
  962loPI   C4B14044   1.949   1.514   7.539 -0.3391 -0.0210  0.0462
  963loPI    C114045   0.542   7.986   5.050  0.1960 -0.2406 -0.0546
  963loPI    C214046   0.634   7.768   4.727  0.2434  0.0617 -0.2488
  963loPI    C314047   0.330   8.028   4.713  0.0268 -0.1673  0.0597
  963loPI   PO414048   0.780   7.815   5.302 -0.1998 -0.2545  0.1023
  963loPI   GL114049   0.714   7.574   5.674 -0.0042 -0.2471  0.1515
  963loPI   GL214050   0.942   7.746   5.793  0.0681  0.1298 -0.0376
  963loPI   C1A14051   0.603   7.456   6.121 -0.0793  0.1226 -0.0289
  963loPI   C2A14052   0.576   7.457   6.503  0.0407 -0.0399  0.0758
  963loPI   C3A14053   0.532   7.428   6.908 -0.4197 -0.1381 -0.1889
  963loPI   C4A14054   0.453   7.290   7.284 -0.2031  0.3111 -0.2173
  963loPI   C5A14055   0.135   7.114   7.519  0.2112 -0.0823  0.3961
  963loPI   C6A14056  -0.035   7.213   7.848  0.0229  0.0643 -0.3756
  963loPI   C1B14057   0.818   8.034   6.052  0.0463  0.0381  0.2262
  963loPI   C2B14058   0.779   7.864   6.568 -0.0327 -0.0559  0.2057
  963loPI   C3B14059   0.640   7.949   7.045  0.0300  0.2427 -0.2097
  963loPI   C4B14060   0.704   8.271   7.396 -0.0703 -0.1402  0.1259
  964loPI    C114061   3.331   8.147   4.624 -0.1339 -0.0808 -0.0928
  964loPI    C214062   3.391   7.752   4.656 -0.2000 -0.0873 -0.0473
  964loPI    C314063   3.239   7.905   4.319 -0.2013 -0.1040 -0.0543
  964loPI   PO414064   3.439   8.171   4.914 -0.2871  0.0170  0.0887
  964loPI   GL114065   3.542   8.234   5.334 -0.1278 -0.0821  0.1635
  964loPI   GL214066   3.231   8.395   5.505  0.0267 -0.0606 -0.1285
  964loPI   C1A14067   3.813   8.484   5.525 -0.0078  0.2740  0.1435
  964loPI   C2A14068   4.010   8.466   5.960 -0.0321  0.2766 -0.1187
  964loPI   C3A14069   3.715   8.753   6.203 -0.0724 -0.0623 -0.0816
  964loPI   C4A14070   3.585   8.754   6.604 -0.1504  0.0249  0.1926
  964loPI   C5A14071   3.762   8.458   6.874 -0.1842 -0.1364  0.0506
  964loPI   C6A14072   3.773   8.409   7.371  0.0696  0.0776 -0.0962
  964loPI   C1B14073   3.483   8.355   5.892 -0.1034  0.1129  0.2563
  964loPI   C2B14074   3.688   8.158   6.229 -0.0091  0.2207  0.3170
  964loPI   C3B14075   4.062   8.281   6.500  0.1636 -0.3185  0.0529
  964loPI   C4B14076   4.446   8.458   6.502  0.0532  0.3501 -0.0917
  965loPI    C114077  10.489  13.084   6.038 -0.2674  0.4461 -0.0803
  965loPI    C214078  10.596  13.272   5.702 -0.0995  0.1003 -0.2255
  965loPI    C314079  10.451  12.900   5.685  0.4851 -0.1566  0.1258
  965loPI   PO414080  10.684  13.198   6.208  0.4374  0.1393 -0.0912
  965loPI   GL114081  10.706  12.963   6.482  0.2594 -0.0172  0.0465
  965loPI   GL214082  11.042  12.891   6.348 -0.3250  0.1308 -0.0148
  965loPI   C1A14083  10.667  12.778   6.838 -0.2098 -0.2398 -0.3103
  965loPI   C2A14084  10.636  12.826   7.244  0.0243  0.0770  0.1942
  965loPI   C3A14085  10.481  12.925   7.609  0.3256  0.1887 -0.3768
  965loPI   C4A14086  10.456  12.853   8.061 -0.4092  0.0202 -0.0439
  965loPI   C5A14087  10.563  12.774   8.508  0.0111 -0.0744  0.1458
  965loPI   C6A14088  10.509  12.822   8.895  0.0209 -0.0422  0.0991
  965loPI   C1B14089  11.170  12.989   6.704 -0.0936  0.2879  0.0472
  965loPI   C2B14090  11.103  12.967   7.096 -0.2052  0.2259 -0.0097
  965loPI   C3B14091  11.331  12.733   7.489  0.3034 -0.1038 -0.1032
  965loPI   C4B14092  11.490  12.729   7.932 -0.0033  0.1640 -0.1378
  966loPI    C114093   0.597   1.503   5.508 -0.0973 -0.0922 -0.0747
  966loPI    C214094   0.497   1.119   5.453  0.0093 -0.1801  0.3127
  966loPI    C314095   0.855   1.252   5.333 -0.1930 -0.0901 -0.2208
  966loPI   PO414096   0.540   1.562   5.744  0.2250 -0.1614 -0.2598
  966loPI   GL114097   0.527   1.779   6.088  0.4495 -0.1927  0.1720
  966loPI   GL214098   0.602   1.493   6.374 -0.0371 -0.3356  0.2077
  966loPI   C1A14099   0.408   2.121   6.370  0.2189  0.2198  0.0048
  966loPI   C2A14100   0.229   2.414   6.764 -0.0259  0.0208 -0.0821
  966loPI   C3A14101   0.178   2.520   7.187 -0.0032  0.1110  0.1651
  966loPI   C4A14102   0.190   2.474   7.553 -0.0665  0.1089  0.0325
  966loPI   C5A14103   0.286   2.620   8.014 -0.1109  0.0243 -0.2137
  966loPI   C6A14104   0.007   2.856   8.341  0.1089 -0.0162  0.0127
  966loPI   C1B14105   0.716   1.707   6.617  0.1230 -0.3479  0.1476
  966loPI   C2B14106   0.692   2.076   6.800  0.1652  0.1206  0.1013
  966loPI   C3B14107   0.746   2.410   6.996 -0.1725  0.1706 -0.0027
  966loPI   C4B14108   0.674   2.500   7.403 -0.2120 -0.1358  0.2868
  967loPI    C114109  13.857   3.516   4.901 -0.0220 -0.0366  0.0885
  967loPI    C214110  13.762   3.129   4.930 -0.2022 -0.0176 -0.2087
  967loPI    C314111  13.874   3.281   4.577  0.1653  0.1366 -0.0299
  967loPI   PO414112  13.728   3.567   5.229 -0.0437 -0.0781  0.1230
  967loPI   GL114113  13.949   3.634   5.611 -0.1293  0.0679 -0.0725
  967loPI   GL214114  13.711   3.378   5.707  0.0656  0.1780  0.1825
  967loPI   C1A14115  14.167   3.759   5.924 -0.2984 -0.1437  0.1460
  967loPI   C2A14116  14.130   3.869   6.317 -0.1037 -0.1683  0.2305
  967loPI   C3A14117  14.272   3.958   6.769  0.0029 -0.1003 -0.2807
  967loPI   C4A14118  14.364   3.956   7.242  0.1992  0.1382  0.1056
  967loPI   C5A14119  14.365   3.767   7.583  0.1600  0.0892 -0.2178
  967loPI   C6A14120  14.628   3.624   7.930 -0.2283  0.1408  0.1649
  967loPI   C1B14121  13.865   3.305   6.051  0.0675  0.1503  0.1549
  967loPI   C2B14122  13.936   3.406   6.554 -0.2866 -0.2268  0.0774
  967loPI   C3B14123  14.030   3.529   6.942 -0.3348  0.0945  0.1708
  967loPI   C4B14124  14.041   3.470   7.299  0.1526  0.0991  0.4042
  968loPI    C114125  14.461   5.643   5.556 -0.0747 -0.1436 -0.1478
  968loPI    C214126  14.444   5.692   5.159  0.2216  0.0884 -0.1347
  968loPI    C314127  14.789   5.748   5.354  0.0876 -0.0621  0.1526
  968loPI   PO414128  14.180   5.567   5.580 -0.0886  0.0509 -0.0965
  968loPI   GL114129  13.808   5.423   5.824 -0.2787 -0.1376  0.1062
  968loPI   GL214130  13.811   5.834   5.788 -0.2095  0.2135  0.1360
  968loPI   C1A14131  13.817   5.460   6.264  0.0311  0.0433  0.1213
  968loPI   C2A14132  14.177   5.280   6.637 -0.0347 -0.1825 -0.1694
  968loPI   C3A14133  14.381   5.287   7.093 -0.0787 -0.0447 -0.3389
  968loPI   C4A14134  14.826   5.323   7.282  0.0907  0.0067  0.1021
  968loPI   C5A14135  15.215   5.319   7.100  0.3243  0.0879  0.1047
  968loPI   C6A14136  15.584   5.570   7.163  0.0235 -0.0914 -0.3569
  968loPI   C1B14137  13.447   5.735   5.863  0.0675 -0.3181 -0.2392
  968loPI   C2B14138  13.235   5.317   6.031 -0.0651  0.0293  0.0874
  968loPI   C3B14139  13.163   5.013   6.368  0.2105  0.3092 -0.2791
  968loPI   C4B14140  13.144   4.991   6.764 -0.2142  0.1774 -0.0114
  969loPI    C114141   1.300   5.411   5.135 -0.0890 -0.0682  0.2756
  969loPI    C214142   1.071   5.728   5.054  0.0893 -0.0251 -0.0795
  969loPI    C314143   1.041   5.398   4.831  0.1646 -0.1255  0.0577
  969loPI   PO414144   1.287   5.416   5.469 -0.1267  0.0150 -0.1039
  969loPI   GL114145   1.354   5.171   5.788 -0.0168  0.0438  0.0234
  969loPI   GL214146   1.638   5.069   5.724 -0.2117 -0.1193  0.1484
  969loPI   C1A14147   1.270   5.160   6.183 -0.4033 -0.0214  0.0113
  969loPI   C2A14148   1.157   5.101   6.593 -0.1094 -0.1878 -0.2732
  969loPI   C3A14149   1.070   5.164   7.075 -0.0438 -0.1102 -0.1990
  969loPI   C4A14150   0.803   5.408   7.193  0.1890 -0.2408 -0.2207
  969loPI   C5A14151   0.467   5.618   7.417  0.1709 -0.1606  0.3016
  969loPI   C6A14152   0.287   5.795   7.752 -0.1106 -0.1811 -0.0267
  969loPI   C1B14153   1.871   4.904   6.037  0.1582  0.0815  0.0738
  969loPI   C2B14154   1.692   4.907   6.462  0.0361  0.1232 -0.0415
  969loPI   C3B14155   1.440   4.654   6.778  0.3806 -0.0887 -0.1272
  969loPI   C4B14156   1.407   4.606   7.187 -0.2477 -0.2053  0.1733
  970loPI    C114157   0.326   7.238   5.436  0.0680  0.0503  0.3783
  970loPI    C214158   0.540   7.393   5.136  0.0163 -0.2096  0.2041
  970loPI    C314159   0.316   7.631   5.366  0.0212 -0.0135  0.0089
  970loPI   PO414160   0.540   7.045   5.589  0.2453 -0.0390  0.0838
  970loPI   GL114161   0.803   7.049   5.859 -0.1101 -0.0692  0.3170
  970loPI   GL214162   0.996   7.211   5.862 -0.0656 -0.0127 -0.0607
  970loPI   C1A14163   0.694   6.988   6.342 -0.1646 -0.2523 -0.3810
  970loPI   C2A14164   0.597   6.943   6.832 -0.4267 -0.1878 -0.1000
  970loPI   C3A14165   0.598   6.813   7.277 -0.1297 -0.1558  0.2125
  970loPI   C4A14166   0.550   6.761   7.709 -0.1367  0.0158 -0.0955
  970loPI   C5A14167   0.596   6.328   7.875 -0.0638  0.2331 -0.0525
  970loPI   C6A14168   0.741   5.775   7.937 -0.0869  0.0362  0.3489
  970loPI   C1B14169   1.093   7.438   6.234  0.2418  0.0151 -0.2420
  970loPI   C2B14170   1.010   7.304   6.728 -0.1200  0.0308 -0.0627
  970loPI   C3B14171   0.937   7.268   7.207  0.0140  0.0336 -0.0822
  970loPI   C4B14172   0.888   7.179   7.582 -0.1284 -0.4180 -0.0498
  971loPI    C114173   6.654  13.666   5.421  0.1524 -0.1257  0.0130
  971loPI    C214174   6.558  13.535   5.055 -0.1617 -0.0199  0.0547
  971loPI    C314175   6.843  13.811   5.100  0.2510 -0.4151 -0.0631
  971loPI   PO414176   6.499  13.468   5.560 -0.1933 -0.0753 -0.2155
  971loPI   GL114177   6.686  13.409   5.987 -0.0902  0.1368  0.0313
  971loPI   GL214178   6.932  13.726   5.969 -0.1566  0.3806  0.0725
  971loPI   C1A14179   6.717  13.444   6.436 -0.0775 -0.1407  0.3750
  971loPI   C2A14180   6.526  13.427   6.929 -0.0251 -0.1538 -0.1058
  971loPI   C3A14181   6.350  13.395   7.258  0.0600 -0.3377  0.1682
  971loPI   C4A14182   6.499  13.101   7.594  0.2865 -0.0459  0.0354
  971loPI   C5A14183   6.793  12.809   7.822 -0.3377 -0.0480 -0.2871
  971loPI   C6A14184   7.031  12.339   7.787 -0.2733  0.1530 -0.3085
  971loPI   C1B14185   7.012  13.841   6.414  0.3138  0.3240 -0.5698
  971loPI   C2B14186   6.961  13.579   6.818 -0.0181  0.0629 -0.1026
  971loPI   C3B14187   7.144  13.637   7.133 -0.0399  0.2429  0.0025
  971loPI   C4B14188   7.318  13.596   7.525 -0.1336  0.3621 -0.0544
  972loPI    C114189   6.006   3.840   5.249  0.1775 -0.5363 -0.0836
  972loPI    C214190   6.185   3.843   4.891  0.1286 -0.1530 -0.1093
  972loPI    C314191   6.090   4.188   5.070 -0.0759 -0.3449  0.1607
  972loPI   PO414192   6.110   3.697   5.461 -0.1888 -0.1845 -0.0505
  972loPI   GL114193   6.209   3.664   5.854 -0.0372  0.3592 -0.2340
  972loPI   GL214194   5.985   3.985   5.951 -0.3320  0.0007  0.1820
  972loPI   C1A14195   5.930   3.537   6.168  0.2317 -0.1223 -0.3019
  972loPI   C2A14196   6.111   3.570   6.707 -0.1959  0.1716  0.0458
  972loPI   C3A14197   6.143   3.563   7.139  0.1447  0.2859  0.0006
  972loPI   C4A14198   6.336   3.921   7.350 -0.1993  0.0999  0.1012
  972loPI   C5A14199   6.651   4.192   7.519  0.2220 -0.4381 -0.1038
  972loPI   C6A14200   7.090   4.206   7.521 -0.3745 -0.2571  0.0587
  972loPI   C1B14201   5.920   3.932   6.444  0.2953 -0.1277 -0.0106
  972loPI   C2B14202   6.015   4.008   6.926  0.2919 -0.1198  0.0384
  972loPI   C3B14203   5.856   3.919   7.353  0.2857 -0.3564 -0.1733
  972loPI   C4B14204   5.915   3.582   7.693 -0.4422  0.2557  0.3782
  973loPI    C114205  17.880  15.412   5.414  0.4285 -0.1921  0.0131
  973loPI    C214206  18.018  15.676   5.147  0.1380  0.0861  0.1316
  973loPI    C314207  17.749  15.402   5.036  0.0426  0.1801  0.1296
  973loPI   PO414208  17.728  15.555   5.718 -0.2006  0.2370 -0.1416
  973loPI   GL114209  17.700  15.440   6.126 -0.2702 -0.1279 -0.0460
  973loPI   GL214210  17.981  15.620   6.278  0.3125 -0.3179 -0.1185
  973loPI   C1A14211  17.407  15.374   6.554 -0.1969  0.1801  0.2273
  973loPI   C2A14212  17.566  15.343   6.950 -0.2508  0.4341  0.0743
  973loPI   C3A14213  17.615  15.099   7.367 -0.2224 -0.1970  0.0279
  973loPI   C4A14214  17.456  14.757   7.602 -0.3219  0.1657 -0.0329
  973loPI   C5A14215  17.213  14.462   7.993 -0.0837  0.1561 -0.1173
  973loPI   C6A14216  17.219  14.044   8.213 -0.2408 -0.3324  0.2254
  973loPI   C1B14217  17.974  15.560   6.721 -0.0441 -0.2190  0.0519
  973loPI   C2B14218  18.236  15.818   7.040 -0.1044  0.2652  0.3550
  973loPI   C3B14219  18.241  15.803   7.489  0.2291  0.1429 -0.3168
  973loPI   C4B14220  18.059  15.903   7.954  0.0562 -0.1891 -0.1244
  974loPI    C114221  12.480  10.393   4.994 -0.5468 -0.0324  0.0539
  974loPI    C214222  12.490  10.766   4.849  0.0979 -0.0416  0.0491
  974loPI    C314223  12.328  10.471   4.632 -0.1290  0.1764 -0.0828
  974loPI   PO414224  12.452  10.506   5.318 -0.1659  0.2415  0.0848
  974loPI   GL114225  12.271  10.397   5.706 -0.0506  0.1161  0.0422
  974loPI   GL214226  12.304  10.762   5.726  0.2373 -0.2040  0.0028
  974loPI   C1A14227  11.953  10.072   5.950  0.0544  0.0887 -0.0418
  974loPI   C2A14228  11.837   9.742   6.300  0.1171 -0.0183  0.0851
  974loPI   C3A14229  11.622   9.544   6.612 -0.1191 -0.1044  0.1143
  974loPI   C4A14230  11.726   9.444   7.088 -0.0257  0.3965  0.1220
  974loPI   C5A14231  11.992   9.487   7.360 -0.0974 -0.2291  0.0564
  974loPI   C6A14232  12.331   9.297   7.507  0.1016 -0.0866  0.0272
  974loPI   C1B14233  12.351  10.659   6.123 -0.0912  0.0872  0.0428
  974loPI   C2B14234  12.472  10.545   6.594 -0.0443  0.1874 -0.3712
  974loPI   C3B14235  12.573  10.485   6.985 -0.2214  0.2937  0.2363
  974loPI   C4B14236  12.928  10.494   7.385 -0.3680 -0.0208 -0.2710
  975loPI    C114237  18.437   3.264   4.920  0.0213  0.0792 -0.0513
  975loPI    C214238  18.184   3.434   4.661 -0.0877  0.1205  0.0816
  975loPI    C314239  18.366   3.090   4.567 -0.0372  0.1957 -0.0972
  975loPI   PO414240  18.455   3.279   5.269  0.1360 -0.4369  0.2280
  975loPI   GL114241  18.325   3.209   5.713 -0.1872  0.0712  0.2263
  975loPI   GL214242  18.531   3.504   5.662  0.2749  0.2753 -0.3966
  975loPI   C1A14243  18.394   3.212   6.089 -0.1629 -0.2103 -0.2239
  975loPI   C2A14244  18.576   3.432   6.503 -0.2869 -0.3863 -0.4228
  975loPI   C3A14245  18.535   3.615   6.994  0.2456 -0.1903  0.0492
  975loPI   C4A14246  18.703   3.926   7.207  0.0401 -0.1779 -0.0754
  975loPI   C5A14247  18.995   4.283   7.361  0.1052  0.0637 -0.4301
  975loPI   C6A14248  18.847   4.658   7.167  0.2580 -0.0075  0.0891
  975loPI   C1B14249  18.602   3.694   5.888 -0.0387  0.5657 -0.0990
  975loPI   C2B14250  18.652   4.008   6.066 -0.0543 -0.1231 -0.0724
  975loPI   C3B14251  18.635   4.199   6.424  0.3198  0.0707  0.0622
  975loPI   C4B14252  18.916   4.247   6.807  0.1944  0.1587  0.3267
  976loPI    C114253  16.452   1.377   5.090 -0.0486 -0.3781 -0.0419
  976loPI    C214254  16.654   1.612   4.837  0.2151 -0.1768  0.3442
  976loPI    C314255  16.765   1.231   4.888 -0.0799 -0.3345 -0.1222
  976loPI   PO414256  16.457   1.416   5.363 -0.0121 -0.1160  0.1775
  976loPI   GL114257  16.191   1.461   5.741 -0.2469 -0.0046 -0.3139
  976loPI   GL214258  15.988   1.557   5.863  0.0468 -0.0857 -0.1299
  976loPI   C1A14259  16.385   1.817   5.948 -0.3778  0.0498 -0.2130
  976loPI   C2A14260  16.490   2.102   6.294 -0.1754 -0.0850  0.0066
  976loPI   C3A14261  16.795   2.255   6.520  0.3101  0.1577  0.1200
  976loPI   C4A14262  16.595   2.303   6.943 -0.1957 -0.1198 -0.2326
  976loPI   C5A14263  16.596   2.408   7.311 -0.3167 -0.1507  0.0987
  976loPI   C6A14264  16.609   2.850   7.546  0.3610 -0.1307  0.1149
  976loPI   C1B14265  15.798   1.514   6.232 -0.1702 -0.1280  0.2243
  976loPI   C2B14266  15.849   1.534   6.632  0.0580  0.0343 -0.0296
  976loPI   C3B14267  15.818   1.666   7.078 -0.0237 -0.0456 -0.2138
  976loPI   C4B14268  15.444   1.666   7.349 -0.1320  0.3503  0.1298
  977loPI    C114269   1.062   9.518   5.265 -0.1902 -0.0989  0.1970
  977loPI    C214270   1.026   9.120   5.277  0.1206 -0.1340  0.0677
  977loPI    C314271   0.853   9.327   4.982  0.1994 -0.2037 -0.0281
  977loPI   PO414272   1.230   9.498   5.551 -0.0577 -0.1985 -0.1929
  977loPI   GL114273   1.532   9.552   5.870  0.0170 -0.0760  0.1141
  977loPI   GL214274   1.341   9.507   6.104 -0.1612 -0.0976  0.2336
  977loPI   C1A14275   1.664   9.611   6.398  0.0996 -0.2511  0.3238
  977loPI   C2A14276   1.578   9.659   6.825 -0.1882  0.0809  0.0374
  977loPI   C3A14277   1.742   9.543   7.242  0.1569 -0.3327  0.3681
  977loPI   C4A14278   1.911   9.603   7.548 -0.0462 -0.0203 -0.3375
  977loPI   C5A14279   1.943   9.783   7.891  0.1180 -0.1750 -0.1951
  977loPI   C6A14280   1.821   9.771   8.296 -0.0693 -0.0725  0.0779
  977loPI   C1B14281   1.212   9.598   6.523 -0.3775  0.2607  0.3101
  977loPI   C2B14282   1.054   9.513   6.870  0.0499 -0.2585  0.2064
  977loPI   C3B14283   1.126   9.526   7.251  0.1021 -0.2031 -0.2638
  977loPI   C4B14284   0.958   9.752   7.582 -0.1903 -0.1131  0.0589
  978loPI    C114285   7.109   8.431   5.019  0.0106  0.0198  0.0233
  978loPI    C214286   6.740   8.342   4.892  0.0315 -0.0613  0.0191
  978loPI    C314287   6.936   8.653   4.734  0.0065 -0.0828 -0.0549
  978loPI   PO414288   7.078   8.430   5.225 -0.4581  0.2100  0.1425
  978loPI   GL114289   7.106   8.602   5.627 -0.1131 -0.3836  0.1303
  978loPI   GL214290   6.850   8.742   5.670  0.2061  0.0868  0.3850
  978loPI   C1A14291   7.235   8.682   6.023 -0.2144  0.1054  0.3584
  978loPI   C2A14292   7.598   8.518   6.331  0.0201  0.0882  0.0331
  978loPI   C3A14293   7.861   8.531   6.677  0.0258 -0.3547 -0.0666
  978loPI   C4A14294   8.265   8.616   6.824  0.3340 -0.0677 -0.1377
  978loPI   C5A14295   8.468   8.552   7.290  0.0892 -0.1253  0.0439
  978loPI   C6A14296   8.527   8.261   7.677  0.0712  0.0793  0.0858
  978loPI   C1B14297   6.772   8.552   6.061 -0.2089 -0.0189  0.2315
  978loPI   C2B14298   6.919   8.544   6.463  0.0683  0.1782  0.1522
  978loPI   C3B14299   6.794   8.557   6.860  0.1284 -0.0033  0.2179
  978loPI   C4B14300   6.584   8.769   7.281 -0.0073 -0.0312  0.0427
  979loPI    C114301   2.968   9.573   5.132  0.1366  0.0362  0.1237
  979loPI    C214302   3.296   9.365   5.033  0.1229  0.1047 -0.0693
  979loPI    C314303   2.980   9.371   4.787  0.0315  0.1577  0.0480
  979loPI   PO414304   2.857   9.437   5.403  0.0065  0.3414 -0.0088
  979loPI   GL114305   2.879   9.387   5.769 -0.0206  0.2539  0.2170
  979loPI   GL214306   2.647   9.508   5.861  0.3777 -0.0407  0.1895
  979loPI   C1A14307   2.899   9.416   6.315 -0.2654  0.1886 -0.0251
  979loPI   C2A14308   2.939   9.391   6.763  0.0120  0.0974 -0.2472
  979loPI   C3A14309   3.050   9.233   7.252  0.0400 -0.1517 -0.1932
  979loPI   C4A14310   3.319   9.060   7.535  0.0149  0.1377  0.0282
  979loPI   C5A14311   3.492   9.039   7.949 -0.0797 -0.0490  0.0491
  979loPI   C6A14312   3.605   9.291   8.266 -0.1219 -0.1811  0.1237
  979loPI   C1B14313   2.412   9.319   6.175 -0.2310 -0.1702 -0.3396
  979loPI   C2B14314   2.490   9.232   6.582  0.0641  0.2238 -0.1297
  979loPI   C3B14315   2.547   9.135   7.012 -0.0724 -0.2044  0.0663
  979loPI   C4B14316   2.379   8.943   7.318 -0.1669  0.0706  0.2804
  980loPI    C114317  13.562  13.867   5.308 -0.2941 -0.1345 -0.4198
  980loPI    C214318  13.663  13.485   5.374 -0.0646 -0.0035  0.0279
  980loPI    C314319  13.836  13.689   5.076  0.1051 -0.1333  0.0359
  980loPI   PO414320  13.513  13.907   5.684 -0.0942  0.0097  0.0659
  980loPI   GL114321  13.489  13.590   5.871  0.0939 -0.1046  0.0467
  980loPI   GL214322  13.137  13.370   6.002  0.0959 -0.0508 -0.0404
  980loPI   C1A14323  13.747  13.430   6.113 -0.2761 -0.1180 -0.1970
  980loPI   C2A14324  13.977  13.098   6.364 -0.0671 -0.3865 -0.0472
  980loPI   C3A14325  14.086  13.096   6.760  0.0536  0.3576  0.0029
  980loPI   C4A14326  14.201  13.140   7.114  0.0820  0.2107 -0.1051
  980loPI   C5A14327  14.056  13.207   7.501  0.3313  0.1257 -0.0532
  980loPI   C6A14328  13.878  13.209   7.905  0.0741 -0.3295  0.1215
  980loPI   C1B14329  12.903  13.403   6.358 -0.4131 -0.3846 -0.0603
  980loPI   C2B14330  13.005  13.333   6.762  0.0658  0.1406  0.1005
  980loPI   C3B14331  13.180  13.323   7.171 -0.1061 -0.1784 -0.1880
  980loPI   C4B14332  13.071  13.508   7.543  0.0239  0.2531  0.0156
  981loPI    C114333   4.245   2.830   5.375 -0.0257 -0.0814  0.1822
  981loPI    C214334   4.620   2.724   5.466  0.0122 -0.0444  0.0704
  981loPI    C314335   4.467   2.631   5.108 -0.0182  0.1124  0.0419
  981loPI   PO414336   4.214   3.057   5.567 -0.0563 -0.0363  0.0286
  981loPI   GL114337   4.235   3.309   5.860 -0.1845 -0.0950 -0.0562
  981loPI   GL214338   4.507   3.541   5.923 -0.1307  0.0333 -0.1953
  981loPI   C1A14339   4.112   3.412   6.283  0.3965 -0.1388  0.3081
  981loPI   C2A14340   4.231   3.291   6.754 -0.0201  0.1962  0.0815
  981loPI   C3A14341   4.449   3.199   7.098  0.1163  0.2817 -0.1251
  981loPI   C4A14342   4.543   2.991   7.527  0.2446 -0.0566 -0.1022
  981loPI   C5A14343   4.620   2.700   7.834 -0.4346  0.2987  0.2384
  981loPI   C6A14344   4.967   2.482   8.022  0.0620  0.1641 -0.3949
  981loPI   C1B14345   4.577   3.329   6.354  0.0230 -0.1450 -0.3133
  981loPI   C2B14346   4.834   3.171   6.725 -0.1467 -0.3770  0.1850
  981loPI   C3B14347   5.020   2.732   6.772 -0.1123 -0.1232  0.0967
  981loPI   C4B14348   5.061   2.600   7.144  0.2575  0.0281  0.2275
  982loPI    C114349   3.591  13.219   5.192  0.1018  0.1233 -0.1139
  982loPI    C214350   3.385  12.904   5.055  0.1174  0.0384  0.0550
  982loPI    C314351   3.780  12.924   4.998  0.1137  0.0362  0.0285
  982loPI   PO414352   3.533  13.224   5.426  0.0792  0.1030 -0.0027
  982loPI   GL114353   3.691  13.037   5.837  0.0445  0.1304 -0.0285
  982loPI   GL214354   3.513  13.321   5.942  0.2321  0.1639 -0.0410
  982loPI   C1A14355   3.602  12.819   6.253  0.0329  0.0571  0.3604
  982loPI   C2A14356   3.668  12.746   6.636 -0.1572 -0.0638  0.2533
  982loPI   C3A14357   3.700  12.847   7.093  0.6018  0.2259  0.0989
  982loPI   C4A14358   3.652  13.005   7.465  0.0140  0.2438 -0.1082
  982loPI   C5A14359   3.430  13.252   7.726  0.0491  0.0756  0.2099
  982loPI   C6A14360   3.530  13.522   8.096 -0.0570  0.2231  0.0423
  982loPI   C1B14361   3.785  13.313   6.235 -0.2557 -0.0938 -0.1794
  982loPI   C2B14362   3.735  13.268   6.648 -0.2641 -0.6068  0.2802
  982loPI   C3B14363   3.921  13.350   7.024 -0.0520 -0.3773 -0.0267
  982loPI   C4B14364   4.205  13.427   7.414 -0.0043  0.0203 -0.0580
  983loPI    C114365  11.624   2.436   5.129 -0.1647 -0.0276 -0.0955
  983loPI    C214366  11.823   2.216   4.859  0.0012  0.1939 -0.1569
  983loPI    C314367  11.510   2.438   4.745 -0.0114  0.1843 -0.1415
  983loPI   PO414368  11.791   2.616   5.368 -0.0385  0.1418 -0.1648
  983loPI   GL114369  11.705   2.614   5.785 -0.0593  0.0981  0.0850
  983loPI   GL214370  11.415   2.722   5.897  0.1929 -0.0400 -0.0947
  983loPI   C1A14371  11.716   2.504   6.307  0.1554  0.1913  0.0930
  983loPI   C2A14372  11.639   2.463   6.714  0.2026 -0.1787  0.1988
  983loPI   C3A14373  11.927   2.465   7.051  0.4924 -0.2279  0.2184
  983loPI   C4A14374  12.133   2.612   7.468  0.3552  0.1260 -0.1713
  983loPI   C5A14375  11.916   2.625   7.918 -0.2639  0.0514  0.1200
  983loPI   C6A14376  11.976   2.855   8.295  0.2175 -0.1786 -0.1096
  983loPI   C1B14377  11.192   2.622   6.347  0.1098 -0.0975  0.0107
  983loPI   C2B14378  11.213   2.665   6.753  0.0178  0.2347 -0.2734
  983loPI   C3B14379  11.438   2.742   7.089  0.3404  0.1161 -0.1639
  983loPI   C4B14380  11.687   3.067   7.337  0.2311 -0.1701  0.0966
  984loPI    C114381  10.734   9.320   5.333 -0.2132  0.0944 -0.0890
  984loPI    C214382  10.533   9.638   5.199 -0.1055  0.1803 -0.0483
  984loPI    C314383  10.418   9.456   5.536 -0.1057  0.2386 -0.0168
  984loPI   PO414384  10.968   9.453   5.430  0.1204  0.0596  0.2953
  984loPI   GL114385  11.233   9.301   5.838 -0.0404  0.0658  0.0263
  984loPI   GL214386  11.326   9.674   5.709  0.1515  0.0496 -0.0491
  984loPI   C1A14387  11.261   9.572   6.197 -0.2752 -0.1796  0.0054
  984loPI   C2A14388  11.237   9.841   6.589  0.1479 -0.0433  0.2126
  984loPI   C3A14389  11.431   9.840   7.009  0.0976 -0.3384  0.4510
  984loPI   C4A14390  11.723  10.030   7.312  0.2476  0.1095  0.0287
  984loPI   C5A14391  12.184   9.955   7.465  0.0700 -0.1108  0.2054
  984loPI   C6A14392  12.335   9.676   7.851  0.4187 -0.1577 -0.0421
  984loPI   C1B14393  11.445   9.911   5.965  0.0543 -0.0141 -0.3031
  984loPI   C2B14394  11.552  10.173   6.316  0.1951  0.2178  0.0615
  984loPI   C3B14395  11.751  10.104   6.723  0.0543 -0.0612 -0.0258
  984loPI   C4B14396  12.102   9.984   6.965 -0.1611  0.0200 -0.1134
  985loPI    C114397   2.997   1.615   5.393 -0.1977  0.1057 -0.2507
  985loPI    C214398   3.235   1.780   5.118  0.2086  0.0795  0.0760
  985loPI    C314399   3.223   1.383   5.159  0.2073  0.0866  0.1454
  985loPI   PO414400   3.074   1.696   5.623  0.0622 -0.0694  0.1070
  985loPI   GL114401   3.198   1.600   6.002  0.2021 -0.0174  0.1473
  985loPI   GL214402   3.301   1.275   6.195 -0.0712 -0.1702  0.0825
  985loPI   C1A14403   2.889   1.684   6.442 -0.0501 -0.1408  0.1000
  985loPI   C2A14404   2.652   1.515   6.810 -0.3928 -0.2847  0.1774
  985loPI   C3A14405   2.527   1.303   7.256  0.0472  0.1382  0.0253
  985loPI   C4A14406   2.502   1.430   7.731 -0.1581  0.2309 -0.1167
  985loPI   C5A14407   2.191   1.511   7.978 -0.3410 -0.1756 -0.0368
  985loPI   C6A14408   1.813   1.478   8.253  0.1075 -0.2369 -0.2487
  985loPI   C1B14409   3.388   1.072   6.615  0.1936  0.4318  0.1341
  985loPI   C2B14410   3.327   0.904   7.076  0.1726 -0.1729  0.1163
  985loPI   C3B14411   3.271   0.820   7.411 -0.1775  0.0138  0.1035
  985loPI   C4B14412   3.233   0.674   7.823  0.1860 -0.0292  0.3993
  986loPI    C114413  14.472  10.397   5.231 -0.1918  0.0381  0.2252
  986loPI    C214414  14.291  10.148   4.976 -0.0607 -0.0077  0.1756
  986loPI    C314415  14.506  10.455   4.836 -0.2679  0.1684  0.2372
  986loPI   PO414416  14.520  10.249   5.443  0.0349 -0.0289  0.2776
  986loPI   GL114417  14.591  10.114   5.881  0.0472  0.1539  0.1252
  986loPI   GL214418  14.958  10.187   5.823  0.4196  0.0424  0.3434
  986loPI   C1A14419  14.536   9.999   6.339 -0.2025 -0.1485  0.1287
  986loPI   C2A14420  14.823   9.869   6.673 -0.2756 -0.1286  0.1896
  986loPI   C3A14421  15.193   9.910   6.794  0.1685  0.5242 -0.2762
  986loPI   C4A14422  15.728  10.025   6.938 -0.1182  0.2853 -0.2225
  986loPI   C5A14423  16.041   9.957   7.314  0.2355 -0.0518  0.1564
  986loPI   C6A14424  16.271   9.855   7.668 -0.1181  0.0140 -0.1297
  986loPI   C1B14425  14.973  10.292   6.258 -0.1029 -0.1882  0.0115
  986loPI   C2B14426  14.922  10.335   6.893  0.0886  0.1124  0.0128
  986loPI   C3B14427  14.915  10.431   7.316 -0.3102 -0.3696  0.1180
  986loPI   C4B14428  14.900  10.815   7.602 -0.0150 -0.0823  0.2138
  987loPI    C114429  18.306  17.902   5.932 -0.0619  0.0086 -0.0976
  987loPI    C214430  18.561  17.842   5.629  0.0445 -0.0174 -0.0037
  987loPI    C314431  18.198  17.674   5.622 -0.0267  0.1405 -0.2081
  987loPI   PO414432  18.396  17.742   6.090 -0.1708 -0.1451  0.0766
  987loPI   GL114433  18.488  17.721   6.518  0.0059 -0.2745  0.2121
  987loPI   GL214434  18.145  17.807   6.608  0.2042  0.2305  0.1058
  987loPI   C1A14435  18.663  17.726   6.996  0.1111 -0.0366 -0.2227
  987loPI   C2A14436  18.888  17.876   7.342  0.1391 -0.0497 -0.0554
  987loPI   C3A14437  18.960  17.508   7.653 -0.1392 -0.1086 -0.1033
  987loPI   C4A14438  18.725  17.183   7.770 -0.1183 -0.0010 -0.2206
  987loPI   C5A14439  18.415  16.907   8.013 -0.4553 -0.0404  0.0939
  987loPI   C6A14440  18.333  16.503   7.780 -0.1719 -0.3590  0.1848
  987loPI   C1B14441  18.113  17.824   7.118  0.2477  0.0903 -0.0299
  987loPI   C2B14442  18.141  17.860   7.589 -0.0036  0.1675 -0.0010
  987loPI   C3B14443  18.138  17.924   7.984 -0.0434  0.0591 -0.0665
  987loPI   C4B14444  18.003  17.887   8.328  0.0028 -0.0410  0.0855
  988loPI    C114445  11.337   9.259   5.100  0.0191 -0.2304  0.1591
  988loPI    C214446  11.423   9.088   4.749  0.0057  0.0734  0.0046
  988loPI    C314447  11.074   9.011   4.928 -0.1027  0.1254 -0.1816
  988loPI   PO414448  11.558   9.323   5.290 -0.1206 -0.0487 -0.0362
  988loPI   GL114449  11.640   9.103   5.649 -0.1467  0.2573  0.2785
  988loPI   GL214450  11.667   8.767   5.558  0.0740 -0.0907 -0.2270
  988loPI   C1A14451  11.675   9.216   6.108 -0.0431  0.0502  0.0953
  988loPI   C2A14452  12.038   9.245   6.453  0.0568  0.2040  0.1721
  988loPI   C3A14453  12.199   9.328   6.853 -0.4081  0.4223 -0.3176
  988loPI   C4A14454  12.601   9.112   7.131  0.1496 -0.0107 -0.1561
  988loPI   C5A14455  12.776   9.109   7.613  0.1164 -0.1039 -0.1432
  988loPI   C6A14456  12.559   9.124   7.969  0.0445  0.1656 -0.2222
  988loPI   C1B14457  11.723   8.701   6.085 -0.0469  0.2872 -0.1917
  988loPI   C2B14458  11.787   8.779   6.416  0.3060 -0.5927  0.1417
  988loPI   C3B14459  11.768   8.937   6.815 -0.1985  0.0356 -0.1928
  988loPI   C4B14460  11.445   9.050   7.152 -0.0191 -0.1950 -0.0594
  989loPI    C114461  17.164  12.515   5.214  0.0068 -0.0309  0.0149
  989loPI    C214462  17.183  12.588   5.606  0.0140 -0.2687  0.0600
  989loPI    C314463  17.455  12.352   5.434  0.1076 -0.0337 -0.1192
  989loPI   PO414464  16.924  12.376   5.195  0.2410 -0.0391 -0.0289
  989loPI   GL114465  16.725  12.375   5.534  0.0335  0.1274 -0.1981
  989loPI   GL214466  16.641  12.117   5.528 -0.1492  0.0024 -0.1912
  989loPI   C1A14467  16.889  12.232   5.926 -0.0080  0.0986  0.0240
  989loPI   C2A14468  16.854  12.128   6.372  0.0201 -0.2332 -0.0594
  989loPI   C3A14469  16.817  12.002   6.727  0.2175 -0.0461 -0.2815
  989loPI   C4A14470  16.851  12.062   7.195  0.3305 -0.0689  0.0747
  989loPI   C5A14471  16.610  12.316   7.426  0.2140  0.1887  0.1570
  989loPI   C6A14472  16.121  12.311   7.512  0.0905 -0.0910 -0.3629
  989loPI   C1B14473  16.526  11.888   5.934  0.4157  0.3595 -0.0686
  989loPI   C2B14474  16.441  11.725   6.267  0.1517  0.0215  0.1217
  989loPI   C3B14475  16.522  11.622   6.644 -0.3838 -0.0096 -0.0863
  989loPI   C4B14476  16.731  11.508   6.932 -0.0054 -0.0985  0.2503
  990loPI    C114477   2.832   0.269   5.597  0.3400 -0.2646  0.2468
  990loPI    C214478   3.073  -0.029   5.481  0.1075 -0.3478 -0.0317
  990loPI    C314479   2.683  -0.038   5.389  0.1469  0.1773 -0.2914
  990loPI   PO414480   2.930   0.289   5.788  0.0047 -0.0091 -0.1526
  990loPI   GL114481   2.901   0.095   6.239  0.4547  0.2525  0.0157
  990loPI   GL214482   2.564  -0.044   6.267  0.0806  0.0303 -0.1032
  990loPI   C1A14483   3.055  -0.120   6.531 -0.2613  0.2944 -0.0227
  990loPI   C2A14484   3.445  -0.200   6.787  0.0570 -0.1006  0.2975
  990loPI   C3A14485   3.494   0.075   7.096 -0.2351  0.2934 -0.2074
  990loPI   C4A14486   3.417   0.357   7.392 -0.3937  0.1526 -0.1755
  990loPI   C5A14487   3.070   0.242   7.646 -0.0435 -0.1271  0.0578
  990loPI   C6A14488   2.778   0.121   7.945 -0.0599 -0.1475 -0.0650
  990loPI   C1B14489   2.595  -0.224   6.677  0.0344 -0.0259  0.3415
  990loPI   C2B14490   2.603  -0.313   7.186 -0.2885  0.1701 -0.0937
  990loPI   C3B14491   2.822  -0.354   7.601 -0.1519 -0.2773 -0.0349
  990loPI   C4B14492   3.179  -0.302   7.800 -0.3787 -0.0972 -0.0311
  991loPI    C114493  13.890  12.945   5.426  0.0520 -0.0061  0.1189
  991loPI    C214494  14.253  12.907   5.263  0.0711  0.3279  0.0765
  991loPI    C314495  13.991  13.168   5.110 -0.1948  0.0778  0.0967
  991loPI   PO414496  14.030  12.877   5.719  0.1059  0.2134 -0.1382
  991loPI   GL114497  13.776  12.744   6.067 -0.0698 -0.1384  0.0232
  991loPI   GL214498  13.655  12.402   6.078 -0.1644  0.1161  0.1145
  991loPI   C1A14499  13.630  12.723   6.500 -0.1206  0.1187  0.1094
  991loPI   C2A14500  13.773  12.735   7.072  0.3096  0.0663  0.3566
  991loPI   C3A14501  13.690  12.795   7.501  0.1236  0.0116 -0.1524
  991loPI   C4A14502  13.556  12.658   7.907  0.3536  0.0804  0.1520
  991loPI   C5A14503  13.420  12.246   7.971  0.0263 -0.2880 -0.0555
  991loPI   C6A14504  13.360  11.798   7.931  0.0847 -0.1567 -0.0937
  991loPI   C1B14505  13.322  12.335   6.410 -0.0924  0.1003 -0.1207
  991loPI   C2B14506  13.165  12.194   6.777 -0.2353  0.0993 -0.1688
  991loPI   C3B14507  13.098  12.361   7.205  0.0149 -0.1512  0.3010
  991loPI   C4B14508  13.123  12.265   7.599  0.1760  0.2932 -0.1805
  992loPI    C114509  10.783   4.909   5.130  0.3061  0.0823  0.0619
  992loPI    C214510  10.608   5.269   5.150  0.2776  0.0809 -0.1392
  992loPI    C314511  10.459   4.987   4.908  0.4332  0.0088 -0.1527
  992loPI   PO414512  10.807   4.768   5.304  0.1729 -0.2402  0.1707
  992loPI   GL114513  10.740   4.561   5.728 -0.0342 -0.0509  0.0256
  992loPI   GL214514  10.613   4.814   5.823  0.0065  0.0090 -0.0466
  992loPI   C1A14515  10.858   4.458   6.128  0.3965  0.1083  0.2712
  992loPI   C2A14516  10.914   4.593   6.538  0.1226 -0.0645  0.0113
  992loPI   C3A14517  10.804   4.557   6.942 -0.0913 -0.0316 -0.0831
  992loPI   C4A14518  11.098   4.708   7.259  0.2328  0.0462  0.0462
  992loPI   C5A14519  11.267   5.050   7.603  0.1501 -0.0399  0.1302
  992loPI   C6A14520  11.467   5.422   7.719  0.0993  0.4367 -0.0545
  992loPI   C1B14521  10.640   4.959   6.240 -0.0747 -0.0329 -0.1241
  992loPI   C2B14522  10.727   4.999   6.697  0.0952  0.0837  0.1644
  992loPI   C3B14523  10.988   5.192   6.855  0.0703 -0.2513  0.3701
  992loPI   C4B14524  11.366   5.435   6.785  0.0025  0.1168  0.0868
  993loPI    C114525   3.600   2.359   5.764  0.0076 -0.0849 -0.1525
  993loPI    C214526   3.399   2.447   5.430 -0.2368  0.2011  0.0641
  993loPI    C314527   3.311   2.115   5.635 -0.2253  0.1298 -0.0455
  993loPI   PO414528   3.751   2.565   5.823 -0.1982  0.4658 -0.1391
  993loPI   GL114529   3.978   2.848   6.002  0.2839  0.1102 -0.0062
  993loPI   GL214530   3.660   3.025   6.115 -0.1730 -0.2667  0.0467
  993loPI   C1A14531   4.182   2.909   6.381  0.0078 -0.1837 -0.1167
  993loPI   C2A14532   4.515   2.841   6.608 -0.0105 -0.1871  0.3953
  993loPI   C3A14533   4.569   2.752   7.092  0.0040 -0.0330  0.3529
  993loPI   C4A14534   4.589   2.475   7.333  0.1710 -0.2732  0.0338
  993loPI   C5A14535   4.721   2.240   7.611 -0.1341 -0.2099  0.1969
  993loPI   C6A14536   4.824   1.916   7.890  0.1488  0.0889  0.2227
  993loPI   C1B14537   3.602   2.878   6.513  0.0995  0.0942  0.1839
  993loPI   C2B14538   3.526   2.869   6.839  0.1635 -0.5001  0.1544
  993loPI   C3B14539   3.444   2.732   7.236  0.0118  0.2528  0.1353
  993loPI   C4B14540   3.318   2.263   7.283 -0.0970  0.2160  0.3614
  994loPI    C114541   6.196  17.758   5.000 -0.0051 -0.1652  0.2020
  994loPI    C214542   5.815  17.641   4.960  0.0227 -0.1588 -0.1018
  994loPI    C314543   6.102  17.467   4.741  0.1457  0.0753 -0.1298
  994loPI   PO414544   6.235  17.764   5.246  0.1477 -0.0187  0.4252
  994loPI   GL114545   6.405  18.042   5.689  0.0882 -0.0240 -0.0517
  994loPI   GL214546   6.103  18.083   5.599  0.1274  0.0047 -0.1871
  994loPI   C1A14547   6.599  18.123   6.055  0.1412  0.0655 -0.0306
  994loPI   C2A14548   6.763  17.813   6.330 -0.0599  0.0735 -0.0644
  994loPI   C3A14549   6.745  17.704   6.769 -0.2560 -0.0816  0.5870
  994loPI   C4A14550   6.649  17.713   7.239 -0.2150  0.1198  0.1607
  994loPI   C5A14551   6.396  17.810   7.559  0.0229 -0.1556  0.0731
  994loPI   C6A14552   6.399  17.550   7.901 -0.2692  0.1161  0.3340
  994loPI   C1B14553   5.719  18.092   5.880 -0.1663 -0.0071 -0.1233
  994loPI   C2B14554   5.575  18.116   6.205  0.1755  0.1074 -0.0724
  994loPI   C3B14555   5.271  18.000   6.424  0.1008 -0.0790 -0.0317
  994loPI   C4B14556   4.942  17.570   6.441 -0.1512 -0.0900  0.1423
  995loPI    C114557   6.103   0.196   5.130  0.0480 -0.3096  0.0038
  995loPI    C214558   5.754   0.331   4.989  0.1165 -0.0613  0.0679
  995loPI    C314559   6.048   0.588   5.076  0.2588 -0.2555  0.1687
  995loPI   PO414560   6.025   0.127   5.370  0.1592 -0.3057 -0.4609
  995loPI   GL114561   6.058   0.055   5.798 -0.0422  0.1446 -0.3109
  995loPI   GL214562   6.389   0.057   5.757  0.2714 -0.0719 -0.0695
  995loPI   C1A14563   6.079  -0.233   6.155 -0.0604 -0.0028  0.1200
  995loPI   C2A14564   5.933  -0.240   6.516  0.0259  0.0741 -0.0299
  995loPI   C3A14565   5.612  -0.507   6.762 -0.0061  0.2802  0.0315
  995loPI   C4A14566   5.388  -0.544   7.157  0.0242 -0.3274 -0.1352
  995loPI   C5A14567   5.353  -0.521   7.583  0.0762 -0.0965  0.1465
  995loPI   C6A14568   5.455  -0.825   7.797 -0.1053  0.2352  0.0525
  995loPI   C1B14569   6.459   0.073   6.222 -0.1339 -0.2313  0.0477
  995loPI   C2B14570   6.350   0.016   6.685  0.2745  0.2510  0.1331
  995loPI   C3B14571   6.155   0.015   7.071  0.1926 -0.1165  0.0568
  995loPI   C4B14572   5.913  -0.223   7.209  0.1756  0.1440  0.0923
  996loPI    C114573   9.795  15.255   5.835  0.0836  0.3398 -0.1321
  996loPI    C214574  10.094  15.193   5.577 -0.0639 -0.0142 -0.2230
  996loPI    C314575   9.758  15.372   5.454  0.0801  0.3216 -0.1373
  996loPI   PO414576   9.936  15.423   6.050 -0.1370 -0.0390 -0.4001
  996loPI   GL114577   9.707  15.662   6.283  0.0258 -0.2739  0.1129
  996loPI   GL214578   9.496  15.398   6.341 -0.1694  0.0008  0.0894
  996loPI   C1A14579   9.916  15.844   6.641  0.0906 -0.0735  0.3062
  996loPI   C2A14580  10.072  15.601   7.042 -0.3934  0.0092 -0.1544
  996loPI   C3A14581  10.083  15.762   7.471  0.2376 -0.0481 -0.1827
  996loPI   C4A14582  10.327  16.037   7.675  0.0550  0.2269  0.2761
  996loPI   C5A14583  10.271  16.257   8.011  0.0191 -0.0762  0.1263
  996loPI   C6A14584  10.389  16.158   8.512 -0.0689  0.0752  0.2012
  996loPI   C1B14585   9.363  15.094   6.566  0.2349  0.2259 -0.2827
  996loPI   C2B14586   9.468  14.950   6.988 -0.2456  0.1335  0.1761
  996loPI   C3B14587   9.750  14.651   7.125 -0.1230 -0.2284  0.1157
  996loPI   C4B14588  10.060  14.707   7.391 -0.4122 -0.3226 -0.5219
  997loPI    C114589   8.335  17.986   5.141  0.1402  0.1291 -0.0455
  997loPI    C214590   8.114  18.215   4.899  0.0406  0.0434 -0.0365
  997loPI    C314591   8.506  18.173   4.832  0.0298  0.0902 -0.1310
  997loPI   PO414592   8.316  18.071   5.348 -0.0157  0.0620 -0.0385
  997loPI   GL114593   8.108  17.942   5.650 -0.2073 -0.0967  0.1190
  997loPI   GL214594   7.866  17.665   5.636 -0.1340  0.0873  0.2431
  997loPI   C1A14595   8.045  17.702   6.082 -0.0916 -0.0504  0.1084
  997loPI   C2A14596   7.846  17.866   6.414 -0.1399 -0.0932 -0.0356
  997loPI   C3A14597   7.692  17.951   6.829  0.0334  0.0918  0.0225
  997loPI   C4A14598   7.320  18.229   7.055 -0.0574  0.0477 -0.1375
  997loPI   C5A14599   7.011  18.139   7.317 -0.1424 -0.1535  0.1515
  997loPI   C6A14600   6.903  17.933   7.626 -0.0686 -0.0811  0.2212
  997loPI   C1B14601   7.642  17.988   5.951 -0.0811 -0.2326 -0.0899
  997loPI   C2B14602   7.531  18.314   6.267 -0.1089 -0.0553  0.2219
  997loPI   C3B14603   7.466  18.492   6.629  0.0477 -0.0835  0.0203
  997loPI   C4B14604   7.436  18.727   7.024 -0.0275 -0.2374  0.1270
  998loPI    C114605  14.388   4.562   4.879  0.0709 -0.2005  0.0066
  998loPI    C214606  14.589   4.797   4.625  0.0533 -0.1836  0.0083
  998loPI    C314607  14.229   4.655   4.524  0.0049 -0.0997  0.0625
  998loPI   PO414608  14.341   4.687   5.150  0.2227 -0.2196 -0.0144
  998loPI   GL114609  14.420   4.654   5.570  0.1523  0.1365 -0.1150
  998loPI   GL214610  14.528   4.923   5.566 -0.0169  0.0013 -0.4191
  998loPI   C1A14611  14.411   4.621   5.994 -0.0103 -0.1779  0.0666
  998loPI   C2A14612  14.444   4.785   6.363  0.1803  0.2651 -0.1546
  998loPI   C3A14613  14.623   5.008   6.719 -0.1519  0.1039  0.1698
  998loPI   C4A14614  14.766   4.862   7.027  0.1076  0.2417 -0.0434
  998loPI   C5A14615  14.997   4.855   7.343 -0.2048 -0.1208 -0.1762
  998loPI   C6A14616  14.981   4.691   7.812 -0.2941  0.0676  0.0116
  998loPI   C1B14617  14.743   5.192   5.838  0.1750  0.0436  0.3064
  998loPI   C2B14618  14.880   5.158   6.288  0.0898  0.1419 -0.0301
  998loPI   C3B14619  15.158   5.042   6.676 -0.0802  0.0984  0.1165
  998loPI   C4B14620  15.529   5.169   6.657 -0.2422  0.2023  0.1473
  999loPI    C114621   9.570  16.927   5.535 -0.3097 -0.1163 -0.0877
  999loPI    C214622   9.613  16.686   5.218 -0.2027 -0.1471 -0.0505
  999loPI    C314623   9.613  16.532   5.587  0.0811 -0.0686 -0.0156
  999loPI   PO414624   9.670  17.145   5.553  0.3133 -0.4171 -0.1118
  999loPI   GL114625   9.620  17.363   5.944  0.1717  0.0216 -0.2509
  999loPI   GL214626   9.881  17.358   6.037 -0.2485  0.1530  0.0572
  999loPI   C1A14627   9.481  17.328   6.345  0.0084 -0.0132  0.1520
  999loPI   C2A14628   9.179  17.132   6.734 -0.1456  0.0535 -0.2472
  999loPI   C3A14629   9.185  17.037   7.231 -0.0637 -0.2455 -0.1589
  999loPI   C4A14630   9.321  16.652   7.593  0.1804  0.1289  0.2588
  999loPI   C5A14631   9.454  16.419   7.992 -0.0288 -0.0078  0.1435
  999loPI   C6A14632   9.545  16.134   8.186  0.2105  0.2273 -0.2137
  999loPI   C1B14633   9.915  17.423   6.446  0.2434 -0.0519  0.0099
  999loPI   C2B14634  10.070  17.313   6.874  0.2376 -0.0017  0.0648
  999loPI   C3B14635  10.016  17.384   7.264 -0.0740  0.1555  0.0622
  999loPI   C4B14636  10.077  17.567   7.699  0.3431 -0.2180  0.1429
 1000loPI    C114637  17.214  13.339   5.002  0.0825  0.1421 -0.0271
 1000loPI    C214638  17.579  13.299   4.844  0.0839  0.2314 -0.0470
 1000loPI    C314639  17.259  13.318   4.605  0.0766  0.2656 -0.0346
 1000loPI   PO414640  17.252  13.533   5.173  0.3525 -0.0462  0.0457
 1000loPI   GL114641  17.212  13.417   5.565 -0.3496 -0.1612 -0.0444
 1000loPI   GL214642  17.293  13.066   5.559 -0.1841  0.1360 -0.1172
 1000loPI   C1A14643  17.245  13.542   5.963  0.0751 -0.1512  0.1678
 1000loPI   C2A14644  17.364  13.603   6.441 -0.2458 -0.0867  0.2704
 1000loPI   C3A14645  17.296  13.559   6.901  0.3257 -0.2048 -0.0968
 1000loPI   C4A14646  17.378  13.476   7.339  0.2701 -0.0887 -0.2487
 1000loPI   C5A14647  17.395  13.301   7.762  0.2125  0.1784 -0.2916
 1000loPI   C6A14648  17.131  13.093   8.070 -0.1511  0.1853 -0.0682
 1000loPI   C1B14649  17.251  12.975   5.978  0.2060 -0.2350 -0.1884
 1000loPI   C2B14650  16.934  12.735   6.150 -0.1766 -0.5148 -0.3046
 1000loPI   C3B14651  16.832  12.671   6.600  0.1229  0.0580  0.0338
 1000loPI   C4B14652  17.067  12.456   6.937 -0.0220 -0.0885 -0.0374
 1001loPI    C114653   3.011   4.330   5.248 -0.1026 -0.2248  0.1792
 1001loPI    C214654   3.151   4.461   4.896  0.0988 -0.0439  0.3235
 1001loPI    C314655   2.791   4.286   4.917  0.1298 -0.1504  0.0122
 1001loPI   PO414656   2.971   4.506   5.380 -0.0827  0.1400 -0.1514
 1001loPI   GL114657   3.286   4.650   5.722  0.0543  0.0383  0.1687
 1001loPI   GL214658   3.625   4.614   5.871  0.0664  0.1267 -0.0943
 1001loPI   C1A14659   3.264   4.663   6.156  0.3646 -0.4147 -0.3616
 1001loPI   C2A14660   3.387   4.645   6.581 -0.5384 -0.0884 -0.0387
 1001loPI   C3A14661   3.070   4.630   6.887  0.2048 -0.1577  0.0913
 1001loPI   C4A14662   3.212   4.679   7.402 -0.0777 -0.1743 -0.3002
 1001loPI   C5A14663   3.524   4.537   7.674  0.0340 -0.0738  0.2169
 1001loPI   C6A14664   3.776   4.408   7.974  0.0422 -0.0422  0.3330
 1001loPI   C1B14665   3.789   4.762   6.277  0.2512  0.1235 -0.0179
 1001loPI   C2B14666   3.906   4.773   6.688  0.0292 -0.0558  0.3722
 1001loPI   C3B14667   4.056   4.556   7.007  0.4813 -0.1365  0.0349
 1001loPI   C4B14668   4.037   4.492   7.445 -0.1675  0.1965  0.2280
 1002loPI    C114669   9.650   6.715   5.375  0.0359 -0.2197 -0.0452
 1002loPI    C214670   9.973   6.829   5.169 -0.0282  0.4774  0.2123
 1002loPI    C314671   9.617   6.994   5.091 -0.3440 -0.2928 -0.0793
 1002loPI   PO414672   9.778   6.700   5.709  0.2842  0.2322 -0.0257
 1002loPI   GL114673   9.772   6.741   6.018 -0.1069  0.0695 -0.1332
 1002loPI   GL214674   9.922   6.971   6.082 -0.2976  0.2837  0.1596
 1002loPI   C1A14675   9.567   6.769   6.422 -0.2205  0.0193  0.0940
 1002loPI   C2A14676   9.511   6.786   6.767  0.1386  0.0538 -0.1216
 1002loPI   C3A14677   9.352   7.002   7.159  0.1098 -0.0315  0.0184
 1002loPI   C4A14678   8.933   6.990   7.383  0.1440  0.2252 -0.0107
 1002loPI   C5A14679   8.457   7.105   7.419  0.3278  0.1125 -0.2132
 1002loPI   C6A14680   8.051   7.195   7.550  0.2270 -0.0390 -0.3047
 1002loPI   C1B14681  10.031   7.089   6.491 -0.1101 -0.0712  0.0297
 1002loPI   C2B14682  10.064   7.039   6.907 -0.0028  0.1153  0.2208
 1002loPI   C3B14683  10.269   7.186   7.356  0.0803  0.4917 -0.0305
 1002loPI   C4B14684  10.134   7.311   7.729  0.0771  0.0345 -0.0589
 1003loPI    C114685  11.571   4.196   5.078  0.1015  0.2215 -0.1356
 1003loPI    C214686  11.539   3.843   4.891  0.0246  0.1274  0.0523
 1003loPI    C314687  11.569   4.181   4.678  0.1315  0.0053 -0.1288
 1003loPI   PO414688  11.780   4.193   5.305 -0.0483  0.0503 -0.0152
 1003loPI   GL114689  11.816   4.437   5.603 -0.0573 -0.4845 -0.0017
 1003loPI   GL214690  11.736   4.748   5.715  0.0986 -0.0869  0.3571
 1003loPI   C1A14691  11.969   4.359   6.028  0.2863  0.2155 -0.0609
 1003loPI   C2A14692  12.136   4.256   6.415  0.0505  0.1971  0.0567
 1003loPI   C3A14693  12.115   4.146   6.830 -0.2793 -0.1939 -0.4292
 1003loPI   C4A14694  12.147   4.137   7.233 -0.1576 -0.1822 -0.1884
 1003loPI   C5A14695  12.456   4.085   7.592  0.0503 -0.1435 -0.0213
 1003loPI   C6A14696  12.577   3.991   8.004 -0.1475  0.1096  0.1085
 1003loPI   C1B14697  11.710   4.793   6.065 -0.2922  0.2433 -0.0853
 1003loPI   C2B14698  11.792   4.617   6.429 -0.4321 -0.1519 -0.1612
 1003loPI   C3B14699  11.801   4.528   6.857 -0.3183  0.1974 -0.1416
 1003loPI   C4B14700  11.582   4.571   7.186 -0.0601 -0.0855 -0.1434
 1004loPI    C114701   6.128  12.089   5.183  0.2086 -0.0256 -0.2924
 1004loPI    C214702   5.793  12.253   5.039  0.0202 -0.3180 -0.1945
 1004loPI    C314703   6.107  12.195   4.798 -0.0371 -0.1441 -0.3132
 1004loPI   PO414704   6.180  12.212   5.380 -0.2088  0.1862 -0.0015
 1004loPI   GL114705   6.072  12.269   5.825  0.1783 -0.2091 -0.3083
 1004loPI   GL214706   6.338  11.919   5.816 -0.1308  0.1092  0.2909
 1004loPI   C1A14707   6.241  12.560   6.045  0.2180  0.0162 -0.0395
 1004loPI   C2A14708   6.452  12.630   6.426  0.0361 -0.0952  0.0016
 1004loPI   C3A14709   6.643  12.628   6.898  0.3099  0.0262 -0.0754
 1004loPI   C4A14710   6.601  12.615   7.339 -0.0337  0.0384 -0.0772
 1004loPI   C5A14711   6.566  12.339   7.638  0.3043 -0.2528 -0.1141
 1004loPI   C6A14712   6.570  12.013   8.072  0.1890 -0.0972  0.1199
 1004loPI   C1B14713   6.309  12.065   6.250 -0.3413  0.0360  0.0243
 1004loPI   C2B14714   6.510  12.188   6.622  0.4166 -0.1373 -0.0006
 1004loPI   C3B14715   6.385  12.190   7.000 -0.0700 -0.3668  0.0453
 1004loPI   C4B14716   6.104  12.025   7.179  0.0004  0.1419 -0.0097
 1005loPI    C114717   1.437   5.973   5.191 -0.1678 -0.2120 -0.0448
 1005loPI    C214718   1.563   6.335   5.076 -0.0427 -0.2031  0.1175
 1005loPI    C314719   1.228   6.182   4.921  0.0606 -0.1432 -0.1712
 1005loPI   PO414720   1.449   5.926   5.441  0.3045  0.2704  0.2540
 1005loPI   GL114721   1.291   5.984   5.851  0.2969 -0.0296  0.0891
 1005loPI   GL214722   1.409   5.691   5.893  0.0012 -0.0670  0.1318
 1005loPI   C1A14723   1.109   6.212   6.187  0.1683 -0.0101  0.2431
 1005loPI   C2A14724   0.942   6.040   6.601 -0.1457  0.2208 -0.1962
 1005loPI   C3A14725   1.011   6.159   7.028 -0.0138  0.1687 -0.3582
 1005loPI   C4A14726   0.953   5.890   7.394 -0.1095 -0.0648 -0.1049
 1005loPI   C5A14727   1.064   6.230   7.763 -0.1127 -0.1275 -0.2264
 1005loPI   C6A14728   1.436   6.449   7.976  0.3814 -0.2432  0.0536
 1005loPI   C1B14729   1.277   5.740   6.342 -0.1713  0.0650 -0.0826
 1005loPI   C2B14730   1.163   5.595   6.660  0.0352 -0.2096 -0.1234
 1005loPI   C3B14731   1.280   5.647   7.026  0.0860  0.2661 -0.1680
 1005loPI   C4B14732   1.407   5.623   7.353 -0.0221 -0.0300 -0.0435
 1006loPI    C114733   1.281  14.161   5.700  0.0204  0.1972  0.0316
 1006loPI    C214734   1.032  13.926   5.493  0.1087 -0.1953  0.3597
 1006loPI    C314735   0.974  14.322   5.499 -0.0631 -0.2051 -0.1724
 1006loPI   PO414736   1.287  14.162   5.930 -0.0127 -0.0374 -0.1736
 1006loPI   GL114737   1.081  14.107   6.247 -0.3072  0.2375  0.2194
 1006loPI   GL214738   0.852  13.957   6.024  0.2258  0.2147 -0.2405
 1006loPI   C1A14739   1.104  13.940   6.724  0.0711  0.2168 -0.3602
 1006loPI   C2A14740   0.982  14.018   7.222 -0.1281 -0.1002  0.1609
 1006loPI   C3A14741   0.954  14.218   7.575 -0.0154  0.1397 -0.4134
 1006loPI   C4A14742   1.058  14.024   7.995  0.0047 -0.0071 -0.2973
 1006loPI   C5A14743   1.320  13.738   8.175  0.1674 -0.2544 -0.1134
 1006loPI   C6A14744   1.726  13.592   8.289  0.2839 -0.2739  0.1093
 1006loPI   C1B14745   0.674  13.860   6.437 -0.0239 -0.3404  0.0299
 1006loPI   C2B14746   0.554  13.907   6.814 -0.0495  0.0083  0.0831
 1006loPI   C3B14747   0.499  13.876   7.210  0.0288  0.1586 -0.2409
 1006loPI   C4B14748   0.590  13.847   7.675  0.3881 -0.0512 -0.1526
 1007loPI    C114749  14.712   2.402   5.267 -0.0472  0.1612  0.0369
 1007loPI    C214750  14.396   2.440   5.025  0.0312  0.1095 -0.0746
 1007loPI    C314751  14.675   2.165   4.947 -0.0793 -0.0924  0.2258
 1007loPI   PO414752  14.770   2.596   5.339 -0.1889 -0.3815 -0.0398
 1007loPI   GL114753  14.734   2.770   5.839  0.1301  0.0981  0.0275
 1007loPI   GL214754  15.112   2.699   6.070  0.1748  0.0961 -0.2465
 1007loPI   C1A14755  14.562   2.778   6.247  0.2089 -0.3896  0.1270
 1007loPI   C2A14756  14.535   3.021   6.694 -0.3569  0.0237  0.0019
 1007loPI   C3A14757  14.520   3.067   7.123  0.2037 -0.1212 -0.1477
 1007loPI   C4A14758  14.472   3.285   7.502  0.1225  0.2502  0.0612
 1007loPI   C5A14759  14.308   3.028   7.835  0.1236 -0.1185  0.2044
 1007loPI   C6A14760  14.010   2.694   7.896 -0.1406 -0.0435 -0.0193
 1007loPI   C1B14761  14.991   2.807   6.444 -0.4262  0.0241 -0.0159
 1007loPI   C2B14762  14.990   2.837   6.865 -0.3219 -0.0010 -0.0931
 1007loPI   C3B14763  14.777   2.674   7.283  0.1676  0.2047 -0.2757
 1007loPI   C4B14764  14.733   2.782   7.739  0.0553 -0.0677 -0.0104
 1008loPI    C114765   0.844  11.772   5.556  0.0269 -0.2509 -0.0330
 1008loPI    C214766   1.051  11.743   5.215  0.0382  0.0656 -0.0557
 1008loPI    C314767   0.810  12.056   5.277 -0.0336 -0.0362  0.1901
 1008loPI   PO414768   0.711  11.576   5.633 -0.3458 -0.1319  0.0594
 1008loPI   GL114769   0.372  11.473   5.923  0.1707  0.2744 -0.1073
 1008loPI   GL214770   0.559  11.627   6.132  0.2945  0.0455  0.1832
 1008loPI   C1A14771   0.042  11.813   6.245 -0.2179  0.2498 -0.0397
 1008loPI   C2A14772  -0.118  11.802   6.516 -0.0694  0.0258 -0.1543
 1008loPI   C3A14773  -0.190  11.564   6.889  0.1191 -0.2395  0.0583
 1008loPI   C4A14774  -0.063  11.526   7.216 -0.2850 -0.0910  0.2332
 1008loPI   C5A14775   0.238  11.426   7.581 -0.0500 -0.0574  0.2559
 1008loPI   C6A14776   0.336  11.370   7.990 -0.1061  0.0450 -0.2614
 1008loPI   C1B14777   0.426  11.630   6.542 -0.1770  0.4081 -0.0464
 1008loPI   C2B14778   0.459  11.466   6.961  0.4424 -0.0250 -0.0261
 1008loPI   C3B14779   0.614  11.228   7.297 -0.0515  0.0150 -0.1350
 1008loPI   C4B14780   0.858  11.088   7.618  0.0484 -0.3169 -0.0592
 1009loPI    C114781  11.176  11.133   5.452 -0.1057 -0.1768 -0.1436
 1009loPI    C214782  11.187  11.526   5.526 -0.2988 -0.1790 -0.0992
 1009loPI    C314783  11.291  11.388   5.166  0.2588 -0.1332  0.0357
 1009loPI   PO414784  10.915  11.085   5.555 -0.0137 -0.1454 -0.1617
 1009loPI   GL114785  10.655  11.186   5.986 -0.1827  0.3914 -0.1813
 1009loPI   GL214786  10.449  10.962   6.170 -0.2070  0.0486 -0.1657
 1009loPI   C1A14787  10.921  11.064   6.284  0.1675 -0.1543  0.2952
 1009loPI   C2A14788  11.127  10.953   6.693 -0.3103 -0.1339 -0.0560
 1009loPI   C3A14789  11.062  10.738   7.039 -0.1263 -0.1785 -0.1956
 1009loPI   C4A14790  11.037  10.568   7.432 -0.0799  0.0435  0.1709
 1009loPI   C5A14791  10.883  10.392   7.723 -0.0638  0.1316 -0.0154
 1009loPI   C6A14792  10.606  10.227   8.026  0.1296  0.1857  0.0358
 1009loPI   C1B14793  10.472  10.767   6.519  0.2329  0.0860 -0.1428
 1009loPI   C2B14794  10.517  10.511   6.903  0.0493  0.2071  0.1600
 1009loPI   C3B14795  10.552  10.417   7.213 -0.1871 -0.0864 -0.2191
 1009loPI   C4B14796  10.355  10.427   7.601  0.0893  0.0529 -0.0642
 1010loPI    C114797  13.088  11.241   4.683  0.2495  0.1363 -0.1245
 1010loPI    C214798  13.172  10.875   4.547 -0.0416  0.0122  0.0226
 1010loPI    C314799  12.810  11.033   4.486 -0.0315  0.1328  0.2641
 1010loPI   PO414800  13.278  11.286   4.985  0.1277  0.0356 -0.0071
 1010loPI   GL114801  13.256  11.243   5.504  0.2863 -0.0977 -0.0036
 1010loPI   GL214802  13.267  10.883   5.438 -0.0716  0.0373  0.1578
 1010loPI   C1A14803  13.287  11.191   5.834 -0.0465  0.0113 -0.1806
 1010loPI   C2A14804  13.428  10.841   6.211  0.1187  0.4396 -0.2548
 1010loPI   C3A14805  13.649  10.603   6.533 -0.0025 -0.1999  0.3636
 1010loPI   C4A14806  13.887  10.483   6.886  0.1123 -0.0128  0.0647
 1010loPI   C5A14807  13.969  10.222   7.275  0.0382 -0.0666 -0.0925
 1010loPI   C6A14808  14.048  10.078   7.631 -0.2685  0.1507 -0.0132
 1010loPI   C1B14809  13.246  10.696   5.765 -0.0711  0.2954  0.0927
 1010loPI   C2B14810  13.235  10.352   6.080 -0.0816 -0.3222 -0.2604
 1010loPI   C3B14811  13.033   9.961   6.357 -0.1414 -0.1698 -0.2972
 1010loPI   C4B14812  12.902   9.652   6.332 -0.1211  0.1711  0.3024
 1011loPI    C114813   4.807   8.628   5.013 -0.4641 -0.1545 -0.3245
 1011loPI    C214814   5.175   8.735   4.901 -0.2757 -0.2962  0.1347
 1011loPI    C314815   5.030   8.379   4.794 -0.1641 -0.3605  0.1951
 1011loPI   PO414816   4.752   8.579   5.331  0.2904 -0.0168 -0.0651
 1011loPI   GL114817   4.401   8.536   5.593 -0.0685  0.1796  0.2026
 1011loPI   GL214818   4.332   8.277   5.658 -0.1233  0.3019  0.1374
 1011loPI   C1A14819   4.495   8.616   6.000  0.0386 -0.1017 -0.2843
 1011loPI   C2A14820   4.658   8.860   6.361 -0.0912 -0.1736  0.2261
 1011loPI   C3A14821   4.739   8.823   6.720  0.1529  0.2458  0.1352
 1011loPI   C4A14822   4.639   8.952   7.112 -0.0313  0.0190  0.0211
 1011loPI   C5A14823   4.562   8.772   7.568  0.0368  0.0463 -0.0596
 1011loPI   C6A14824   4.686   8.397   7.766 -0.1252 -0.2348 -0.2731
 1011loPI   C1B14825   4.323   8.121   6.039 -0.1894 -0.1501 -0.0387
 1011loPI   C2B14826   4.478   7.959   6.456  0.2724  0.1116 -0.0996
 1011loPI   C3B14827   4.458   7.884   6.928 -0.4731  0.0780 -0.1282
 1011loPI   C4B14828   4.367   7.693   7.272 -0.2270  0.0965 -0.1175
 1012loPI    C114829   9.752   5.137   5.282 -0.1433  0.0667  0.0906
 1012loPI    C214830   9.600   5.005   4.937 -0.0350 -0.0000  0.0678
 1012loPI    C314831   9.605   5.397   5.016  0.0689  0.0268 -0.0685
 1012loPI   PO414832   9.675   4.978   5.440  0.1342  0.1294  0.1748
 1012loPI   GL114833   9.503   4.881   5.725  0.6308  0.3174 -0.2468
 1012loPI   GL214834   9.631   5.215   5.892 -0.0040  0.0268 -0.0262
 1012loPI   C1A14835   9.537   4.829   6.192 -0.0035  0.3228  0.3017
 1012loPI   C2A14836   9.348   4.769   6.528  0.0367  0.0656 -0.0561
 1012loPI   C3A14837   9.068   4.876   6.795  0.0702 -0.4479 -0.2723
 1012loPI   C4A14838   8.704   4.739   7.149  0.0281 -0.0702 -0.3244
 1012loPI   C5A14839   8.507   4.651   7.428 -0.1562 -0.1155 -0.2708
 1012loPI   C6A14840   8.594   4.551   7.839  0.3023  0.1823 -0.2062
 1012loPI   C1B14841   9.612   5.392   6.292  0.0774  0.1226 -0.4140
 1012loPI   C2B14842   9.561   5.239   6.709  0.0925 -0.1793  0.1525
 1012loPI   C3B14843   9.425   5.061   7.057 -0.1843 -0.0606 -0.0516
 1012loPI   C4B14844   9.315   5.107   7.417 -0.1334 -0.0753 -0.1083
 1013loPI    C114845   0.088   8.047   5.309  0.1114  0.1974 -0.0394
 1013loPI    C214846  -0.103   8.154   4.974  0.0040 -0.0398 -0.0558
 1013loPI    C314847   0.019   7.776   5.023  0.2171  0.0446  0.0780
 1013loPI   PO414848  -0.037   8.266   5.482  0.0754 -0.1876  0.1095
 1013loPI   GL114849   0.037   8.368   5.867  0.0496  0.2952  0.1523
 1013loPI   GL214850  -0.020   8.221   6.117 -0.0950 -0.0549  0.1282
 1013loPI   C1A14851  -0.340   8.572   6.154 -0.1226 -0.0432  0.2483
 1013loPI   C2A14852  -0.438   8.623   6.516 -0.0448 -0.0039  0.0263
 1013loPI   C3A14853  -0.507   8.469   6.861 -0.1608  0.1632 -0.3349
 1013loPI   C4A14854  -0.512   8.553   7.200  0.0565 -0.1908  0.0497
 1013loPI   C5A14855  -0.739   8.436   7.560  0.0312  0.3324  0.1131
 1013loPI   C6A14856  -0.526   8.196   7.884  0.0091  0.0649  0.0459
 1013loPI   C1B14857  -0.047   8.304   6.534 -0.1433 -0.4188  0.0149
 1013loPI   C2B14858  -0.054   8.312   6.959 -0.2463  0.1230 -0.3800
 1013loPI   C3B14859   0.155   8.343   7.315 -0.0480  0.2472 -0.1976
 1013loPI   C4B14860   0.358   8.416   7.693  0.0394 -0.1189  0.4538
 1014loPI    C114861   8.274   6.590   5.164 -0.0417 -0.3611 -0.3396
 1014loPI    C214862   8.050   6.844   4.951  0.0602  0.0624  0.0433
 1014loPI    C314863   8.392   6.704   4.800 -0.2688 -0.2970 -0.3952
 1014loPI   PO414864   8.276   6.676   5.390  0.2336  0.0525 -0.0863
 1014loPI   GL114865   8.221   6.436   5.711 -0.1277 -0.0966 -0.2622
 1014loPI   GL214866   7.854   6.516   5.844 -0.0562 -0.0366 -0.1318
 1014loPI   C1A14867   8.362   6.574   6.106 -0.2939  0.0763 -0.3083
 1014loPI   C2A14868   8.267   6.539   6.487 -0.2938  0.1796  0.3555
 1014loPI   C3A14869   8.113   6.405   6.912  0.0878 -0.2099 -0.1043
 1014loPI   C4A14870   8.139   6.274   7.264 -0.2998 -0.2327 -0.0266
 1014loPI   C5A14871   8.300   6.228   7.636  0.1678 -0.0457  0.0061
 1014loPI   C6A14872   8.322   6.183   8.024 -0.0753  0.0486 -0.0882
 1014loPI   C1B14873   7.863   6.573   6.206  0.2321 -0.1290  0.1622
 1014loPI   C2B14874   7.733   6.317   6.539  0.0025 -0.0305 -0.3403
 1014loPI   C3B14875   7.617   5.974   6.850  0.2260 -0.1428 -0.0166
 1014loPI   C4B14876   7.330   6.184   7.191 -0.4276  0.0784 -0.0158
 1015loPI    C114877  15.207   8.737   5.410  0.0104  0.3442 -0.0195
 1015loPI    C214878  15.284   9.024   5.142  0.3451  0.2338 -0.0465
 1015loPI    C314879  15.395   8.647   5.069  0.1850  0.1518  0.1245
 1015loPI   PO414880  15.130   8.986   5.673 -0.0308 -0.2292  0.0419
 1015loPI   GL114881  14.804   9.247   5.920 -0.0584 -0.1402 -0.1005
 1015loPI   GL214882  15.155   9.331   6.060 -0.2119  0.1474  0.0800
 1015loPI   C1A14883  14.625   9.091   6.250 -0.0527 -0.1181 -0.1599
 1015loPI   C2A14884  14.554   8.985   6.739  0.2078  0.0022 -0.0932
 1015loPI   C3A14885  14.294   8.796   7.050 -0.0203  0.1386 -0.6716
 1015loPI   C4A14886  14.157   8.550   7.375  0.0152 -0.1086  0.0547
 1015loPI   C5A14887  13.976   8.394   7.676  0.2374  0.2300 -0.0377
 1015loPI   C6A14888  14.082   8.252   8.019  0.0366  0.0170 -0.0529
 1015loPI   C1B14889  15.353   9.573   6.426  0.1609 -0.0768 -0.1483
 1015loPI   C2B14890  15.541   9.580   6.803 -0.0405 -0.4825 -0.3823
 1015loPI   C3B14891  15.838   9.557   7.107  0.3832  0.0995  0.0586
 1015loPI   C4B14892  15.827   9.490   7.505 -0.0408 -0.3718 -0.1494
 1016loPI    C114893  18.245  11.933   5.452  0.0346  0.2474 -0.2421
 1016loPI    C214894  18.405  11.967   5.088  0.1353 -0.1703 -0.2418
 1016loPI    C314895  18.487  11.647   5.313  0.1294  0.1160  0.1779
 1016loPI   PO414896  18.376  12.133   5.578 -0.1071 -0.2547  0.2067
 1016loPI   GL114897  18.202  12.103   6.006 -0.1238  0.1436 -0.2267
 1016loPI   GL214898  17.937  12.038   5.805 -0.1842 -0.1157 -0.0081
 1016loPI   C1A14899  18.480  12.315   6.262  0.2984 -0.2658 -0.1147
 1016loPI   C2A14900  18.560  12.458   6.565  0.0866 -0.0468 -0.1652
 1016loPI   C3A14901  18.477  12.430   7.015  0.2512 -0.3574 -0.5287
 1016loPI   C4A14902  18.338  12.392   7.425  0.1360  0.1655  0.0518
 1016loPI   C5A14903  18.249  12.272   7.888 -0.0248  0.0799  0.4244
 1016loPI   C6A14904  18.034  12.450   8.239  0.0036 -0.0953  0.5202
 1016loPI   C1B14905  17.814  12.175   6.308 -0.3048 -0.2056 -0.1080
 1016loPI   C2B14906  18.080  12.190   6.627 -0.1182 -0.0771  0.2019
 1016loPI   C3B14907  18.239  12.022   7.019 -0.0325  0.4113 -0.0615
 1016loPI   C4B14908  18.191  11.904   7.442 -0.2252  0.2149 -0.1522
 1017loPI    C114909   0.469  14.056   5.674  0.1065 -0.1912  0.1297
 1017loPI    C214910   0.229  14.073   5.355  0.1054  0.0214  0.1406
 1017loPI    C314911   0.596  13.917   5.321  0.2270  0.3390 -0.0437
 1017loPI   PO414912   0.446  14.268   5.786  0.1843 -0.1466  0.1545
 1017loPI   GL114913   0.362  14.242   6.147 -0.3035  0.0659  0.1323
 1017loPI   GL214914   0.237  14.405   6.443 -0.0327 -0.1817  0.3807
 1017loPI   C1A14915   0.158  13.894   6.472  0.2611 -0.0021  0.0033
 1017loPI   C2A14916   0.082  13.765   6.930 -0.0907 -0.1927  0.1667
 1017loPI   C3A14917  -0.318  13.709   7.222  0.0488  0.1357  0.0445
 1017loPI   C4A14918  -0.686  13.682   7.547 -0.1726 -0.1168 -0.0257
 1017loPI   C5A14919  -0.763  13.581   7.939 -0.1373  0.2460 -0.2682
 1017loPI   C6A14920  -0.951  13.633   8.297  0.1965 -0.3050  0.1416
 1017loPI   C1B14921   0.204  14.317   6.940  0.1864 -0.0239  0.2280
 1017loPI   C2B14922   0.049  14.136   7.269  0.0334  0.1313 -0.2341
 1017loPI   C3B14923   0.094  13.810   7.484 -0.2587  0.1251 -0.2259
 1017loPI   C4B14924   0.281  13.503   7.831  0.0788 -0.1366 -0.1243
 1018loPI    C114925   0.650   3.785   4.518  0.2211 -0.1861 -0.0733
 1018loPI    C214926   1.003   3.718   4.342  0.3270  0.3053 -0.0607
 1018loPI    C314927   0.811   4.064   4.282 -0.1227  0.0730 -0.0100
 1018loPI   PO414928   0.698   3.714   4.798  0.0671  0.0382  0.0662
 1018loPI   GL114929   0.779   3.650   5.261  0.3336 -0.2409 -0.0465
 1018loPI   GL214930   1.021   3.602   5.422  0.1512  0.0587 -0.2823
 1018loPI   C1A14931   0.532   3.598   5.611 -0.2146 -0.4853  0.0286
 1018loPI   C2A14932   0.450   3.355   6.026 -0.0132  0.0634  0.0874
 1018loPI   C3A14933   0.529   3.224   6.483  0.0843  0.1783 -0.4802
 1018loPI   C4A14934   0.484   3.399   6.874 -0.1486 -0.1341  0.3584
 1018loPI   C5A14935   0.485   3.502   7.203 -0.0999 -0.1810 -0.0221
 1018loPI   C6A14936   0.614   3.344   7.530  0.0573  0.2360 -0.1029
 1018loPI   C1B14937   0.922   3.339   5.787  0.2010  0.0255  0.3684
 1018loPI   C2B14938   0.906   3.412   6.201  0.1450  0.1612  0.1846
 1018loPI   C3B14939   0.960   3.682   6.585  0.2721  0.0981 -0.1630
 1018loPI   C4B14940   0.780   3.923   6.961  0.2348  0.5737 -0.0805
 1019loPI    C114941   3.096  14.444   5.528 -0.1785  0.0833  0.0414
 1019loPI    C214942   3.271  14.714   5.765 -0.0523  0.0647 -0.0297
 1019loPI    C314943   3.467  14.569   5.448 -0.0773 -0.1919  0.0703
 1019loPI   PO414944   3.025  14.227   5.701 -0.0564  0.0554  0.1124
 1019loPI   GL114945   3.194  14.336   6.142  0.1094 -0.2185 -0.0319
 1019loPI   GL214946   3.433  14.296   6.291  0.0106  0.0116  0.1206
 1019loPI   C1A14947   3.080  14.691   6.256 -0.0321  0.0689 -0.1006
 1019loPI   C2A14948   3.020  14.867   6.682 -0.1962  0.2565  0.1758
 1019loPI   C3A14949   3.087  14.679   7.096  0.0771 -0.0992  0.1423
 1019loPI   C4A14950   3.225  14.927   7.438 -0.1845 -0.0379  0.2141
 1019loPI   C5A14951   3.468  14.974   7.907 -0.1681  0.0373  0.1138
 1019loPI   C6A14952   3.659  14.601   7.940  0.2346 -0.2239  0.1054
 1019loPI   C1B14953   3.317  14.376   6.691 -0.3540 -0.1970  0.3715
 1019loPI   C2B14954   3.309  14.274   7.077  0.2602  0.1513 -0.3742
 1019loPI   C3B14955   3.240  13.881   7.293 -0.1260  0.2466 -0.0551
 1019loPI   C4B14956   3.246  13.807   7.765  0.1741 -0.0924  0.1840
 1020loPI    C114957   8.327  16.404   5.176  0.1135  0.0921  0.0307
 1020loPI    C214958   8.135  16.722   5.027 -0.1926 -0.1059 -0.0059
 1020loPI    C314959   8.381  16.511   4.794 -0.3076 -0.1379 -0.0992
 1020loPI   PO414960   8.292  16.457   5.454  0.1851  0.0689  0.2390
 1020loPI   GL114961   8.255  16.248   5.769  0.0483  0.0573  0.6092
 1020loPI   GL214962   8.117  16.023   5.889 -0.2136 -0.1369  0.2427
 1020loPI   C1A14963   8.265  16.457   6.157 -0.1516  0.0331 -0.2154
 1020loPI   C2A14964   8.286  16.832   6.448 -0.1725  0.0602 -0.0495
 1020loPI   C3A14965   8.237  17.091   6.845  0.1606  0.0209  0.1033
 1020loPI   C4A14966   8.321  17.212   7.275  0.1610 -0.1431  0.2447
 1020loPI   C5A14967   8.196  17.494   7.610 -0.1664  0.2763 -0.4938
 1020loPI   C6A14968   8.340  17.541   8.055  0.0969 -0.0411 -0.3714
 1020loPI   C1B14969   8.190  15.973   6.325  0.1002 -0.2665 -0.3524
 1020loPI   C2B14970   8.093  16.032   6.828 -0.1393 -0.0110 -0.2733
 1020loPI   C3B14971   7.904  15.864   7.131 -0.3952  0.0469 -0.2337
 1020loPI   C4B14972   7.795  15.667   7.555 -0.3898  0.0858  0.0149
 1021loPI    C114973  18.270   7.402   5.255  0.1306  0.0650  0.0814
 1021loPI    C214974  18.553   7.235   5.027 -0.0307 -0.2055  0.0741
 1021loPI    C314975  18.186   7.077   5.037 -0.1807  0.1355  0.0918
 1021loPI   PO414976  18.354   7.471   5.419 -0.0679  0.3526  0.0028
 1021loPI   GL114977  18.401   7.740   5.759  0.0289  0.1931 -0.0595
 1021loPI   GL214978  18.723   7.820   5.865 -0.3258  0.2548 -0.1834
 1021loPI   C1A14979  18.251   7.664   6.165 -0.4128  0.2616 -0.1021
 1021loPI   C2A14980  18.230   7.814   6.608 -0.2161  0.0047 -0.0366
 1021loPI   C3A14981  18.149   7.929   7.058 -0.1248  0.0715 -0.2810
 1021loPI   C4A14982  18.174   8.188   7.392 -0.1544  0.3389 -0.0243
 1021loPI   C5A14983  18.231   8.615   7.663 -0.1745 -0.1243  0.2549
 1021loPI   C6A14984  17.855   8.756   7.862 -0.2062  0.2208 -0.3605
 1021loPI   C1B14985  18.777   7.841   6.276 -0.0756 -0.0253 -0.1762
 1021loPI   C2B14986  18.790   7.975   6.655  0.1950 -0.0507  0.0689
 1021loPI   C3B14987  18.598   7.830   6.921 -0.2030  0.1791  0.1952
 1021loPI   C4B14988  18.521   7.511   7.172  0.0727 -0.0246 -0.0412
 1022loPI    C114989  17.594  10.467   5.293  0.0599 -0.5285  0.0735
 1022loPI    C214990  17.535  10.652   4.944 -0.0576 -0.2135  0.2565
 1022loPI    C314991  17.594  10.257   4.953 -0.1994 -0.2466 -0.1053
 1022loPI   PO414992  17.730  10.683   5.420 -0.0780  0.0147 -0.0977
 1022loPI   GL114993  17.795  11.010   5.649  0.2590  0.2979  0.1681
 1022loPI   GL214994  17.526  11.223   5.832 -0.0367 -0.1985 -0.1534
 1022loPI   C1A14995  17.624  10.774   6.044 -0.2750 -0.0218  0.1027
 1022loPI   C2A14996  17.467  10.562   6.460  0.1222  0.0734 -0.3441
 1022loPI   C3A14997  17.556  10.296   6.795 -0.2181  0.1955 -0.0437
 1022loPI   C4A14998  17.342  10.278   7.237 -0.0145  0.0785 -0.3362
 1022loPI   C5A14999  17.330  10.204   7.707 -0.1304  0.2300  0.0101
 1022loPI   C6A15000  17.409  10.104   8.146 -0.0534  0.0971  0.0133
 1022loPI   C1B15001  17.824  11.205   6.204  0.0086 -0.0391 -0.2204
 1022loPI   C2B15002  17.940  11.287   6.604 -0.1966 -0.0365  0.0990
 1022loPI   C3B15003  18.061  11.137   7.020  0.0790 -0.1573 -0.0488
 1022loPI   C4B15004  18.105  10.824   7.368  0.0541  0.0095  0.0555
 1023loPI    C115005   6.688  15.723   5.096 -0.1503 -0.0774  0.0077
 1023loPI    C215006   6.685  15.994   4.802 -0.1537  0.1457  0.2100
 1023loPI    C315007   6.618  15.608   4.719  0.3319  0.1290 -0.1537
 1023loPI   PO415008   6.852  15.820   5.272  0.2968  0.1651 -0.0283
 1023loPI   GL115009   6.822  16.048   5.692  0.2373 -0.0027 -0.1932
 1023loPI   GL215010   6.542  15.893   5.723 -0.3502 -0.0699  0.0159
 1023loPI   C1A15011   6.914  15.970   6.103 -0.2370 -0.2519 -0.1233
 1023loPI   C2A15012   7.003  16.114   6.471 -0.0063  0.0926  0.0387
 1023loPI   C3A15013   7.153  16.279   6.809 -0.0296  0.0941 -0.0713
 1023loPI   C4A15014   6.856  16.214   7.174 -0.0459 -0.1230  0.0616
 1023loPI   C5A15015   6.914  16.244   7.596  0.1247  0.1222  0.0271
 1023loPI   C6A15016   6.999  15.940   7.848 -0.0670  0.2562  0.0593
 1023loPI   C1B15017   6.299  15.845   5.996  0.1299  0.2413 -0.4202
 1023loPI   C2B15018   6.153  15.829   6.454 -0.1413  0.2252 -0.1050
 1023loPI   C3B15019   6.083  16.091   6.900  0.0810  0.1865 -0.1094
 1023loPI   C4B15020   6.081  15.952   7.317  0.0126  0.2228  0.1876
 1024loPI    C115021  18.125  14.053   5.720 -0.1951  0.0911  0.1749
 1024loPI    C215022  18.290  14.285   5.439  0.0428 -0.1495  0.1118
 1024loPI    C315023  18.210  13.902   5.360 -0.1472 -0.1476  0.2849
 1024loPI   PO415024  17.862  14.137   5.909  0.0625 -0.1108  0.2816
 1024loPI   GL115025  17.639  14.234   6.265  0.2087  0.3100 -0.0799
 1024loPI   GL215026  17.304  14.115   6.179  0.1451 -0.0417 -0.0978
 1024loPI   C1A15027  17.781  14.354   6.731 -0.1760  0.1565  0.2648
 1024loPI   C2A15028  17.695  14.657   7.081 -0.1357 -0.0170  0.1635
 1024loPI   C3A15029  17.957  14.662   7.475  0.3261  0.0657  0.3091
 1024loPI   C4A15030  18.272  14.839   7.764 -0.2042 -0.1121 -0.1065
 1024loPI   C5A15031  18.674  14.614   8.053  0.1623  0.1513  0.0286
 1024loPI   C6A15032  18.792  14.695   8.452  0.0432  0.0494  0.3134
 1024loPI   C1B15033  17.293  14.023   6.659 -0.0101 -0.1320  0.0324
 1024loPI   C2B15034  17.473  14.003   7.091 -0.0790  0.0789 -0.0470
 1024loPI   C3B15035  17.598  14.233   7.397  0.3603 -0.0126 -0.0521
 1024loPI   C4B15036  17.653  14.091   7.816 -0.3425 -0.1696  0.1308
 1025loPI    C115037   3.644  17.338   5.726 -0.1135  0.1335  0.0785
 1025loPI    C215038   3.427  17.031   5.589  0.0343  0.1109 -0.1088
 1025loPI    C315039   3.624  17.267   5.333  0.2083  0.1480  0.0565
 1025loPI   PO415040   3.439  17.449   5.907  0.0998  0.0091  0.0418
 1025loPI   GL115041   3.410  17.709   6.254 -0.0762  0.1005 -0.1191
 1025loPI   GL215042   3.259  17.945   6.327  0.2864  0.1285 -0.0824
 1025loPI   C1A15043   3.088  17.447   6.651 -0.2287 -0.2123  0.1601
 1025loPI   C2A15044   3.014  17.348   7.097 -0.2597 -0.1268 -0.0363
 1025loPI   C3A15045   3.294  17.391   7.397 -0.1961 -0.0613  0.5281
 1025loPI   C4A15046   3.627  17.333   7.739 -0.1738  0.2978  0.0457
 1025loPI   C5A15047   3.708  17.085   8.047  0.0760 -0.3793 -0.2971
 1025loPI   C6A15048   3.925  16.629   7.979  0.0371  0.0183  0.0761
 1025loPI   C1B15049   3.429  17.747   6.833 -0.1854  0.0892 -0.1239
 1025loPI   C2B15050   3.712  17.654   7.150  0.1213 -0.1318 -0.0406
 1025loPI   C3B15051   3.980  17.584   7.494 -0.0937  0.2212 -0.0431
 1025loPI   C4B15052   4.067  17.460   7.938 -0.1946  0.3951  0.3369
 1026loPI    C115053  16.876   5.950   5.247 -0.0619  0.0293 -0.1081
 1026loPI    C215054  17.175   6.097   5.467 -0.0585  0.0167 -0.1044
 1026loPI    C315055  17.221   5.749   5.275 -0.1575 -0.1097  0.0978
 1026loPI   PO415056  16.638   6.017   5.405 -0.0816  0.0520  0.0320
 1026loPI   GL115057  16.508   6.064   5.886 -0.2146  0.2660 -0.3684
 1026loPI   GL215058  16.839   6.233   5.830 -0.0031  0.1446 -0.0983
 1026loPI   C1A15059  16.475   5.977   6.309  0.0701  0.0269  0.2779
 1026loPI   C2A15060  16.400   5.908   6.719 -0.1797  0.0543  0.1515
 1026loPI   C3A15061  16.072   5.861   6.980  0.0131  0.1495 -0.1276
 1026loPI   C4A15062  16.008   5.638   7.386 -0.1543  0.0885 -0.0763
 1026loPI   C5A15063  15.716   5.314   7.638 -0.2419 -0.0527 -0.1299
 1026loPI   C6A15064  15.514   4.974   7.548 -0.2440 -0.0485 -0.2447
 1026loPI   C1B15065  16.837   6.351   6.233 -0.0524  0.1208  0.0027
 1026loPI   C2B15066  16.742   6.440   6.557  0.1295 -0.1420 -0.2722
 1026loPI   C3B15067  16.797   6.323   6.996  0.1546  0.2390  0.2339
 1026loPI   C4B15068  16.873   6.115   7.454  0.2899 -0.2365 -0.0038
 1027loPI    C115069   2.521  10.641   5.048 -0.0225 -0.0225  0.0106
 1027loPI    C215070   2.717  10.775   4.726  0.4971 -0.3284  0.1874
 1027loPI    C315071   2.365  10.589   4.683  0.4139 -0.0985 -0.1708
 1027loPI   PO415072   2.671  10.736   5.344  0.1491 -0.0049 -0.0320
 1027loPI   GL115073   2.540  10.673   5.706 -0.3754  0.2193  0.2194
 1027loPI   GL215074   2.816  10.785   5.877 -0.1388 -0.1907 -0.0448
 1027loPI   C1A15075   2.555  10.563   6.152 -0.5170  0.0769  0.0516
 1027loPI   C2A15076   2.422  10.311   6.471  0.1097  0.0456  0.1008
 1027loPI   C3A15077   2.380   9.916   6.664 -0.1976  0.3090 -0.0682
 1027loPI   C4A15078   2.509   9.656   6.931 -0.4467  0.1902  0.1503
 1027loPI   C5A15079   2.447   9.596   7.363 -0.1894  0.2440 -0.1978
 1027loPI   C6A15080   2.236   9.226   7.695 -0.1159 -0.1585 -0.0010
 1027loPI   C1B15081   2.435  11.008   6.060  0.5781  0.2056 -0.0368
 1027loPI   C2B15082   2.241  11.291   6.412  0.0151 -0.3005 -0.1231
 1027loPI   C3B15083   2.068  11.445   6.861 -0.2390  0.1497  0.1802
 1027loPI   C4B15084   1.688  11.442   7.258  0.3037 -0.2364  0.2147
 1028loPI    C115085   7.913  13.768   5.441  0.2590  0.1292 -0.0666
 1028loPI    C215086   7.707  13.494   5.234  0.1795 -0.0145  0.1973
 1028loPI    C315087   7.935  13.761   5.041 -0.1097  0.0325 -0.0890
 1028loPI   PO415088   7.757  13.785   5.662 -0.2739 -0.0114  0.2329
 1028loPI   GL115089   7.493  13.782   5.978  0.2346  0.1110  0.1422
 1028loPI   GL215090   7.352  13.422   6.090  0.1404 -0.3261 -0.2077
 1028loPI   C1A15091   7.456  14.104   6.359 -0.0139 -0.1111  0.1705
 1028loPI   C2A15092   7.263  14.276   6.685  0.1889 -0.0418  0.0617
 1028loPI   C3A15093   7.035  14.063   6.987 -0.0619  0.1359  0.0652
 1028loPI   C4A15094   6.991  14.103   7.481 -0.1346 -0.1016 -0.0039
 1028loPI   C5A15095   6.891  14.002   7.773 -0.0728  0.0682 -0.2832
 1028loPI   C6A15096   6.660  14.341   8.083  0.2789  0.4285  0.0379
 1028loPI   C1B15097   7.332  13.398   6.574  0.1540  0.1512 -0.0658
 1028loPI   C2B15098   7.320  13.225   6.935  0.2245  0.2020 -0.0085
 1028loPI   C3B15099   7.402  13.182   7.340 -0.1487  0.2731  0.3632
 1028loPI   C4B15100   7.023  13.219   7.693 -0.2677  0.3657 -0.1475
 1029loPI    C115101   0.951   0.923   6.048  0.2960  0.0474  0.0066
 1029loPI    C215102   0.944   0.898   5.649  0.0172 -0.2088  0.0247
 1029loPI    C315103   1.292   0.951   5.839  0.1492 -0.0589 -0.2519
 1029loPI   PO415104   0.823   0.782   6.122  0.0867  0.3455 -0.0637
 1029loPI   GL115105   0.840   0.796   6.536 -0.2582  0.1742  0.3053
 1029loPI   GL215106   1.070   0.462   6.467  0.0663 -0.0323 -0.0951
 1029loPI   C1A15107   0.703   1.147   6.718 -0.4921  0.0426 -0.1342
 1029loPI   C2A15108   0.656   1.350   7.134  0.0669  0.0120 -0.1428
 1029loPI   C3A15109   0.840   1.352   7.441 -0.1186  0.1582  0.2137
 1029loPI   C4A15110   0.973   1.669   7.698  0.1121 -0.3650 -0.0622
 1029loPI   C5A15111   0.967   2.046   7.924 -0.0266  0.0429  0.5474
 1029loPI   C6A15112   1.132   2.416   7.686 -0.0982 -0.0682  0.1359
 1029loPI   C1B15113   1.292   0.334   6.838  0.0450  0.1181 -0.4158
 1029loPI   C2B15114   1.500   0.419   7.268 -0.0079 -0.1169 -0.1221
 1029loPI   C3B15115   1.530   0.201   7.650 -0.0355  0.0194  0.1055
 1029loPI   C4B15116   1.335   0.322   8.105  0.1414  0.1481  0.2019
 1030loPI    C115117  17.151   8.400   4.847 -0.0861  0.2399  0.3419
 1030loPI    C215118  17.306   8.256   5.187 -0.1409 -0.3013  0.1484
 1030loPI    C315119  17.482   8.175   4.838 -0.2837 -0.0471  0.0143
 1030loPI   PO415120  17.035   8.641   4.969 -0.2415  0.2112  0.1248
 1030loPI   GL115121  17.067   8.652   5.347 -0.5207 -0.1215  0.2871
 1030loPI   GL215122  16.806   8.531   5.512 -0.0620 -0.0766 -0.0088
 1030loPI   C1A15123  17.091   8.743   5.842  0.0216 -0.1508 -0.0875
 1030loPI   C2A15124  17.214   8.688   6.284 -0.0245 -0.0267 -0.0716
 1030loPI   C3A15125  17.170   8.713   6.642  0.1026  0.0365  0.2395
 1030loPI   C4A15126  17.021   8.705   7.114 -0.4360 -0.5214  0.2478
 1030loPI   C5A15127  17.259   8.520   7.359 -0.2605  0.0942 -0.2681
 1030loPI   C6A15128  17.357   8.550   7.818  0.1432  0.0577 -0.1372
 1030loPI   C1B15129  16.645   8.370   5.897 -0.2099  0.0697  0.1494
 1030loPI   C2B15130  16.667   8.502   6.351  0.2325 -0.1854 -0.0252
 1030loPI   C3B15131  16.662   8.516   6.815  0.2806 -0.2085 -0.3726
 1030loPI   C4B15132  16.388   8.773   6.987  0.1331 -0.1304  0.0687
 1031loPI    C115133  12.960   1.383   5.606 -0.2185 -0.0884  0.0026
 1031loPI    C215134  13.074   1.666   5.866 -0.1839 -0.1938  0.1031
 1031loPI    C315135  12.787   1.744   5.598 -0.3038 -0.1221  0.2512
 1031loPI   PO415136  12.873   1.219   5.681 -0.0734 -0.2452 -0.4946
 1031loPI   GL115137  12.714   1.362   6.110 -0.1653 -0.1853 -0.3111
 1031loPI   GL215138  12.886   1.130   6.152 -0.1555 -0.1005 -0.3058
 1031loPI   C1A15139  13.014   1.589   6.403  0.2262  0.1828  0.0042
 1031loPI   C2A15140  13.128   1.799   6.870 -0.2497 -0.1933  0.1259
 1031loPI   C3A15141  13.099   1.720   7.239  0.4398 -0.0666 -0.0191
 1031loPI   C4A15142  12.853   1.463   7.587  0.0070  0.0370  0.4558
 1031loPI   C5A15143  12.577   1.248   7.859 -0.0320  0.3463  0.4052
 1031loPI   C6A15144  12.457   1.287   8.392  0.3207 -0.0108 -0.0287
 1031loPI   C1B15145  13.180   1.120   6.537 -0.1165 -0.0021 -0.1194
 1031loPI   C2B15146  12.958   1.241   6.994  0.0188  0.0552  0.0729
 1031loPI   C3B15147  13.240   1.171   7.381 -0.2641 -0.0174 -0.0632
 1031loPI   C4B15148  13.110   1.054   7.758 -0.3270 -0.0572  0.0841
 1032loPI    C115149  13.355  13.108   5.230 -0.1397 -0.0275  0.0812
 1032loPI    C215150  13.289  12.904   4.892  0.2211 -0.1158  0.0597
 1032loPI    C315151  13.429  13.278   4.876 -0.3088  0.0940  0.1029
 1032loPI   PO415152  13.153  13.003   5.476  0.1225 -0.0275 -0.3348
 1032loPI   GL115153  13.077  12.866   5.829 -0.1241  0.0967  0.1873
 1032loPI   GL215154  12.816  12.662   5.894  0.0648 -0.3134  0.1792
 1032loPI   C1A15155  13.211  12.879   6.254 -0.0460 -0.0770 -0.2706
 1032loPI   C2A15156  13.112  12.665   6.714 -0.0351 -0.2201 -0.0648
 1032loPI   C3A15157  13.291  12.796   7.164 -0.3464  0.1005  0.2313
 1032loPI   C4A15158  13.141  12.837   7.540  0.1036  0.0473  0.0497
 1032loPI   C5A15159  12.923  13.092   7.771  0.2082  0.1535  0.1473
 1032loPI   C6A15160  12.860  13.422   8.086  0.1157  0.0233 -0.1777
 1032loPI   C1B15161  12.843  12.462   6.350  0.0462 -0.0834  0.0346
 1032loPI   C2B15162  12.723  12.082   6.615 -0.3245  0.3299 -0.0618
 1032loPI   C3B15163  12.788  12.000   7.056 -0.2035  0.3108 -0.1080
 1032loPI   C4B15164  12.660  12.005   7.507 -0.2396 -0.1327 -0.2374
 1033loPI    C115165   4.152  12.586   4.852  0.0466 -0.0767 -0.1416
 1033loPI    C215166   4.547  12.650   4.855  0.0087  0.1659 -0.1221
 1033loPI    C315167   4.362  12.556   4.513  0.1019 -0.0814 -0.1069
 1033loPI   PO415168   4.154  12.468   5.196 -0.0541 -0.0242 -0.2240
 1033loPI   GL115169   4.069  12.495   5.634  0.0971  0.3563  0.3384
 1033loPI   GL215170   4.328  12.499   5.628  0.1428 -0.1169  0.0174
 1033loPI   C1A15171   4.066  12.248   5.972 -0.2515  0.1179  0.1117
 1033loPI   C2A15172   4.258  12.302   6.413  0.0229  0.1133 -0.0714
 1033loPI   C3A15173   4.397  12.319   6.839  0.3188 -0.2663  0.0225
 1033loPI   C4A15174   4.527  12.419   7.317 -0.0380  0.1639 -0.0536
 1033loPI   C5A15175   4.740  12.639   7.637  0.0009  0.1024  0.1181
 1033loPI   C6A15176   4.949  12.935   8.098  0.2226 -0.1393  0.2076
 1033loPI   C1B15177   4.563  12.568   6.134  0.2537  0.0100 -0.2176
 1033loPI   C2B15178   4.771  12.473   6.542  0.1147  0.1338  0.0688
 1033loPI   C3B15179   4.851  12.507   6.933 -0.3015 -0.1788  0.1714
 1033loPI   C4B15180   5.119  12.438   7.231  0.0875 -0.2902 -0.0102
 1034loPI    C115181  15.129  15.362   5.563 -0.2360  0.0584  0.0626
 1034loPI    C215182  15.299  15.000   5.587  0.0395  0.1804 -0.0150
 1034loPI    C315183  15.244  15.173   5.230 -0.2520  0.1423  0.0091
 1034loPI   PO415184  15.018  15.417   5.832 -0.2056  0.1182  0.0135
 1034loPI   GL115185  15.117  15.404   6.255 -0.0107  0.0201 -0.0748
 1034loPI   GL215186  14.924  15.552   6.301 -0.4299  0.2220 -0.2787
 1034loPI   C1A15187  15.173  15.589   6.678 -0.1079 -0.0635 -0.1499
 1034loPI   C2A15188  15.060  15.380   7.130  0.0625 -0.1491  0.0216
 1034loPI   C3A15189  14.798  15.298   7.482 -0.3699 -0.1189 -0.0266
 1034loPI   C4A15190  14.644  15.399   7.947 -0.3377 -0.1851 -0.1060
 1034loPI   C5A15191  14.341  15.198   8.262  0.1800  0.0722 -0.2365
 1034loPI   C6A15192  14.200  14.755   8.214 -0.1314 -0.2027 -0.0596
 1034loPI   C1B15193  14.631  15.543   6.689 -0.0673  0.0544  0.4565
 1034loPI   C2B15194  14.511  15.411   7.089  0.1448  0.2662 -0.1407
 1034loPI   C3B15195  14.338  15.377   7.579  0.2707  0.0219 -0.0913
 1034loPI   C4B15196  13.968  15.432   7.976  0.1694  0.1529 -0.1279
 1035loPI    C115197  14.803   6.544   5.564  0.1979  0.1327 -0.0207
 1035loPI    C215198  14.660   6.221   5.377 -0.1255  0.2648 -0.0085
 1035loPI    C315199  15.017   6.207   5.557 -0.0871 -0.0497 -0.1037
 1035loPI   PO415200  14.613   6.659   5.648 -0.0843  0.2400  0.1899
 1035loPI   GL115201  14.304   6.736   5.930 -0.0642  0.1998  0.0542
 1035loPI   GL215202  14.590   6.505   6.104  0.0864  0.2848  0.0857
 1035loPI   C1A15203  14.343   6.769   6.394  0.1077  0.2169 -0.0093
 1035loPI   C2A15204  14.498   6.944   6.800  0.0457  0.3864  0.2144
 1035loPI   C3A15205  14.666   6.997   7.176  0.2840  0.2485 -0.0409
 1035loPI   C4A15206  14.908   7.033   7.664  0.0044 -0.1378 -0.2798
 1035loPI   C5A15207  15.299   6.918   7.789  0.4024 -0.3180 -0.0828
 1035loPI   C6A15208  15.802   6.898   7.885  0.0072 -0.0244 -0.1104
 1035loPI   C1B15209  14.617   6.204   6.416 -0.1861  0.4666 -0.0872
 1035loPI   C2B15210  14.863   6.070   6.805 -0.0968  0.0700  0.2604
 1035loPI   C3B15211  15.089   5.850   7.113  0.2815 -0.0749 -0.0231
 1035loPI   C4B15212  15.176   5.651   7.532  0.1571 -0.1387  0.0780
 1036loPI    C115213   6.776   2.234   5.040 -0.1826 -0.0011  0.1425
 1036loPI    C215214   6.619   1.916   4.855 -0.1130  0.0838 -0.0656
 1036loPI    C315215   6.438   2.271   4.830 -0.1089  0.0936  0.0395
 1036loPI   PO415216   6.782   2.196   5.332  0.0303 -0.0511 -0.1241
 1036loPI   GL115217   6.959   2.149   5.678  0.1648  0.0390  0.0452
 1036loPI   GL215218   7.001   2.473   5.694  0.1279  0.0164 -0.1545
 1036loPI   C1A15219   6.781   2.137   6.069 -0.0759 -0.3173 -0.0456
 1036loPI   C2A15220   6.771   2.297   6.488  0.0895  0.2732 -0.2062
 1036loPI   C3A15221   6.718   2.277   6.980  0.0696 -0.0383 -0.2296
 1036loPI   C4A15222   6.924   2.387   7.207  0.1109  0.0783  0.3263
 1036loPI   C5A15223   7.118   2.246   7.559 -0.1867 -0.1372  0.1551
 1036loPI   C6A15224   7.374   2.039   7.831  0.0300 -0.0033 -0.0342
 1036loPI   C1B15225   6.999   2.571   6.114 -0.1109 -0.1697 -0.1526
 1036loPI   C2B15226   7.148   2.614   6.501 -0.1696  0.2781 -0.2064
 1036loPI   C3B15227   7.351   2.508   6.929  0.4184 -0.0093 -0.1136
 1036loPI   C4B15228   7.360   2.709   7.317 -0.0072 -0.1464  0.1182
 1037loPI    C115229  15.379   5.682   4.847 -0.0509 -0.0576  0.1672
 1037loPI    C215230  15.520   6.054   4.885 -0.1807  0.0255 -0.1296
 1037loPI    C315231  15.761   5.760   4.759  0.0028 -0.0596  0.3952
 1037loPI   PO415232  15.263   5.603   5.130  0.0652  0.1904 -0.0611
 1037loPI   GL115233  15.226   5.698   5.565 -0.0824 -0.1726  0.0726
 1037loPI   GL215234  15.002   5.692   5.864 -0.1028 -0.0683  0.1758
 1037loPI   C1A15235  15.532   5.901   5.890  0.1216  0.1118 -0.3942
 1037loPI   C2A15236  15.648   5.784   6.294 -0.0754 -0.1865 -0.0131
 1037loPI   C3A15237  15.601   5.810   6.743 -0.1137 -0.0991 -0.1441
 1037loPI   C4A15238  15.651   6.046   7.276  0.1274  0.1353 -0.2529
 1037loPI   C5A15239  15.580   5.883   7.690 -0.4215  0.1188  0.1570
 1037loPI   C6A15240  15.365   5.800   7.986  0.3865 -0.0401 -0.1566
 1037loPI   C1B15241  14.733   5.741   6.321  0.1357  0.0025  0.3777
 1037loPI   C2B15242  14.326   5.750   6.642 -0.1787 -0.1864  0.0430
 1037loPI   C3B15243  14.127   5.685   7.121 -0.1332  0.0349 -0.2219
 1037loPI   C4B15244  14.060   5.278   7.498  0.1925 -0.1662  0.0441
 1038loPI    C115245  12.651   2.790   5.190 -0.3038 -0.1204 -0.0229
 1038loPI    C215246  12.493   2.807   4.824 -0.2050 -0.1406 -0.0670
 1038loPI    C315247  12.636   2.461   4.963 -0.3343 -0.1558  0.0302
 1038loPI   PO415248  12.400   2.875   5.299  0.1068  0.0340  0.1026
 1038loPI   GL115249  12.187   2.829   5.655 -0.2270 -0.1012 -0.3697
 1038loPI   GL215250  12.284   2.529   5.706 -0.2662 -0.0087 -0.0527
 1038loPI   C1A15251  12.051   2.834   6.084 -0.0550 -0.5085  0.0294
 1038loPI   C2A15252  12.150   2.727   6.564  0.3161 -0.1492  0.1830
 1038loPI   C3A15253  12.400   2.657   7.006  0.2175 -0.2258  0.1249
 1038loPI   C4A15254  12.695   2.618   7.440 -0.2880 -0.0089  0.4074
 1038loPI   C5A15255  13.025   2.692   7.756 -0.2027  0.1534 -0.1058
 1038loPI   C6A15256  13.438   2.946   7.964  0.3793 -0.1345 -0.0414
 1038loPI   C1B15257  12.085   2.316   6.024 -0.0187  0.6206  0.4194
 1038loPI   C2B15258  12.138   2.235   6.512  0.3057 -0.2336  0.2196
 1038loPI   C3B15259  12.331   2.185   6.939 -0.0847  0.2018 -0.0778
 1038loPI   C4B15260  12.416   2.092   7.358  0.0241 -0.0511 -0.0883
 1039loPI    C115261   1.493   4.907   4.939 -0.0821  0.0579 -0.1438
 1039loPI    C215262   1.509   4.563   4.734 -0.0015 -0.0014 -0.0390
 1039loPI    C315263   1.823   4.811   4.734 -0.0097  0.0091 -0.0058
 1039loPI   PO415264   1.417   4.869   5.331 -0.3701  0.0190 -0.3333
 1039loPI   GL115265   1.600   4.518   5.671  0.0734  0.2954  0.1223
 1039loPI   GL215266   1.929   4.516   5.716 -0.0295 -0.1494 -0.0579
 1039loPI   C1A15267   1.430   4.601   6.091  0.5076 -0.1152  0.1590
 1039loPI   C2A15268   1.158   4.675   6.373 -0.1258  0.0981 -0.0996
 1039loPI   C3A15269   0.923   4.647   6.788 -0.1325  0.1213  0.2860
 1039loPI   C4A15270   0.857   4.763   7.237  0.2277  0.2667  0.2380
 1039loPI   C5A15271   0.963   5.010   7.572 -0.0014 -0.2748  0.4515
 1039loPI   C6A15272   0.883   5.429   7.653  0.0147 -0.2724 -0.0758
 1039loPI   C1B15273   1.904   4.469   6.148 -0.3332  0.0126  0.1669
 1039loPI   C2B15274   1.682   4.287   6.533 -0.0918  0.0171  0.3144
 1039loPI   C3B15275   1.710   4.253   7.043 -0.0431  0.3354  0.3275
 1039loPI   C4B15276   1.812   4.295   7.381 -0.0508  0.0885  0.1825
 1040loPI    C115277   7.620   8.572   5.108 -0.0415  0.0094  0.1375
 1040loPI    C215278   7.338   8.846   5.181 -0.1534 -0.0655 -0.0082
 1040loPI    C315279   7.466   8.785   4.807  0.0557 -0.0337  0.0568
 1040loPI   PO415280   7.562   8.504   5.455  0.0575  0.1618  0.2870
 1040loPI   GL115281   7.565   8.373   5.838 -0.0470  0.0719 -0.0163
 1040loPI   GL215282   7.867   8.604   5.845  0.1111 -0.0325  0.0155
 1040loPI   C1A15283   7.297   8.175   6.072 -0.1803 -0.0364  0.0523
 1040loPI   C2A15284   7.193   8.159   6.510  0.0343 -0.0060  0.0242
 1040loPI   C3A15285   7.070   8.041   6.916 -0.1649  0.2152 -0.3276
 1040loPI   C4A15286   6.812   8.210   7.308 -0.0572  0.1569  0.4392
 1040loPI   C5A15287   6.847   8.255   7.685 -0.1330 -0.2007 -0.2105
 1040loPI   C6A15288   6.912   8.065   8.023 -0.1470  0.1828  0.0971
 1040loPI   C1B15289   8.097   8.518   6.275 -0.1949  0.2579  0.0381
 1040loPI   C2B15290   8.494   8.768   6.403  0.2991  0.0569 -0.3046
 1040loPI   C3B15291   9.032   8.842   6.399  0.0045 -0.0290 -0.3805
 1040loPI   C4B15292   9.458   8.652   6.342 -0.0171  0.1303 -0.1054
 1041loPI    C115293  13.322  18.441   5.544 -0.0440 -0.0530 -0.2008
 1041loPI    C215294  13.069  18.750   5.547  0.1852  0.1383 -0.2238
 1041loPI    C315295  13.010  18.446   5.294 -0.1299  0.0857 -0.0922
 1041loPI   PO415296  13.439  18.492   5.839 -0.0513 -0.0301 -0.4109
 1041loPI   GL115297  13.355  18.652   6.199  0.2637  0.0564 -0.0098
 1041loPI   GL215298  13.198  18.942   6.113  0.0919  0.2971 -0.1382
 1041loPI   C1A15299  13.445  18.750   6.627  0.2140 -0.0958  0.0647
 1041loPI   C2A15300  13.484  18.584   7.093 -0.3209  0.1537  0.0232
 1041loPI   C3A15301  13.687  18.515   7.535  0.2716  0.0002  0.1668
 1041loPI   C4A15302  13.623  18.844   7.835  0.1309 -0.1427 -0.2142
 1041loPI   C5A15303  13.691  19.305   7.797 -0.0771 -0.1825  0.0372
 1041loPI   C6A15304  13.543  19.748   7.741 -0.1097  0.2479 -0.1647
 1041loPI   C1B15305  13.110  19.113   6.433  0.0195  0.0584  0.0182
 1041loPI   C2B15306  12.819  19.212   6.641 -0.1028 -0.2169  0.0988
 1041loPI   C3B15307  12.857  19.347   7.279  0.0072  0.3947 -0.1763
 1041loPI   C4B15308  12.746  19.090   7.547  0.0223  0.0653  0.0666
 1042loPI    C115309  14.471   8.493   4.838 -0.1178  0.0849 -0.1862
 1042loPI    C215310  14.205   8.696   4.618 -0.0033  0.1078 -0.3047
 1042loPI    C315311  14.596   8.771   4.578  0.0336 -0.0659 -0.2764
 1042loPI   PO415312  14.409   8.501   5.172  0.2461 -0.2152  0.3994
 1042loPI   GL115313  14.243   8.388   5.623  0.3121  0.1047  0.1445
 1042loPI   GL215314  14.414   8.533   5.870  0.2050 -0.1772  0.0361
 1042loPI   C1A15315  13.885   8.592   5.880 -0.2273  0.1003  0.1662
 1042loPI   C2A15316  13.666   8.775   6.231  0.3847 -0.1944 -0.0547
 1042loPI   C3A15317  13.572   8.892   6.655  0.0090 -0.4258  0.1882
 1042loPI   C4A15318  13.441   9.168   6.855  0.0513 -0.0939  0.0494
 1042loPI   C5A15319  13.227   9.421   7.191 -0.1893  0.0012  0.0381
 1042loPI   C6A15320  13.255   9.432   7.633 -0.2517  0.3207 -0.1608
 1042loPI   C1B15321  14.580   8.421   6.227 -0.0095  0.1593  0.0230
 1042loPI   C2B15322  14.442   8.424   6.650  0.1009  0.4639  0.1179
 1042loPI   C3B15323  14.255   8.163   6.915 -0.3962 -0.1927  0.0690
 1042loPI   C4B15324  13.924   8.225   7.061  0.0751  0.0534  0.0382
 1043loPI    C115325  11.623   0.307   5.754 -0.0002 -0.0432  0.2285
 1043loPI    C215326  11.678  -0.034   5.553 -0.0051  0.0703  0.0329
 1043loPI    C315327  11.410   0.234   5.423  0.1187  0.2234  0.0899
 1043loPI   PO415328  11.743   0.306   5.954  0.1779 -0.4347  0.0603
 1043loPI   GL115329  11.891   0.424   6.239  0.4490 -0.0441 -0.4128
 1043loPI   GL215330  11.665   0.730   6.240  0.3195 -0.2207  0.2000
 1043loPI   C1A15331  11.920   0.319   6.687 -0.1201 -0.2407  0.0569
 1043loPI   C2A15332  11.840   0.517   7.069 -0.0860  0.0649  0.0225
 1043loPI   C3A15333  11.742   0.730   7.457  0.2873 -0.2480  0.1665
 1043loPI   C4A15334  11.641   0.912   7.845 -0.3055  0.1462 -0.2293
 1043loPI   C5A15335  11.630   1.351   7.928  0.1240 -0.1322  0.2167
 1043loPI   C6A15336  11.355   1.706   7.982 -0.1068 -0.0719 -0.0950
 1043loPI   C1B15337  11.549   1.047   6.437  0.1049  0.1920  0.2131
 1043loPI   C2B15338  11.362   1.157   6.862 -0.0753 -0.0631 -0.2099
 1043loPI   C3B15339  11.373   0.995   7.232 -0.1806  0.0167  0.3990
 1043loPI   C4B15340  11.170   0.822   7.592 -0.2801 -0.0907 -0.4202
 1044loPI    C115341   9.819  11.058   5.325  0.1977 -0.1497 -0.0688
 1044loPI    C215342  10.118  11.323   5.338 -0.0408  0.1372 -0.2855
 1044loPI    C315343   9.749  11.433   5.445 -0.1499 -0.0990 -0.4119
 1044loPI   PO415344   9.850  10.857   5.391  0.1691  0.0981  0.1577
 1044loPI   GL115345   9.938  10.721   5.729  0.0287 -0.1675 -0.4382
 1044loPI   GL215346  10.237  10.621   5.909 -0.1226  0.1389 -0.0083
 1044loPI   C1A15347   9.608  10.654   6.027  0.4507  0.2471 -0.0704
 1044loPI   C2A15348   9.560  10.596   6.440  0.4242  0.1825  0.3119
 1044loPI   C3A15349   9.284  10.410   6.741 -0.2236  0.3100  0.1828
 1044loPI   C4A15350   8.954  10.323   7.032 -0.1798  0.2499  0.0989
 1044loPI   C5A15351   8.795  10.418   7.448 -0.1060 -0.1519  0.1674
 1044loPI   C6A15352   8.894  10.411   7.937 -0.2219 -0.0011 -0.3976
 1044loPI   C1B15353  10.119  10.480   6.214  0.2469  0.0416  0.3146
 1044loPI   C2B15354  10.080  10.240   6.535  0.2599  0.1715 -0.0715
 1044loPI   C3B15355   9.790  10.350   6.862  0.1712  0.1758 -0.1028
 1044loPI   C4B15356   9.694  10.369   7.169 -0.0242  0.1091 -0.0978
 1045loPI    C115357  10.301   0.982   5.124 -0.1269  0.0698  0.0766
 1045loPI    C215358  10.050   1.220   4.923 -0.1590 -0.1811 -0.1872
 1045loPI    C315359  10.367   1.061   4.737  0.1349  0.0395  0.1130
 1045loPI   PO415360  10.393   1.127   5.387  0.1582  0.0832 -0.1890
 1045loPI   GL115361  10.338   1.077   5.845  0.0916 -0.3383 -0.0862
 1045loPI   GL215362  10.621   1.323   5.814  0.1817  0.1198  0.0973
 1045loPI   C1A15363  10.138   0.977   6.155 -0.0536 -0.1813  0.1036
 1045loPI   C2A15364   9.961   1.333   6.413 -0.0211  0.2488 -0.1089
 1045loPI   C3A15365   9.914   1.310   6.792  0.1127 -0.2180 -0.1259
 1045loPI   C4A15366   9.640   1.367   7.088 -0.1099 -0.0114  0.2244
 1045loPI   C5A15367   9.476   1.674   7.373  0.2851  0.0401 -0.2215
 1045loPI   C6A15368   9.738   2.006   7.414 -0.1797 -0.1969 -0.1537
 1045loPI   C1B15369  10.751   1.226   6.257  0.2528  0.0936  0.2429
 1045loPI   C2B15370  10.900   1.259   6.514 -0.0683  0.1474  0.4313
 1045loPI   C3B15371  10.878   1.383   6.853 -0.1563  0.2248  0.0363
 1045loPI   C4B15372  10.920   1.253   7.131  0.1819  0.0519  0.1062
 1046loPI    C115373  16.572  17.268   5.285  0.0486  0.2151 -0.1607
 1046loPI    C215374  16.211  17.160   5.152  0.0034 -0.0650  0.1738
 1046loPI    C315375  16.538  16.980   5.009 -0.0236 -0.1525  0.2218
 1046loPI   PO415376  16.492  17.281   5.572  0.1205 -0.1757  0.0802
 1046loPI   GL115377  16.245  17.304   5.975 -0.2866  0.2978 -0.1313
 1046loPI   GL215378  16.508  17.284   6.200 -0.3854  0.0326 -0.0277
 1046loPI   C1A15379  16.098  17.378   6.454  0.0846 -0.1054 -0.1553
 1046loPI   C2A15380  16.223  17.446   6.935 -0.2402 -0.0800 -0.2097
 1046loPI   C3A15381  16.310  17.304   7.364  0.1228  0.0807 -0.0084
 1046loPI   C4A15382  16.166  17.398   7.816 -0.1195  0.1394 -0.1268
 1046loPI   C5A15383  16.128  17.874   8.088 -0.0313 -0.1716  0.3121
 1046loPI   C6A15384  15.907  17.876   8.450 -0.0717  0.0100 -0.3249
 1046loPI   C1B15385  16.541  17.591   6.469 -0.1392 -0.1829 -0.0027
 1046loPI   C2B15386  16.650  17.669   6.761  0.1016  0.2326 -0.1153
 1046loPI   C3B15387  16.575  17.733   7.229  0.2460  0.2148  0.0284
 1046loPI   C4B15388  16.682  17.620   7.584  0.1067 -0.2069 -0.0990
 1047loPI    C115389   1.424  11.002   5.485  0.2257  0.0422 -0.1038
 1047loPI    C215390   1.481  10.763   5.169  0.0594 -0.1728  0.0263
 1047loPI    C315391   1.691  10.705   5.505  0.2544  0.0713 -0.0499
 1047loPI   PO415392   1.250  10.964   5.573 -0.0620 -0.0304  0.3557
 1047loPI   GL115393   1.076  10.650   5.898  0.0817  0.0840  0.0113
 1047loPI   GL215394   0.983  10.324   5.957 -0.2382 -0.2881 -0.0494
 1047loPI   C1A15395   0.878  10.643   6.327  0.3046 -0.2001 -0.0610
 1047loPI   C2A15396   0.888  10.422   6.803 -0.0398 -0.3797  0.0851
 1047loPI   C3A15397   1.039  10.479   7.077 -0.2569 -0.1758  0.0416
 1047loPI   C4A15398   1.305  10.725   7.387 -0.2965 -0.0370  0.0819
 1047loPI   C5A15399   1.390  11.110   7.607  0.2457  0.1095  0.1545
 1047loPI   C6A15400   1.352  11.316   7.846 -0.2311 -0.2009  0.0728
 1047loPI   C1B15401   0.943  10.041   6.248 -0.0295 -0.0652  0.2652
 1047loPI   C2B15402   0.878   9.906   6.613 -0.1171  0.0347 -0.0688
 1047loPI   C3B15403   0.907   9.952   7.012  0.1126  0.0120  0.1462
 1047loPI   C4B15404   0.660  10.062   7.353  0.0451  0.1283 -0.1425
 1048loPI    C115405   8.327   1.506   4.987 -0.2292 -0.0383  0.1255
 1048loPI    C215406   7.948   1.572   5.095 -0.2273 -0.1139  0.1789
 1048loPI    C315407   8.079   1.699   4.739 -0.2333  0.1365  0.2645
 1048loPI   PO415408   8.469   1.501   5.129 -0.1038  0.0701  0.0856
 1048loPI   GL115409   8.483   1.396   5.684 -0.0544 -0.2349 -0.2481
 1048loPI   GL215410   8.739   1.624   5.609 -0.1221 -0.0977 -0.0791
 1048loPI   C1A15411   8.278   1.548   6.061  0.2864 -0.0141  0.1474
 1048loPI   C2A15412   8.192   1.415   6.410  0.3652 -0.1292 -0.1276
 1048loPI   C3A15413   7.952   1.522   6.623  0.2373 -0.2066 -0.0589
 1048loPI   C4A15414   7.752   1.705   7.046 -0.0337  0.0491  0.3631
 1048loPI   C5A15415   7.594   1.672   7.439  0.0839 -0.0868 -0.3658
 1048loPI   C6A15416   7.327   1.564   7.851  0.2963 -0.0670 -0.0974
 1048loPI   C1B15417   8.841   1.477   6.003  0.0107 -0.0924 -0.1493
 1048loPI   C2B15418   8.804   1.567   6.432 -0.0031 -0.2058  0.0609
 1048loPI   C3B15419   8.584   1.566   6.799 -0.2896  0.0183 -0.1732
 1048loPI   C4B15420   8.627   1.891   7.114  0.0278 -0.3309  0.0588
 1049loPI    C115421   8.633   2.732   5.060 -0.0104  0.1644  0.1479
 1049loPI    C215422   8.746   2.389   4.889 -0.1689  0.1394  0.0912
 1049loPI    C315423   8.524   2.651   4.684  0.0153  0.3113  0.1079
 1049loPI   PO415424   8.452   2.757   5.407  0.1423 -0.1609  0.3984
 1049loPI   GL115425   8.214   3.122   5.695  0.2148 -0.3556 -0.1648
 1049loPI   GL215426   8.065   2.902   5.737  0.2549 -0.1754 -0.0826
 1049loPI   C1A15427   8.350   3.124   6.089 -0.0030 -0.0133  0.0269
 1049loPI   C2A15428   8.565   3.172   6.449 -0.1787  0.1870  0.3439
 1049loPI   C3A15429   8.563   3.398   6.856  0.2918 -0.2359 -0.2781
 1049loPI   C4A15430   8.599   3.322   7.316 -0.1703  0.2080 -0.3116
 1049loPI   C5A15431   8.582   3.005   7.672 -0.0167  0.0525  0.0462
 1049loPI   C6A15432   8.560   2.759   8.061 -0.4139 -0.0855  0.4280
 1049loPI   C1B15433   7.928   2.773   6.161  0.0700 -0.2094  0.3634
 1049loPI   C2B15434   8.149   2.869   6.504 -0.2710  0.2316  0.0160
 1049loPI   C3B15435   8.320   2.892   6.915 -0.0028 -0.2814  0.0270
 1049loPI   C4B15436   8.642   2.734   7.194  0.0372  0.2764 -0.0622
 1050loPI    C115437   1.025  15.792   5.833 -0.1479 -0.1743  0.0759
 1050loPI    C215438   0.686  15.785   5.621 -0.1339 -0.1859  0.0539
 1050loPI    C315439   0.733  16.054   5.913 -0.0384  0.0196 -0.1470
 1050loPI   PO415440   0.976  15.500   5.920 -0.0062 -0.0849  0.0605
 1050loPI   GL115441   1.204  15.298   6.312 -0.0608  0.0430  0.0079
 1050loPI   GL215442   0.941  15.026   6.212 -0.4926  0.1393 -0.2346
 1050loPI   C1A15443   1.081  15.371   6.656 -0.1882 -0.0911  0.1788
 1050loPI   C2A15444   1.177  15.489   7.049 -0.1121 -0.0734 -0.0792
 1050loPI   C3A15445   1.268  15.364   7.407  0.1368  0.2948 -0.1594
 1050loPI   C4A15446   1.409  15.170   7.741 -0.1023  0.0074 -0.0458
 1050loPI   C5A15447   1.499  15.232   8.125  0.2147 -0.1512 -0.0134
 1050loPI   C6A15448   1.213  15.413   8.460 -0.0241  0.3485 -0.2690
 1050loPI   C1B15449   1.065  14.911   6.579  0.0735  0.2166 -0.2113
 1050loPI   C2B15450   1.177  14.969   7.036  0.0349  0.0139  0.2818
 1050loPI   C3B15451   1.229  14.747   7.558  0.2852  0.1773  0.2012
 1050loPI   C4B15452   1.176  14.563   7.936 -0.1380  0.1790  0.0247
 1051loPI    C115453  13.538   1.609   5.633 -0.0889 -0.0515  0.1592
 1051loPI    C215454  13.612   2.001   5.663  0.2837 -0.1079  0.0376
 1051loPI    C315455  13.325   1.869   5.418  0.1776  0.0857  0.0560
 1051loPI   PO415456  13.570   1.528   5.924 -0.0572 -0.2307 -0.1062
 1051loPI   GL115457  13.375   1.264   6.074  0.0441 -0.1411  0.0643
 1051loPI   GL215458  13.374   0.972   6.047 -0.2775 -0.1842 -0.5162
 1051loPI   C1A15459  13.473   1.570   6.565  0.3711  0.0206 -0.1165
 1051loPI   C2A15460  13.548   1.594   7.021  0.1225  0.0698  0.0468
 1051loPI   C3A15461  13.762   1.550   7.370 -0.0621 -0.1702 -0.1870
 1051loPI   C4A15462  14.108   1.380   7.632  0.2772 -0.0950 -0.0099
 1051loPI   C5A15463  14.378   1.359   8.006  0.1405  0.1459  0.3028
 1051loPI   C6A15464  14.438   1.550   8.447  0.2137 -0.0231  0.1154
 1051loPI   C1B15465  13.661   0.690   6.279  0.0667  0.1107  0.0538
 1051loPI   C2B15466  13.971   0.477   6.574 -0.0056 -0.0039  0.0523
 1051loPI   C3B15467  14.009   0.720   6.983 -0.3592 -0.1450 -0.0359
 1051loPI   C4B15468  14.185   0.872   7.327  0.2238  0.0608  0.0413
 1052loPI    C115469   9.049  16.758   5.211 -0.1112  0.1939 -0.0214
 1052loPI    C215470   9.296  17.069   5.165  0.0559  0.0388 -0.1909
 1052loPI    C315471   8.963  17.044   4.945  0.0163  0.1218 -0.1412
 1052loPI   PO415472   9.039  16.697   5.480 -0.1049 -0.2075  0.0725
 1052loPI   GL115473   8.999  16.904   5.915  0.0224  0.0999  0.0534
 1052loPI   GL215474   9.160  16.995   5.842  0.4447 -0.0009 -0.3247
 1052loPI   C1A15475   8.823  16.643   6.217 -0.0690  0.1459  0.0251
 1052loPI   C2A15476   8.781  16.631   6.713 -0.1004 -0.2108 -0.0529
 1052loPI   C3A15477   8.926  16.679   7.100  0.0768 -0.1622  0.3235
 1052loPI   C4A15478   8.832  16.812   7.517 -0.3539 -0.3768 -0.1304
 1052loPI   C5A15479   8.496  17.014   7.749  0.1239  0.0648  0.0051
 1052loPI   C6A15480   8.133  17.048   7.999 -0.5439  0.0787  0.3682
 1052loPI   C1B15481   8.987  17.211   6.266  0.2578 -0.1208 -0.3191
 1052loPI   C2B15482   8.737  17.153   6.577  0.0039  0.0949  0.0704
 1052loPI   C3B15483   8.707  17.110   7.021 -0.2605 -0.1223  0.1119
 1052loPI   C4B15484   8.744  17.320   7.435 -0.3177 -0.0348  0.4101
 1053loPI    C115485  16.409  15.348   5.706  0.0579  0.0195 -0.0769
 1053loPI    C215486  16.729  15.159   5.559  0.0785  0.0549 -0.0776
 1053loPI    C315487  16.512  15.397   5.322  0.2907  0.3555  0.0239
 1053loPI   PO415488  16.528  15.407   6.004  0.2673  0.1504 -0.1517
 1053loPI   GL115489  16.468  15.584   6.359 -0.2127 -0.3126 -0.0641
 1053loPI   GL215490  16.347  15.905   6.242  0.3513 -0.2207  0.2136
 1053loPI   C1A15491  16.556  15.345   6.689  0.2308 -0.2909  0.1052
 1053loPI   C2A15492  16.693  14.932   6.835  0.0557  0.1540  0.0984
 1053loPI   C3A15493  16.712  14.669   7.134  0.0520 -0.1442  0.0178
 1053loPI   C4A15494  16.590  14.367   7.345  0.2791  0.2670  0.1683
 1053loPI   C5A15495  16.294  14.177   7.744 -0.1220  0.2947  0.0636
 1053loPI   C6A15496  15.851  14.009   7.715 -0.2242 -0.0681 -0.1130
 1053loPI   C1B15497  16.252  16.220   6.481  0.0713  0.1854  0.1981
 1053loPI   C2B15498  16.325  16.192   6.906  0.0974  0.1678  0.0612
 1053loPI   C3B15499  16.696  16.256   7.231  0.0394  0.0295  0.0509
 1053loPI   C4B15500  16.581  16.414   7.577 -0.1760 -0.0343 -0.3028
 1054loPI    C115501   9.853  17.626   5.392  0.0349 -0.0406 -0.1609
 1054loPI    C215502   9.714  17.840   5.084  0.0037 -0.0738 -0.1701
 1054loPI    C315503   9.634  17.449   5.108 -0.1452 -0.0357 -0.0269
 1054loPI   PO415504   9.742  17.812   5.624 -0.1668 -0.1270  0.1300
 1054loPI   GL115505   9.795  17.899   5.939  0.1957  0.3466 -0.1285
 1054loPI   GL215506   9.730  18.188   5.985  0.0183  0.0058  0.2064
 1054loPI   C1A15507   9.596  17.810   6.328 -0.3446  0.0597 -0.1327
 1054loPI   C2A15508   9.534  17.649   6.763  0.1232  0.0747  0.0966
 1054loPI   C3A15509   9.537  17.382   7.139 -0.2444  0.2280 -0.1550
 1054loPI   C4A15510   9.590  17.275   7.619 -0.2036  0.0492  0.1784
 1054loPI   C5A15511   9.491  17.469   8.041 -0.3697 -0.2883 -0.1216
 1054loPI   C6A15512   9.497  17.317   8.380  0.1305 -0.0287 -0.1970
 1054loPI   C1B15513   9.788  18.474   6.252  0.0513 -0.4460  0.2624
 1054loPI   C2B15514   9.869  18.561   6.738 -0.0679  0.0843 -0.0793
 1054loPI   C3B15515  10.027  18.764   7.121 -0.4483  0.2271  0.1578
 1054loPI   C4B15516  10.098  18.960   7.503 -0.1865  0.0625  0.0932
 1055loPI    C115517  15.956   0.008   5.613  0.0311  0.0676  0.0085
 1055loPI    C215518  16.211  -0.216   5.825 -0.2423  0.0278  0.3027
 1055loPI    C315519  15.901  -0.388   5.638 -0.0721  0.0790 -0.0342
 1055loPI   PO415520  15.963   0.239   5.835  0.0654 -0.0467 -0.0967
 1055loPI   GL115521  16.261   0.290   6.280  0.1039  0.0580  0.2264
 1055loPI   GL215522  16.341  -0.026   6.254 -0.0248  0.2906 -0.1356
 1055loPI   C1A15523  15.950   0.442   6.577 -0.0659 -0.2158  0.1121
 1055loPI   C2A15524  15.567   0.265   6.748 -0.0474  0.0655  0.3938
 1055loPI   C3A15525  15.485   0.248   7.153  0.0214 -0.0438  0.2045
 1055loPI   C4A15526  15.418   0.300   7.562  0.1177 -0.4014 -0.0537
 1055loPI   C5A15527  15.127   0.376   7.843  0.0813 -0.0389  0.1329
 1055loPI   C6A15528  14.809   0.048   7.895 -0.0297 -0.0621 -0.2090
 1055loPI   C1B15529  16.118  -0.069   6.563 -0.0006 -0.1214  0.1138
 1055loPI   C2B15530  15.921   0.009   7.038  0.2011 -0.0924 -0.0659
 1055loPI   C3B15531  15.855  -0.118   7.429 -0.1640  0.1474 -0.1172
 1055loPI   C4B15532  15.897   0.176   7.700 -0.1774  0.1202 -0.0211
 1056loPI    C115533  10.965   9.872   5.067  0.1999  0.2848 -0.2401
 1056loPI    C215534  11.290   9.975   4.856  0.2826 -0.0288 -0.2709
 1056loPI    C315535  11.113   9.622   4.792 -0.0340  0.1154 -0.2150
 1056loPI   PO415536  11.040  10.039   5.330 -0.0217  0.1155 -0.0586
 1056loPI   GL115537  11.013  10.295   5.693 -0.1454  0.3123  0.1511
 1056loPI   GL215538  10.791  10.634   5.806 -0.0303 -0.1289  0.0569
 1056loPI   C1A15539  10.944  10.074   6.101 -0.0820 -0.1668  0.1669
 1056loPI   C2A15540  10.823   9.745   6.357  0.1386 -0.1627 -0.0131
 1056loPI   C3A15541  10.775   9.652   6.711 -0.3686  0.1025 -0.0729
 1056loPI   C4A15542  10.697   9.728   7.189  0.1107  0.0336 -0.0464
 1056loPI   C5A15543  10.490   9.961   7.474  0.1432 -0.0933  0.2724
 1056loPI   C6A15544  10.255   9.886   7.875 -0.0909 -0.1904 -0.0949
 1056loPI   C1B15545  10.929  10.565   6.238  0.1359  0.3005 -0.0640
 1056loPI   C2B15546  10.834  10.313   6.548 -0.2175 -0.0309 -0.2388
 1056loPI   C3B15547  10.953  10.110   7.036 -0.0017  0.0503 -0.0882
 1056loPI   C4B15548  11.098   9.970   7.399 -0.2370  0.0630  0.1183
 1057loPI    C115549   5.261   4.910   5.163 -0.1266 -0.1694  0.1470
 1057loPI    C215550   4.979   5.139   5.331  0.0855  0.1532  0.0733
 1057loPI    C315551   4.919   4.979   4.969 -0.1438 -0.0764  0.2096
 1057loPI   PO415552   5.489   5.077   5.216  0.3084  0.0973 -0.1435
 1057loPI   GL115553   5.873   5.207   5.488  0.0543 -0.2546 -0.3853
 1057loPI   GL215554   6.221   5.213   5.579  0.0702 -0.0241  0.1915
 1057loPI   C1A15555   5.860   4.936   5.853  0.1431  0.4883  0.1259
 1057loPI   C2A15556   5.864   4.893   6.238 -0.2286 -0.3520  0.0177
 1057loPI   C3A15557   5.893   4.925   6.738  0.2167  0.1986  0.1684
 1057loPI   C4A15558   5.970   4.656   7.089  0.1915  0.0922  0.0483
 1057loPI   C5A15559   5.999   4.379   7.456  0.1619 -0.1600 -0.0811
 1057loPI   C6A15560   6.180   4.117   7.826  0.1103  0.0007 -0.2200
 1057loPI   C1B15561   6.226   5.293   5.995 -0.1387  0.0095  0.0922
 1057loPI   C2B15562   5.954   5.339   6.402 -0.3084 -0.0125 -0.0036
 1057loPI   C3B15563   5.642   5.327   6.527 -0.4129 -0.0072 -0.0764
 1057loPI   C4B15564   5.354   5.714   6.569  0.2749  0.2025 -0.1173
 1058loPI    C115565  17.251   2.838   5.007  0.4075 -0.0113 -0.0992
 1058loPI    C215566  17.104   2.836   4.635 -0.0034  0.0159  0.0573
 1058loPI    C315567  17.497   2.793   4.696  0.0768  0.0865 -0.3811
 1058loPI   PO415568  17.034   2.666   5.186  0.1479  0.2276  0.0031
 1058loPI   GL115569  17.011   2.461   5.616 -0.2647 -0.4379 -0.0830
 1058loPI   GL215570  16.688   2.583   5.524 -0.1948 -0.0096  0.1714
 1058loPI   C1A15571  16.986   2.294   5.970  0.2021  0.3132 -0.1192
 1058loPI   C2A15572  17.152   1.974   6.330 -0.2470  0.1580  0.3672
 1058loPI   C3A15573  17.160   2.001   6.832 -0.1405  0.1175 -0.2132
 1058loPI   C4A15574  17.147   2.407   7.015 -0.0481 -0.0184  0.1451
 1058loPI   C5A15575  17.063   2.572   7.403  0.0323 -0.0108 -0.1748
 1058loPI   C6A15576  16.918   2.370   7.743 -0.0744 -0.1703  0.0803
 1058loPI   C1B15577  16.577   2.585   5.980  0.0375  0.2083 -0.2174
 1058loPI   C2B15578  16.408   2.550   6.442  0.1537  0.4148  0.3107
 1058loPI   C3B15579  16.201   2.745   6.934  0.1965 -0.1320 -0.4778
 1058loPI   C4B15580  15.875   2.880   7.260 -0.0445 -0.0150 -0.1269
 1059loPI    C115581  10.205  18.039   5.597  0.0022 -0.3464  0.1051
 1059loPI    C215582  10.482  18.130   5.323  0.0608 -0.2169  0.2062
 1059loPI    C315583  10.100  18.087   5.214  0.0876 -0.1888  0.1005
 1059loPI   PO415584  10.189  18.192   5.768 -0.2810  0.3831 -0.3225
 1059loPI   GL115585  10.449  18.184   6.147 -0.0815  0.2189 -0.0264
 1059loPI   GL215586  10.758  17.996   6.188 -0.0817 -0.0295  0.1022
 1059loPI   C1A15587  10.107  18.219   6.433  0.0189 -0.2530 -0.0844
 1059loPI   C2A15588   9.862  17.985   6.737 -0.2559  0.1183 -0.2517
 1059loPI   C3A15589   9.802  17.859   7.111  0.0120  0.0456 -0.0907
 1059loPI   C4A15590   9.794  17.908   7.548  0.1444  0.3314 -0.1680
 1059loPI   C5A15591   9.699  17.965   7.965 -0.3187  0.0042  0.2065
 1059loPI   C6A15592   9.822  17.806   8.379  0.0621  0.2612 -0.2982
 1059loPI   C1B15593  10.649  18.289   6.569  0.0257 -0.0928 -0.1180
 1059loPI   C2B15594  10.686  18.298   6.991 -0.0775  0.0087 -0.3257
 1059loPI   C3B15595  10.725  18.248   7.326 -0.3565 -0.1675 -0.0994
 1059loPI   C4B15596  10.883  18.225   7.824  0.1408 -0.4833 -0.2445
 1060loPI    C115597  14.897  16.655   5.796 -0.0425  0.0273 -0.0223
 1060loPI    C215598  15.137  16.501   5.515  0.1321 -0.0163  0.1485
 1060loPI    C315599  14.763  16.609   5.421  0.1330 -0.1875 -0.0608
 1060loPI   PO415600  14.999  16.545   6.054  0.0399  0.1753  0.2966
 1060loPI   GL115601  15.074  16.554   6.444 -0.1454 -0.0408  0.2365
 1060loPI   GL215602  15.383  16.538   6.430 -0.1276 -0.1550  0.0371
 1060loPI   C1A15603  14.931  16.576   6.816 -0.0059  0.0826  0.1255
 1060loPI   C2A15604  14.974  16.726   7.154  0.4386  0.4842 -0.0148
 1060loPI   C3A15605  15.103  16.632   7.527  0.0889  0.3540  0.0067
 1060loPI   C4A15606  15.244  16.389   7.883 -0.0892 -0.0637  0.0283
 1060loPI   C5A15607  15.648  16.173   7.919  0.3584 -0.0874  0.0549
 1060loPI   C6A15608  15.886  16.188   8.213  0.0557 -0.0067 -0.2458
 1060loPI   C1B15609  15.480  16.500   6.837 -0.0261  0.1265 -0.2106
 1060loPI   C2B15610  15.376  16.425   7.185 -0.2527  0.0872 -0.2501
 1060loPI   C3B15611  15.634  16.564   7.556 -0.0598 -0.2588  0.2402
 1060loPI   C4B15612  15.595  16.775   8.015 -0.1280  0.4963 -0.0892
 1061loPI    C115613   2.292  14.554   5.631  0.1319 -0.1710 -0.1752
 1061loPI    C215614   2.344  14.947   5.582 -0.0631 -0.0960  0.1897
 1061loPI    C315615   2.595  14.690   5.408  0.1260  0.1909  0.0296
 1061loPI   PO415616   2.277  14.526   5.881  0.0545  0.1159 -0.3311
 1061loPI   GL115617   2.656  14.329   6.188  0.3016  0.0150 -0.1154
 1061loPI   GL215618   2.576  14.496   6.434 -0.1623 -0.2399  0.0893
 1061loPI   C1A15619   2.870  14.039   6.507  0.0252  0.1419 -0.2803
 1061loPI   C2A15620   2.948  13.991   6.905  0.0055 -0.0243 -0.2528
 1061loPI   C3A15621   2.700  13.853   7.268 -0.1609 -0.1292 -0.0805
 1061loPI   C4A15622   2.818  13.999   7.716 -0.2523 -0.1576 -0.1347
 1061loPI   C5A15623   2.991  14.126   8.061  0.3193  0.1319 -0.0772
 1061loPI   C6A15624   3.120  14.264   8.468 -0.3044  0.2676  0.2621
 1061loPI   C1B15625   2.751  14.418   6.877 -0.2597 -0.1857  0.5267
 1061loPI   C2B15626   2.737  14.332   7.262 -0.0438  0.3264 -0.0092
 1061loPI   C3B15627   2.445  14.212   7.528 -0.0432 -0.0206 -0.1237
 1061loPI   C4B15628   2.243  14.185   7.978  0.3105 -0.0302  0.0647
 1062loPI    C115629   9.318   5.353   5.450  0.0861 -0.1017 -0.0874
 1062loPI    C215630   9.030   5.089   5.536 -0.0257  0.0490  0.0058
 1062loPI    C315631   9.151   5.138   5.158 -0.0908 -0.0470 -0.0278
 1062loPI   PO415632   9.220   5.544   5.615 -0.0262  0.0588  0.0141
 1062loPI   GL115633   9.211   5.895   5.888 -0.1624  0.0689 -0.1398
 1062loPI   GL215634   9.518   5.846   6.065 -0.2771 -0.0109 -0.3275
 1062loPI   C1A15635   9.106   6.165   6.291 -0.3788  0.2084  0.0714
 1062loPI   C2A15636   9.045   6.210   6.796  0.1558 -0.1609  0.1071
 1062loPI   C3A15637   9.080   5.883   7.170 -0.2373  0.1309 -0.0382
 1062loPI   C4A15638   9.028   5.627   7.482 -0.1475  0.1380  0.2082
 1062loPI   C5A15639   9.128   5.325   7.834  0.2950  0.0751  0.1703
 1062loPI   C6A15640   9.467   5.366   8.144 -0.0631  0.0923 -0.1152
 1062loPI   C1B15641   9.597   5.880   6.430  0.0758  0.0427 -0.1922
 1062loPI   C2B15642   9.393   5.838   6.792  0.1946 -0.3212 -0.2114
 1062loPI   C3B15643   9.503   5.589   7.188  0.1345 -0.0736 -0.1996
 1062loPI   C4B15644   9.537   5.487   7.629  0.0291  0.2026 -0.1414
 1063loPI    C115645   4.782  10.105   5.355 -0.0478 -0.1281  0.0448
 1063loPI    C215646   4.951   9.912   5.048  0.2463  0.0997  0.0587
 1063loPI    C315647   5.024  10.301   5.103  0.0530  0.1018  0.3158
 1063loPI   PO415648   4.663   9.913   5.510 -0.3107 -0.1179  0.2417
 1063loPI   GL115649   4.639   9.714   5.905 -0.2389 -0.1026 -0.3260
 1063loPI   GL215650   4.854   9.827   6.084 -0.0190  0.0380 -0.0021
 1063loPI   C1A15651   4.373   9.821   6.211 -0.0427  0.0739  0.0760
 1063loPI   C2A15652   4.258   9.738   6.707 -0.0136  0.0618  0.0376
 1063loPI   C3A15653   4.414   9.805   7.108  0.1832 -0.1354 -0.1017
 1063loPI   C4A15654   4.347   9.663   7.572 -0.1723 -0.0033  0.1772
 1063loPI   C5A15655   4.197   9.674   7.968 -0.0056 -0.0427 -0.0771
 1063loPI   C6A15656   3.820   9.732   8.245 -0.1735  0.1666  0.0388
 1063loPI   C1B15657   4.813   9.755   6.487  0.0439  0.0176  0.1706
 1063loPI   C2B15658   4.768   9.531   6.828 -0.1302 -0.0260  0.2594
 1063loPI   C3B15659   4.809   9.411   7.211 -0.0104 -0.0968 -0.1465
 1063loPI   C4B15660   4.810   9.223   7.580 -0.0069  0.0296  0.1209
 1064loPI    C115661  10.669   8.823   5.261 -0.1199  0.3295 -0.1032
 1064loPI    C215662  10.353   8.650   5.086  0.1581 -0.2333 -0.0703
 1064loPI    C315663  10.686   8.717   4.875  0.1503  0.0101 -0.0081
 1064loPI   PO415664  10.711   8.624   5.430  0.0386 -0.1017 -0.0890
 1064loPI   GL115665  10.705   8.566   5.888 -0.3375 -0.0327  0.0951
 1064loPI   GL215666  10.564   8.352   5.987 -0.2595  0.3067  0.1318
 1064loPI   C1A15667  10.757   8.605   6.361  0.0841 -0.0756  0.1512
 1064loPI   C2A15668  10.843   8.561   6.713 -0.1964 -0.0545 -0.2985
 1064loPI   C3A15669  10.887   8.748   7.023 -0.0640  0.1203  0.0164
 1064loPI   C4A15670  11.002   9.019   7.412  0.1265 -0.2128 -0.0217
 1064loPI   C5A15671  11.113   9.298   7.763 -0.0328 -0.0326 -0.2780
 1064loPI   C6A15672  11.409   9.776   7.761  0.3843 -0.0524 -0.2402
 1064loPI   C1B15673  10.691   8.098   6.281 -0.2259 -0.0049 -0.1299
 1064loPI   C2B15674  10.989   8.109   6.681 -0.1404  0.3064 -0.1232
 1064loPI   C3B15675  11.337   7.964   6.974 -0.0526 -0.0787 -0.0412
 1064loPI   C4B15676  11.658   8.087   7.139  0.0216 -0.0928  0.0575
 1065loPI    C115677  10.697  12.532   5.531 -0.1513 -0.0084  0.0103
 1065loPI    C215678  10.788  12.337   5.194  0.1141  0.0119  0.0685
 1065loPI    C315679  10.555  12.662   5.181 -0.0253 -0.0930 -0.0728
 1065loPI   PO415680  10.824  12.450   5.721  0.1189  0.2756  0.2078
 1065loPI   GL115681  10.722  12.478   6.115  0.0453 -0.3987 -0.0608
 1065loPI   GL215682  10.360  12.530   6.248  0.3712 -0.0935 -0.0327
 1065loPI   C1A15683  10.885  12.430   6.548 -0.2630 -0.2198 -0.3636
 1065loPI   C2A15684  10.887  12.275   6.939 -0.2081 -0.0269 -0.0965
 1065loPI   C3A15685  10.868  12.424   7.328 -0.4369 -0.0173 -0.1900
 1065loPI   C4A15686  10.876  12.579   7.732  0.1164  0.1580 -0.3126
 1065loPI   C5A15687  10.950  12.680   8.156 -0.0970  0.0961  0.0770
 1065loPI   C6A15688  11.332  12.841   8.396 -0.3931 -0.0926 -0.2964
 1065loPI   C1B15689  10.400  12.415   6.656  0.4273 -0.1884 -0.3007
 1065loPI   C2B15690  10.381  12.299   7.014 -0.3778  0.1952  0.1312
 1065loPI   C3B15691  10.319  12.401   7.430 -0.1692  0.1352 -0.0692
 1065loPI   C4B15692  10.185  12.505   7.867  0.0684 -0.0736 -0.1826
 1066loPI    C115693   8.091   9.213   5.064 -0.0057 -0.0533 -0.0494
 1066loPI    C215694   7.733   9.214   4.884  0.0385  0.0881 -0.1375
 1066loPI    C315695   7.998   8.926   4.801  0.0428  0.1291 -0.2688
 1066loPI   PO415696   8.099   9.329   5.295 -0.2209 -0.0733 -0.1360
 1066loPI   GL115697   8.265   9.321   5.618  0.1662 -0.0543  0.0344
 1066loPI   GL215698   8.006   9.189   5.746  0.4405  0.1258  0.0985
 1066loPI   C1A15699   8.385   9.650   5.987  0.2947  0.0168 -0.2973
 1066loPI   C2A15700   8.383   9.788   6.419 -0.2485  0.2854 -0.2616
 1066loPI   C3A15701   8.251   9.916   6.789  0.1790  0.0675  0.2455
 1066loPI   C4A15702   8.264   9.820   7.118  0.2934 -0.0378 -0.0814
 1066loPI   C5A15703   8.413   9.783   7.589  0.0827  0.1194  0.0363
 1066loPI   C6A15704   8.735   9.888   7.766  0.0299  0.0514  0.1644
 1066loPI   C1B15705   8.040   8.995   6.217  0.0520 -0.0135  0.0235
 1066loPI   C2B15706   8.084   9.025   6.634 -0.1405  0.0967  0.1375
 1066loPI   C3B15707   8.166   9.112   7.099  0.2660  0.2068 -0.1887
 1066loPI   C4B15708   8.319   9.091   7.487  0.1245 -0.0291 -0.1099
 1067loPI    C115709  17.979  16.014   5.980 -0.0065 -0.1962  0.0814
 1067loPI    C215710  17.708  16.072   5.691 -0.0498 -0.0946  0.1421
 1067loPI    C315711  18.055  15.892   5.607  0.0119  0.0936 -0.0124
 1067loPI   PO415712  18.044  16.185   6.110 -0.1813 -0.1043  0.1905
 1067loPI   GL115713  17.856  16.477   6.422 -0.0962 -0.1619 -0.1203
 1067loPI   GL215714  17.911  16.098   6.589 -0.1170  0.0428  0.1425
 1067loPI   C1A15715  17.715  16.714   6.852  0.0175 -0.2426 -0.3273
 1067loPI   C2A15716  17.551  16.784   7.271 -0.2001  0.2733 -0.5236
 1067loPI   C3A15717  17.444  16.816   7.709 -0.1406 -0.1211 -0.0180
 1067loPI   C4A15718  17.690  16.898   8.057  0.0859  0.4812  0.2406
 1067loPI   C5A15719  18.028  16.836   8.310  0.1214 -0.2248  0.0709
 1067loPI   C6A15720  18.400  16.591   8.548  0.0717  0.0067  0.2296
 1067loPI   C1B15721  18.007  16.308   6.972  0.0050 -0.1481  0.2203
 1067loPI   C2B15722  18.039  16.222   7.456 -0.0118 -0.1372  0.0550
 1067loPI   C3B15723  17.803  16.393   7.887 -0.0097 -0.3640 -0.2663
 1067loPI   C4B15724  17.594  16.485   8.379  0.0466  0.0476 -0.2304
 1068loPI    C115725   7.577   9.247   5.397 -0.0730  0.1565 -0.0464
 1068loPI    C215726   7.581   8.978   5.694  0.0376  0.2231  0.0131
 1068loPI    C315727   7.815   8.926   5.374 -0.1594  0.0965 -0.1128
 1068loPI   PO415728   7.497   9.511   5.580  0.2164  0.0906 -0.1291
 1068loPI   GL115729   7.343   9.433   5.869 -0.0957 -0.0632  0.3001
 1068loPI   GL215730   7.486   9.098   6.133  0.0615  0.2504  0.1235
 1068loPI   C1A15731   7.353   9.471   6.345  0.1108 -0.1668  0.1252
 1068loPI   C2A15732   7.294   9.434   6.836  0.0986  0.0357 -0.0494
 1068loPI   C3A15733   7.251   9.318   7.243 -0.0149 -0.0775 -0.1325
 1068loPI   C4A15734   7.063   9.461   7.573 -0.0295 -0.0804  0.3937
 1068loPI   C5A15735   6.570   9.493   7.694  0.2379 -0.1461 -0.0784
 1068loPI   C6A15736   6.418   9.378   8.197  0.3333  0.0569 -0.2803
 1068loPI   C1B15737   7.573   8.991   6.539  0.4344 -0.0397 -0.0272
 1068loPI   C2B15738   7.639   8.979   6.935  0.0284  0.2011 -0.0899
 1068loPI   C3B15739   7.670   9.044   7.400 -0.3124 -0.0301  0.0932
 1068loPI   C4B15740   7.437   9.204   7.695 -0.0553  0.3338 -0.2230
 1069loPI    C115741  17.311   9.585   5.192  0.1309  0.0302  0.2475
 1069loPI    C215742  17.598   9.362   5.025 -0.0301 -0.0696  0.1013
 1069loPI    C315743  17.598   9.758   4.973  0.1290 -0.0591  0.1736
 1069loPI   PO415744  17.294   9.513   5.434  0.3124  0.2647  0.2960
 1069loPI   GL115745  17.403   9.418   5.779 -0.2182  0.3052 -0.2454
 1069loPI   GL215746  17.425   9.742   5.833 -0.5398 -0.2145 -0.0809
 1069loPI   C1A15747  17.087   9.210   6.012  0.2310  0.0289  0.2497
 1069loPI   C2A15748  16.787   8.991   6.278 -0.1147  0.2611  0.0458
 1069loPI   C3A15749  16.702   9.048   6.660  0.1539  0.0893 -0.1282
 1069loPI   C4A15750  16.737   9.085   7.227  0.0770  0.0339 -0.0048
 1069loPI   C5A15751  16.859   9.408   7.532  0.1417  0.1225  0.3791
 1069loPI   C6A15752  16.828   9.701   7.734  0.1180 -0.0197 -0.2822
 1069loPI   C1B15753  17.383   9.592   6.269 -0.1623 -0.1117  0.1299
 1069loPI   C2B15754  17.161   9.283   6.525 -0.1899  0.0017 -0.1584
 1069loPI   C3B15755  17.209   9.134   6.911  0.0242  0.0154 -0.2003
 1069loPI   C4B15756  17.220   9.241   7.250  0.2282  0.1375  0.1005
 1070loPI    C115757  10.958  14.365   5.905 -0.1873 -0.0621  0.2210
 1070loPI    C215758  11.221  14.148   5.695 -0.1057 -0.1602  0.4223
 1070loPI    C315759  10.969  14.395   5.506 -0.0272 -0.2401  0.2107
 1070loPI   PO415760  11.070  14.331   6.204  0.1912  0.0784  0.1514
 1070loPI   GL115761  11.106  14.087   6.543  0.3512 -0.4468  0.1643
 1070loPI   GL215762  11.269  13.871   6.727  0.0344 -0.2503 -0.3361
 1070loPI   C1A15763  11.046  14.228   6.944 -0.0007  0.2466 -0.0519
 1070loPI   C2A15764  10.909  14.499   7.249 -0.0680 -0.1083 -0.0447
 1070loPI   C3A15765  11.083  14.528   7.635 -0.0733  0.2615 -0.0738
 1070loPI   C4A15766  11.286  14.781   7.969 -0.0434 -0.2195  0.1855
 1070loPI   C5A15767  11.395  14.621   8.372 -0.1612  0.1475 -0.0608
 1070loPI   C6A15768  11.515  14.842   8.682 -0.1299  0.0841  0.0914
 1070loPI   C1B15769  11.078  13.769   7.166 -0.1409  0.2055 -0.0299
 1070loPI   C2B15770  10.808  14.031   7.393 -0.0954 -0.1495  0.0320
 1070loPI   C3B15771  10.548  13.927   7.794  0.1686  0.0823 -0.0843
 1070loPI   C4B15772  10.741  13.738   8.207 -0.0510 -0.1495  0.2259
 1071loPI    C115773  17.039  11.592   5.049  0.0302 -0.0726  0.1403
 1071loPI    C215774  16.789  11.902   5.090  0.0784 -0.0512  0.2791
 1071loPI    C315775  16.679  11.584   4.873 -0.0307 -0.0012  0.2603
 1071loPI   PO415776  17.209  11.591   5.272  0.0701  0.1168  0.3759
 1071loPI   GL115777  17.112  11.473   5.615  0.0818  0.0635  0.0483
 1071loPI   GL215778  16.763  11.627   5.539 -0.2256  0.1969  0.0490
 1071loPI   C1A15779  16.998  11.728   5.915  0.4269  0.1112 -0.2067
 1071loPI   C2A15780  16.950  11.588   6.317  0.3055 -0.4297  0.2173
 1071loPI   C3A15781  17.031  11.270   6.625  0.2925 -0.3031  0.2788
 1071loPI   C4A15782  17.081  11.138   7.032  0.1477 -0.4022  0.2770
 1071loPI   C5A15783  17.122  10.994   7.399 -0.2218  0.0326  0.0412
 1071loPI   C6A15784  17.179  10.641   7.558  0.3259  0.0232  0.1024
 1071loPI   C1B15785  16.568  11.437   5.863 -0.1212 -0.0421  0.3137
 1071loPI   C2B15786  16.520  11.075   6.048  0.1595  0.0139  0.1433
 1071loPI   C3B15787  16.520  11.210   6.428  0.2153  0.0439 -0.2563
 1071loPI   C4B15788  16.586  11.050   6.816  0.0666 -0.1360 -0.0059
 1072loPI    C115789   9.362   7.146   5.522  0.0707 -0.0925  0.0366
 1072loPI    C215790   9.259   7.344   5.190 -0.1956  0.2557  0.3191
 1072loPI    C315791   9.110   6.979   5.259 -0.0015  0.1073 -0.0231
 1072loPI   PO415792   9.290   7.306   5.702 -0.3052  0.2579 -0.0207
 1072loPI   GL115793   9.198   7.581   6.015  0.4347  0.2561  0.0375
 1072loPI   GL215794   8.895   7.615   5.963 -0.0327  0.1236  0.1423
 1072loPI   C1A15795   9.095   7.608   6.410 -0.1104 -0.2843  0.1823
 1072loPI   C2A15796   8.765   7.789   6.650 -0.2174  0.0503 -0.0729
 1072loPI   C3A15797   8.804   8.043   7.050 -0.1980  0.1025 -0.0472
 1072loPI   C4A15798   8.913   8.326   7.284 -0.0808 -0.0436 -0.1032
 1072loPI   C5A15799   9.187   8.682   7.420 -0.2468 -0.3530 -0.1489
 1072loPI   C6A15800   9.264   9.026   7.764  0.0835  0.0802  0.2947
 1072loPI   C1B15801   8.510   7.493   6.270 -0.3443  0.0215  0.2051
 1072loPI   C2B15802   8.351   7.418   6.716 -0.5933 -0.2340  0.1438
 1072loPI   C3B15803   8.187   7.310   7.057  0.0008 -0.3647  0.0926
 1072loPI   C4B15804   7.724   7.142   7.069 -0.2357 -0.4118 -0.0981
 1073loPI    C115805   2.897  17.019   5.618 -0.1207  0.0468 -0.0139
 1073loPI    C215806   2.543  16.837   5.661 -0.0850 -0.0594 -0.1628
 1073loPI    C315807   2.616  17.058   5.336 -0.0045 -0.0609 -0.1457
 1073loPI   PO415808   2.928  17.091   5.817 -0.1377  0.1288  0.1028
 1073loPI   GL115809   3.190  16.995   6.174  0.1624  0.4159 -0.3391
 1073loPI   GL215810   2.994  17.112   6.308 -0.2985 -0.0530  0.0024
 1073loPI   C1A15811   3.288  16.716   6.442 -0.3853 -0.1635 -0.0329
 1073loPI   C2A15812   3.282  16.825   6.894  0.1839 -0.0754  0.3211
 1073loPI   C3A15813   3.284  16.845   7.303  0.3640 -0.0247  0.4718
 1073loPI   C4A15814   3.041  17.004   7.471  0.1542  0.1352  0.1385
 1073loPI   C5A15815   3.163  17.115   7.829  0.1396  0.3341  0.4389
 1073loPI   C6A15816   3.188  17.402   8.147  0.0975  0.0585  0.0841
 1073loPI   C1B15817   2.867  17.038   6.658  0.1744  0.1575  0.0214
 1073loPI   C2B15818   2.788  16.727   7.083  0.1944  0.0277  0.0350
 1073loPI   C3B15819   2.633  16.566   7.500  0.0459 -0.3960 -0.0906
 1073loPI   C4B15820   2.952  16.632   7.876  0.1157 -0.2036  0.0724
 1074loPI    C115821   8.548   9.468   5.101  0.0646 -0.1793 -0.0124
 1074loPI    C215822   8.839   9.403   4.834 -0.2057 -0.1561 -0.3198
 1074loPI    C315823   8.615   9.734   4.809 -0.1228 -0.0675  0.0445
 1074loPI   PO415824   8.644   9.395   5.306 -0.1664 -0.0720  0.0201
 1074loPI   GL115825   8.789   9.453   5.702 -0.0583  0.2149 -0.0110
 1074loPI   GL215826   9.074   9.380   5.921  0.2608  0.1458  0.2135
 1074loPI   C1A15827   8.559   9.179   6.056 -0.1146  0.0127  0.3157
 1074loPI   C2A15828   8.409   9.275   6.402 -0.0286  0.0463 -0.2252
 1074loPI   C3A15829   8.413   9.412   6.805  0.2157 -0.2705  0.1749
 1074loPI   C4A15830   8.580   9.398   7.219 -0.0136 -0.1570  0.1729
 1074loPI   C5A15831   8.981   9.138   7.289 -0.2812 -0.2113  0.1215
 1074loPI   C6A15832   9.406   9.078   7.181 -0.0478  0.4107 -0.2945
 1074loPI   C1B15833   9.362   9.685   6.108  0.0221  0.1089 -0.1060
 1074loPI   C2B15834   9.304   9.655   6.531 -0.2889 -0.0802  0.0068
 1074loPI   C3B15835   9.177   9.492   7.000  0.0398  0.1718 -0.0008
 1074loPI   C4B15836   9.203   9.570   7.464 -0.0695 -0.3711  0.1376
 1075loPI    C115837   7.873  12.879   5.142 -0.0106 -0.0335 -0.0743
 1075loPI    C215838   8.230  12.760   5.277  0.0091  0.0437 -0.0577
 1075loPI    C315839   8.050  12.558   4.983  0.0475 -0.0199 -0.0377
 1075loPI   PO415840   7.782  12.968   5.376  0.2113  0.0106 -0.1213
 1075loPI   GL115841   7.608  12.806   5.801  0.0241 -0.2212  0.2275
 1075loPI   GL215842   7.540  12.482   5.909  0.0893 -0.0208  0.0557
 1075loPI   C1A15843   7.968  12.741   6.144  0.1773 -0.3686  0.2600
 1075loPI   C2A15844   8.103  12.856   6.521  0.0269  0.3279 -0.2548
 1075loPI   C3A15845   8.322  13.126   6.849 -0.1233 -0.1605 -0.0082
 1075loPI   C4A15846   8.347  13.458   7.166  0.2705  0.1768 -0.3358
 1075loPI   C5A15847   8.151  13.469   7.566 -0.0404  0.0396  0.2142
 1075loPI   C6A15848   7.834  13.712   7.761 -0.3192  0.3201  0.1904
 1075loPI   C1B15849   7.576  12.571   6.355  0.0075  0.0663 -0.0333
 1075loPI   C2B15850   7.524  12.693   6.688 -0.0459  0.1532  0.0814
 1075loPI   C3B15851   7.570  12.760   7.143  0.2343  0.4202  0.1176
 1075loPI   C4B15852   7.886  13.085   7.375 -0.1049  0.0117 -0.3649
 1076loPI    C115853   4.149  12.949   5.336 -0.2152  0.0140  0.0770
 1076loPI    C215854   4.063  13.306   5.178  0.0048  0.0487  0.0319
 1076loPI    C315855   4.301  13.052   4.980  0.3542  0.1272  0.3414
 1076loPI   PO415856   4.160  13.008   5.593  0.2596 -0.0144 -0.2633
 1076loPI   GL115857   4.311  13.380   5.829  0.0596  0.2070  0.0304
 1076loPI   GL215858   4.656  13.210   5.772 -0.0685 -0.0030 -0.3799
 1076loPI   C1A15859   4.571  13.232   6.244  0.0162 -0.0019  0.0650
 1076loPI   C2A15860   4.755  13.071   6.636  0.1476 -0.4631 -0.1095
 1076loPI   C3A15861   4.928  13.333   6.893 -0.2933 -0.1396  0.0692
 1076loPI   C4A15862   5.307  13.331   7.198 -0.0683  0.1259  0.1756
 1076loPI   C5A15863   5.508  13.268   7.545 -0.1220  0.2611 -0.0738
 1076loPI   C6A15864   5.463  12.851   7.964  0.0563  0.4173  0.1013
 1076loPI   C1B15865   4.769  13.659   6.075  0.1828  0.0521  0.1308
 1076loPI   C2B15866   5.022  13.885   6.244  0.3005  0.0905  0.1670
 1076loPI   C3B15867   5.269  13.732   6.555  0.0646 -0.1033 -0.1359
 1076loPI   C4B15868   5.445  13.784   6.915 -0.4814 -0.1118  0.0671
 1077loPI    C115869  16.577  10.749   4.872  0.1485 -0.0476 -0.3923
 1077loPI    C215870  16.208  10.805   4.729  0.0257 -0.1175 -0.1095
 1077loPI    C315871  16.503  11.054   4.624 -0.0970 -0.0699 -0.3488
 1077loPI   PO415872  16.600  10.738   5.190  0.1688 -0.2850  0.2662
 1077loPI   GL115873  16.741  10.922   5.627 -0.0421 -0.1925  0.2499
 1077loPI   GL215874  16.828  10.572   5.644  0.0747 -0.1267 -0.0654
 1077loPI   C1A15875  17.019  11.174   5.999 -0.0873 -0.0986  0.0232
 1077loPI   C2A15876  17.330  11.057   6.283 -0.1106 -0.3256 -0.0982
 1077loPI   C3A15877  17.558  11.006   6.647 -0.2678 -0.0044  0.3290
 1077loPI   C4A15878  17.554  11.247   7.008  0.1127  0.0975 -0.0602
 1077loPI   C5A15879  17.468  11.373   7.407  0.0989  0.1104  0.1227
 1077loPI   C6A15880  17.201  11.336   7.768 -0.1827 -0.0436 -0.1022
 1077loPI   C1B15881  16.554  10.564   6.020 -0.0416  0.1173  0.0653
 1077loPI   C2B15882  16.306  10.430   6.351 -0.0745 -0.0634  0.3682
 1077loPI   C3B15883  16.085  10.271   6.635 -0.0357 -0.0264  0.0466
 1077loPI   C4B15884  16.146  10.294   7.021  0.0997  0.1527 -0.2111
 1078loPI    C115885  10.223   5.951   5.269  0.2935 -0.0245 -0.2953
 1078loPI    C215886   9.857   5.827   5.167  0.0862  0.1006  0.2607
 1078loPI    C315887  10.002   6.169   5.017  0.0464 -0.0311 -0.0877
 1078loPI   PO415888  10.118   5.885   5.590  0.1618 -0.0120 -0.0357
 1078loPI   GL115889  10.096   5.995   5.986 -0.2595 -0.0467 -0.0086
 1078loPI   GL215890   9.991   6.243   5.981  0.0599 -0.1603 -0.0538
 1078loPI   C1A15891   9.996   6.109   6.478  0.1412 -0.0003  0.0399
 1078loPI   C2A15892   9.813   5.971   6.887 -0.2355  0.0350  0.2246
 1078loPI   C3A15893   9.932   5.891   7.373  0.3318 -0.1875  0.0497
 1078loPI   C4A15894  10.102   5.616   7.513  0.1160 -0.1400 -0.0419
 1078loPI   C5A15895  10.548   5.611   7.734  0.0484 -0.2112  0.2620
 1078loPI   C6A15896  10.955   5.516   7.802  0.0457  0.1784 -0.0083
 1078loPI   C1B15897   9.650   6.342   6.252  0.0440 -0.1039  0.3657
 1078loPI   C2B15898   9.484   6.320   6.647  0.2556 -0.3854  0.1441
 1078loPI   C3B15899   9.457   6.244   7.103  0.1112 -0.0227 -0.0984
 1078loPI   C4B15900   9.457   6.026   7.454  0.3333 -0.1294 -0.0021
 1079loPI    C115901   7.058  12.165   5.219  0.0843  0.0163  0.1961
 1079loPI    C215902   7.432  12.034   5.162  0.1412  0.2752 -0.0508
 1079loPI    C315903   7.220  12.172   4.853 -0.2315 -0.0496  0.0521
 1079loPI   PO415904   6.978  12.243   5.393  0.1524 -0.0937 -0.2463
 1079loPI   GL115905   7.026  12.421   5.768 -0.1525 -0.1246  0.1150
 1079loPI   GL215906   7.105  12.700   5.763 -0.0410  0.0030 -0.0006
 1079loPI   C1A15907   7.092  12.475   6.196  0.0024  0.0216  0.4177
 1079loPI   C2A15908   7.029  12.528   6.584  0.1079  0.3939  0.0861
 1079loPI   C3A15909   7.124  12.633   6.963  0.0620  0.0803 -0.1844
 1079loPI   C4A15910   7.077  12.719   7.415 -0.0270  0.0415 -0.0318
 1079loPI   C5A15911   7.349  12.768   7.617  0.2608  0.1375  0.0092
 1079loPI   C6A15912   7.721  12.606   7.629  0.0277  0.3172 -0.3080
 1079loPI   C1B15913   7.315  12.938   6.159 -0.2432 -0.2038 -0.1995
 1079loPI   C2B15914   7.731  13.139   6.431 -0.0486  0.1532  0.0255
 1079loPI   C3B15915   7.833  13.313   6.880  0.1628 -0.1394 -0.1356
 1079loPI   C4B15916   7.737  13.555   7.250 -0.1705 -0.2028 -0.1716
 1080POPI    C115917   3.852   7.896   4.879 -0.0823 -0.2974 -0.0558
 1080POPI    C215918   3.956   8.232   4.689 -0.3166 -0.2799 -0.1559
 1080POPI    C315919   4.077   7.878   4.548 -0.0502 -0.2376 -0.0372
 1080POPI   PO415920   3.856   7.894   5.104 -0.0125 -0.1313  0.2187
 1080POPI   GL115921   3.828   7.715   5.502 -0.1497 -0.1113 -0.1176
 1080POPI   GL215922   3.860   8.029   5.664  0.1951 -0.1624 -0.0908
 1080POPI   C1A15923   4.259   7.748   5.619 -0.0744 -0.0107 -0.3785
 1080POPI   D2A15924   4.682   7.810   5.850  0.0104 -0.1893  0.1390
 1080POPI   C3A15925   4.816   7.620   6.234  0.2112  0.0414  0.0484
 1080POPI   C4A15926   4.893   7.853   6.606  0.2560  0.1657 -0.0212
 1080POPI   C1B15927   3.890   7.779   5.981 -0.0307  0.1954  0.1533
 1080POPI   C2B15928   4.011   7.781   6.440  0.0082  0.3437  0.2034
 1080POPI   C3B15929   3.805   7.977   6.817  0.0850  0.1876  0.0061
 1080POPI   C4B15930   3.878   7.948   7.283 -0.1613 -0.1316  0.0983
 1081POPI    C115931  11.920   5.160   5.202  0.0576  0.2147 -0.1210
 1081POPI    C215932  11.812   5.060   4.831  0.0739 -0.0448 -0.0579
 1081POPI    C315933  12.176   4.963   4.965 -0.0482 -0.2453  0.1347
 1081POPI   PO415934  11.646   5.233   5.276  0.1063  0.0219  0.1426
 1081POPI   GL115935  11.323   5.005   5.463 -0.2096  0.0208 -0.1869
 1081POPI   GL215936  11.178   4.811   5.640 -0.1010 -0.0820  0.4072
 1081POPI   C1A15937  11.450   5.209   5.959 -0.1801  0.0502 -0.0654
 1081POPI   D2A15938  11.650   5.226   6.307  0.0129  0.2401 -0.1112
 1081POPI   C3A15939  11.798   5.067   6.773  0.0782  0.1244 -0.0414
 1081POPI   C4A15940  11.998   5.029   7.155 -0.3615 -0.2716  0.1919
 1081POPI   C1B15941  11.172   4.826   6.026  0.2451 -0.1524 -0.1184
 1081POPI   C2B15942  11.307   4.907   6.429 -0.1163  0.1968 -0.1378
 1081POPI   C3B15943  11.242   4.807   6.788  0.1504 -0.1906 -0.0658
 1081POPI   C4B15944  11.397   5.064   7.167  0.2418 -0.1920  0.0422
 1082POPI    C115945   9.200   9.210   5.431 -0.1547 -0.0416 -0.2724
 1082POPI    C215946   9.294   9.596   5.480  0.2151 -0.1765  0.1518
 1082POPI    C315947   9.328   9.426   5.120  0.2613  0.1305  0.0084
 1082POPI   PO415948   9.330   9.123   5.578  0.1389  0.1960 -0.1130
 1082POPI   GL115949   9.721   9.029   5.704 -0.4055  0.0311 -0.3348
 1082POPI   GL215950   9.681   9.393   5.845  0.1231 -0.0718 -0.1948
 1082POPI   C1A15951   9.866   8.866   6.145  0.1077  0.0582 -0.0210
 1082POPI   D2A15952  10.078   8.954   6.610  0.1274  0.0106  0.2221
 1082POPI   C3A15953  10.351   8.723   7.017 -0.3327  0.0805 -0.1540
 1082POPI   C4A15954  10.569   8.405   7.266  0.2136 -0.4526  0.2919
 1082POPI   C1B15955  10.038   9.327   6.229  0.0619  0.3167  0.1604
 1082POPI   C2B15956  10.220   9.627   6.611 -0.2347 -0.0077  0.0001
 1082POPI   C3B15957  10.272   9.591   7.086  0.2651 -0.1313  0.3754
 1082POPI   C4B15958  10.201   9.511   7.528 -0.0372 -0.1130 -0.2726
 1083POPI    C115959  12.599   1.939   5.102  0.0902  0.1069 -0.0665
 1083POPI    C215960  12.563   1.545   5.047 -0.0578  0.1153 -0.0331
 1083POPI    C315961  12.925   1.708   5.091 -0.0028 -0.0330  0.0735
 1083POPI   PO415962  12.347   1.915   5.276  0.2490 -0.0879 -0.0026
 1083POPI   GL115963  12.317   2.019   5.652  0.3293 -0.0637 -0.1397
 1083POPI   GL215964  12.352   1.828   5.867  0.0493 -0.2250  0.1497
 1083POPI   C1A15965  12.642   2.168   5.950 -0.1247  0.2823 -0.0738
 1083POPI   D2A15966  12.899   2.004   6.159 -0.0008 -0.0866  0.2137
 1083POPI   C3A15967  12.730   1.994   6.612 -0.2949  0.3097 -0.1976
 1083POPI   C4A15968  12.623   1.773   7.046  0.0686  0.0957 -0.0707
 1083POPI   C1B15969  12.279   1.799   6.276 -0.0644  0.0127  0.3102
 1083POPI   C2B15970  12.226   1.774   6.716 -0.2048  0.3022  0.2649
 1083POPI   C3B15971  12.206   1.428   7.058 -0.1038  0.1175 -0.1101
 1083POPI   C4B15972  12.479   1.282   7.272 -0.2271 -0.1323 -0.1601
 1084POPI    C115973   6.012   5.512   5.079 -0.3370 -0.0134  0.0694
 1084POPI    C215974   5.801   5.813   4.920 -0.0469  0.2425  0.1579
 1084POPI    C315975   5.730   5.436   4.806 -0.0474  0.3914 -0.3602
 1084POPI   PO415976   6.055   5.685   5.405 -0.0890  0.3281 -0.1331
 1084POPI   GL115977   6.068   5.819   5.814 -0.0741 -0.0579  0.0173
 1084POPI   GL215978   5.961   6.152   5.926  0.1958 -0.3410  0.0455
 1084POPI   C1A15979   6.298   5.781   6.208 -0.1345  0.0471 -0.2844
 1084POPI   D2A15980   6.412   5.709   6.708 -0.0091  0.0854 -0.1251
 1084POPI   C3A15981   6.222   5.830   7.043 -0.0719  0.0721  0.3022
 1084POPI   C4A15982   6.110   5.971   7.417 -0.0922  0.1294 -0.0259
 1084POPI   C1B15983   5.708   6.277   6.296 -0.1281 -0.1380 -0.1466
 1084POPI   C2B15984   5.608   6.214   6.700  0.2063 -0.1382 -0.0796
 1084POPI   C3B15985   5.311   6.154   6.823  0.2164  0.0189  0.1827
 1084POPI   C4B15986   5.088   5.934   7.067 -0.5128 -0.0009  0.0321
 1085POPI    C115987   9.712  13.755   5.753  0.1780  0.0065  0.2071
 1085POPI    C215988   9.706  14.149   5.822 -0.1328 -0.0108  0.2944
 1085POPI    C315989  10.054  13.951   5.822  0.0151  0.2450  0.3500
 1085POPI   PO415990   9.621  13.619   5.979 -0.1825  0.2089  0.0072
 1085POPI   GL115991   9.721  13.890   6.334  0.1166 -0.1501 -0.0476
 1085POPI   GL215992   9.771  13.550   6.423 -0.1290  0.4784  0.2955
 1085POPI   C1A15993   9.475  13.944   6.700  0.1431 -0.0396  0.0309
 1085POPI   D2A15994   9.295  13.921   7.159  0.1582  0.3409  0.2229
 1085POPI   C3A15995   9.115  13.949   7.512  0.0455  0.0598  0.0652
 1085POPI   C4A15996   8.855  14.145   7.918  0.0448  0.2203 -0.2781
 1085POPI   C1B15997   9.934  13.541   6.857 -0.0318  0.0840 -0.1405
 1085POPI   C2B15998   9.751  13.683   7.112  0.0811 -0.0942 -0.2954
 1085POPI   C3B15999   9.584  13.666   7.529  0.0351 -0.3378 -0.2443
 1085POPI   C4B16000   9.843  13.716   7.945  0.3590  0.0374 -0.0739
 1086POPI    C116001   9.513   8.228   5.965  0.2262  0.0492  0.0776
 1086POPI    C216002   9.250   8.522   5.901  0.1202 -0.0610  0.0034
 1086POPI    C316003   9.637   8.579   5.818  0.0431 -0.0713 -0.3793
 1086POPI   PO416004   9.292   8.021   5.928 -0.0305  0.0248  0.0153
 1086POPI   GL116005   8.966   8.134   6.236  0.1401  0.0029 -0.1926
 1086POPI   GL216006   9.264   8.080   6.464  0.0352 -0.0857 -0.0160
 1086POPI   C1A16007   8.814   8.367   6.645 -0.1840  0.0290  0.2276
 1086POPI   D2A16008   9.019   8.646   6.956  0.0438  0.0154 -0.0124
 1086POPI   C3A16009   9.379   8.768   6.785 -0.0176 -0.4026 -0.3433
 1086POPI   C4A16010   9.754   8.743   7.083  0.1088  0.2114 -0.3482
 1086POPI   C1B16011   9.221   7.838   6.896  0.0130 -0.1175  0.1084
 1086POPI   C2B16012   9.178   7.920   7.336  0.1764  0.1302 -0.1387
 1086POPI   C3B16013   9.115   8.209   7.728  0.3346 -0.1811 -0.1485
 1086POPI   C4B16014   9.133   8.080   8.142  0.1448  0.2478  0.2395
 1087POPI    C116015   8.336  17.071   5.436  0.0367 -0.1230 -0.0024
 1087POPI    C216016   8.404  17.150   5.050 -0.2915  0.0804 -0.0226
 1087POPI    C316017   8.562  16.823   5.219  0.0530  0.1171 -0.2643
 1087POPI   PO416018   8.165  17.021   5.497  0.1262 -0.0255 -0.2949
 1087POPI   GL116019   8.065  16.842   5.881  0.2043  0.2327 -0.4404
 1087POPI   GL216020   8.153  17.087   6.029 -0.1236 -0.0114  0.0302
 1087POPI   C1A16021   7.738  16.862   6.254  0.1684 -0.1768 -0.0971
 1087POPI   D2A16022   7.748  17.060   6.678  0.2352 -0.1208 -0.3022
 1087POPI   C3A16023   7.755  16.943   7.117 -0.3023 -0.0062  0.0201
 1087POPI   C4A16024   7.958  17.063   7.546  0.2472 -0.0463  0.2250
 1087POPI   C1B16025   8.066  17.317   6.428  0.1916  0.4003 -0.3086
 1087POPI   C2B16026   7.939  17.531   6.881  0.2458 -0.2058 -0.1926
 1087POPI   C3B16027   7.884  17.705   7.292  0.1579  0.0638  0.5388
 1087POPI   C4B16028   7.852  18.038   7.639  0.0871  0.1802 -0.1084
 1088POPI    C116029   5.032  11.049   5.508 -0.0684 -0.2327 -0.0043
 1088POPI    C216030   5.082  11.348   5.247  0.1117 -0.2032  0.0618
 1088POPI    C316031   4.718  11.194   5.309  0.0383 -0.0827 -0.0654
 1088POPI   PO416032   5.357  11.121   5.629 -0.2378  0.0740  0.0400
 1088POPI   GL116033   5.662  11.065   5.986  0.1859 -0.3111  0.1813
 1088POPI   GL216034   5.548  11.304   6.125  0.2782 -0.0670  0.0395
 1088POPI   C1A16035   5.821  10.931   6.341 -0.1390 -0.1032  0.1445
 1088POPI   D2A16036   5.829  11.001   6.749  0.0144  0.1041  0.0332
 1088POPI   C3A16037   5.904  11.126   7.091 -0.0039  0.1891 -0.1246
 1088POPI   C4A16038   5.903  11.146   7.615  0.0357 -0.0901  0.1631
 1088POPI   C1B16039   5.395  11.700   6.193 -0.0457  0.2471  0.1273
 1088POPI   C2B16040   5.357  12.075   6.445  0.1466  0.1906  0.1233
 1088POPI   C3B16041   5.198  12.093   6.870  0.0310  0.0466  0.2772
 1088POPI   C4B16042   5.245  11.932   7.305 -0.0008 -0.0431  0.3038
 1089POPI    C116043   5.959   3.064   4.947  0.0087 -0.1250 -0.0910
 1089POPI    C216044   5.825   3.438   4.988 -0.0275 -0.1335 -0.1312
 1089POPI    C316045   6.098   3.353   4.708  0.2122 -0.0774  0.0825
 1089POPI   PO416046   6.061   2.842   5.269 -0.1259  0.3485 -0.3525
 1089POPI   GL116047   5.783   2.619   5.737 -0.3231 -0.2019  0.1558
 1089POPI   GL216048   6.179   2.717   5.723 -0.0800 -0.0766 -0.0455
 1089POPI   C1A16049   5.774   2.515   6.175 -0.0764  0.0757  0.0910
 1089POPI   D2A16050   5.592   2.709   6.495  0.0588 -0.0702  0.2231
 1089POPI   C3A16051   5.528   2.644   6.871 -0.1673  0.2160  0.1120
 1089POPI   C4A16052   5.599   2.699   7.266  0.1916 -0.2360  0.0372
 1089POPI   C1B16053   6.231   2.615   6.125  0.0972  0.2767  0.2876
 1089POPI   C2B16054   6.092   2.700   6.569  0.2100  0.2651  0.2704
 1089POPI   C3B16055   6.284   2.628   7.031 -0.2803  0.1092  0.1643
 1089POPI   C4B16056   6.283   2.734   7.573 -0.0504  0.0647 -0.0611
 1090POPI    C116057  10.088  14.465   5.745 -0.1646  0.0030  0.0239
 1090POPI    C216058  10.185  14.718   5.451  0.0763 -0.3348 -0.1959
 1090POPI    C316059   9.956  14.400   5.372 -0.0854 -0.2805  0.0427
 1090POPI   PO416060   9.920  14.620   5.939 -0.1611  0.0042  0.1211
 1090POPI   GL116061  10.102  14.670   6.405  0.0348  0.0336  0.1302
 1090POPI   GL216062   9.806  15.001   6.335  0.0889 -0.2858 -0.2090
 1090POPI   C1A16063  10.169  14.550   6.796  0.0947 -0.1705  0.2443
 1090POPI   D2A16064  10.491  14.376   7.015  0.0347 -0.0085  0.1144
 1090POPI   C3A16065  10.397  14.367   7.505 -0.2010 -0.0372  0.1109
 1090POPI   C4A16066  10.641  14.413   7.876  0.1877  0.0562  0.3072
 1090POPI   C1B16067   9.942  15.006   6.768  0.1402  0.0917  0.0484
 1090POPI   C2B16068   9.918  15.176   7.167  0.4452  0.0381  0.1195
 1090POPI   C3B16069   9.766  15.093   7.623 -0.2330 -0.3144  0.1332
 1090POPI   C4B16070   9.537  14.903   8.056 -0.0213 -0.2926 -0.0736
 1091POPI    C116071  15.655   3.347   4.823  0.0389  0.0425  0.1517
 1091POPI    C216072  15.706   2.999   4.631 -0.1226 -0.0022  0.1881
 1091POPI    C316073  15.808   3.343   4.453 -0.3108 -0.0397  0.0034
 1091POPI   PO416074  15.617   3.291   5.029  0.1588  0.0390  0.1818
 1091POPI   GL116075  15.619   3.143   5.495  0.3268  0.0998  0.1948
 1091POPI   GL216076  15.815   3.449   5.516  0.2118  0.1276 -0.1459
 1091POPI   C1A16077  15.364   3.250   5.861  0.0162  0.1522  0.0087
 1091POPI   D2A16078  14.938   3.200   5.995 -0.2439 -0.1387  0.1378
 1091POPI   C3A16079  14.909   3.324   6.414  0.1751 -0.3136  0.1029
 1091POPI   C4A16080  15.040   3.384   6.842  0.0965  0.1128  0.0302
 1091POPI   C1B16081  15.822   3.459   6.009 -0.2565 -0.0548 -0.1367
 1091POPI   C2B16082  15.836   3.703   6.309 -0.0709  0.0135 -0.1729
 1091POPI   C3B16083  15.936   3.876   6.732 -0.0976  0.0392 -0.1286
 1091POPI   C4B16084  15.954   3.902   7.138  0.1669 -0.0378 -0.0326
 1092POPI    C116085  17.868   3.830   5.369  0.0031 -0.2267  0.0839
 1092POPI    C216086  18.258   3.748   5.334  0.0689  0.1458 -0.1075
 1092POPI    C316087  17.987   3.511   5.159  0.2067 -0.1184  0.0318
 1092POPI   PO416088  17.847   4.119   5.280 -0.0884 -0.0350  0.0472
 1092POPI   GL116089  17.962   4.537   5.294 -0.0032 -0.1758  0.1346
 1092POPI   GL216090  17.834   4.642   5.548 -0.0173  0.0475 -0.1093
 1092POPI   C1A16091  18.292   4.806   5.675 -0.3756 -0.2026  0.0294
 1092POPI   D2A16092  18.432   4.603   6.061 -0.1921 -0.3391 -0.1011
 1092POPI   C3A16093  18.651   4.838   6.252  0.0270  0.1960  0.2421
 1092POPI   C4A16094  18.999   5.141   5.999  0.1076  0.3986 -0.0546
 1092POPI   C1B16095  17.877   4.637   6.028 -0.1359 -0.0646 -0.2258
 1092POPI   C2B16096  17.649   4.612   6.478  0.1723 -0.0050 -0.2830
 1092POPI   C3B16097  17.701   4.674   6.924 -0.0999 -0.4370 -0.1753
 1092POPI   C4B16098  17.861   4.676   7.374 -0.2089  0.0550 -0.1768
 1093POPI    C116099   9.632  12.807   5.180 -0.0499 -0.1989 -0.2707
 1093POPI    C216100   9.398  13.130   5.194 -0.0325 -0.1931 -0.0870
 1093POPI    C316101   9.739  13.140   4.987 -0.0734 -0.1216 -0.1517
 1093POPI   PO416102   9.551  12.781   5.531  0.0366 -0.3279  0.3308
 1093POPI   GL116103   9.319  12.663   5.972  0.1342  0.0050  0.1337
 1093POPI   GL216104   9.132  12.872   6.184 -0.1219  0.1165  0.3899
 1093POPI   C1A16105   9.477  12.500   6.347 -0.2294  0.3219 -0.3035
 1093POPI   D2A16106   9.521  12.494   6.789 -0.4112  0.0453  0.0837
 1093POPI   C3A16107   9.824  12.329   7.084 -0.3033  0.1023  0.0637
 1093POPI   C4A16108   9.816  12.348   7.500  0.1038 -0.2260 -0.1322
 1093POPI   C1B16109   9.121  12.792   6.571 -0.0045 -0.1556 -0.0130
 1093POPI   C2B16110   9.186  12.784   7.019 -0.1067  0.0259  0.0414
 1093POPI   C3B16111   9.316  12.617   7.350 -0.1196 -0.2996  0.3362
 1093POPI   C4B16112   9.350  12.459   7.758  0.0660 -0.0764  0.1208
 1094POPI    C116113   8.165  10.289   5.347 -0.0658 -0.0095  0.2291
 1094POPI    C216114   7.821  10.139   5.207  0.3001 -0.4322 -0.2530
 1094POPI    C316115   8.040  10.386   4.980  0.1429  0.1426  0.1964
 1094POPI   PO416116   8.069  10.235   5.659  0.1618  0.0066  0.1878
 1094POPI   GL116117   7.861  10.078   6.063 -0.1377  0.1278 -0.0560
 1094POPI   GL216118   7.613   9.918   5.956  0.0142  0.0193 -0.1057
 1094POPI   C1A16119   7.957  10.139   6.506  0.4549 -0.1002 -0.0123
 1094POPI   D2A16120   7.913  10.185   6.906 -0.0030 -0.1118 -0.1048
 1094POPI   C3A16121   7.703   9.959   7.304  0.3993 -0.1307 -0.0276
 1094POPI   C4A16122   7.556   9.756   7.681  0.0407  0.0143  0.1566
 1094POPI   C1B16123   7.427   9.924   6.289  0.2925 -0.4594 -0.2125
 1094POPI   C2B16124   7.390  10.030   6.715 -0.0605  0.1017  0.0864
 1094POPI   C3B16125   7.392  10.248   7.111  0.0774 -0.0357 -0.1607
 1094POPI   C4B16126   7.519  10.373   7.536 -0.2152  0.2691  0.1258
 1095POPI    C116127   5.881  15.748   5.258  0.1850 -0.1149 -0.0506
 1095POPI    C216128   5.875  15.933   4.904  0.1919  0.1506  0.0853
 1095POPI    C316129   6.168  15.675   4.989  0.0156 -0.1597 -0.2212
 1095POPI   PO416130   5.835  15.967   5.474 -0.0815 -0.1389  0.1434
 1095POPI   GL116131   5.805  15.839   5.882  0.2164  0.2989 -0.1771
 1095POPI   GL216132   5.511  15.873   5.877  0.3279  0.1706  0.0350
 1095POPI   C1A16133   5.777  15.537   6.228 -0.1122 -0.1445 -0.0222
 1095POPI   D2A16134   5.647  15.145   6.332  0.0013  0.1469  0.0227
 1095POPI   C3A16135   5.887  15.155   6.626 -0.3808  0.0687  0.3582
 1095POPI   C4A16136   5.964  15.527   6.847 -0.1917  0.0631  0.0805
 1095POPI   C1B16137   5.547  16.005   6.257 -0.0537 -0.4378 -0.0635
 1095POPI   C2B16138   5.658  15.959   6.662  0.1321  0.1661 -0.0037
 1095POPI   C3B16139   5.582  15.928   7.050 -0.0205  0.2011  0.3895
 1095POPI   C4B16140   5.385  15.892   7.442 -0.0621  0.3241 -0.0629
 1096POPI    C116141  12.167   0.086   5.736  0.1322 -0.1224 -0.1549
 1096POPI    C216142  12.116  -0.300   5.644 -0.0929 -0.0832 -0.2010
 1096POPI    C316143  12.180  -0.033   5.354  0.1276 -0.0943 -0.1638
 1096POPI   PO416144  12.310   0.071   5.986  0.1087  0.3354 -0.2826
 1096POPI   GL116145  12.253   0.034   6.419 -0.1030  0.2785 -0.2346
 1096POPI   GL216146  12.567  -0.160   6.415 -0.3233 -0.1264 -0.0054
 1096POPI   C1A16147  12.508   0.339   6.566 -0.1210 -0.3141 -0.1085
 1096POPI   D2A16148  12.304   0.661   6.840  0.0836 -0.0617  0.0606
 1096POPI   C3A16149  12.503   1.051   6.803 -0.2549 -0.1638 -0.0710
 1096POPI   C4A16150  12.650   1.446   6.699  0.0811 -0.1933  0.2157
 1096POPI   C1B16151  12.517  -0.096   6.868 -0.1245  0.0217  0.3946
 1096POPI   C2B16152  12.177   0.108   7.052  0.4980 -0.2521 -0.1291
 1096POPI   C3B16153  12.087   0.269   7.431  0.1890 -0.1945  0.3832
 1096POPI   C4B16154  12.247   0.473   7.802 -0.0843  0.3133 -0.0414
 1097POPI    C116155   0.501   4.665   5.058  0.0310 -0.2022 -0.1653
 1097POPI    C216156   0.174   4.585   5.274  0.1361 -0.1086  0.0315
 1097POPI    C316157   0.183   4.494   4.884 -0.1034 -0.1608  0.0360
 1097POPI   PO416158   0.704   4.556   5.272  0.0897 -0.1232 -0.1183
 1097POPI   GL116159   0.880   4.558   5.618 -0.1052  0.0762  0.0271
 1097POPI   GL216160   1.082   4.721   5.651  0.2299 -0.1122 -0.0779
 1097POPI   C1A16161   0.980   4.380   5.990  0.0448 -0.0733  0.0083
 1097POPI   D2A16162   1.013   3.935   6.067 -0.1053  0.3150 -0.0194
 1097POPI   C3A16163   0.596   3.805   6.212 -0.1985  0.0674  0.0740
 1097POPI   C4A16164   0.370   3.804   6.610 -0.2276 -0.1364 -0.2183
 1097POPI   C1B16165   0.926   4.874   6.011  0.2984  0.0124  0.0576
 1097POPI   C2B16166   0.685   4.742   6.382  0.2144  0.2794  0.3434
 1097POPI   C3B16167   0.361   4.656   6.635  0.2813 -0.0324  0.0508
 1097POPI   C4B16168  -0.063   4.577   6.641 -0.1943  0.3375  0.0620
 1098POPI    C116169   7.616   5.115   5.303  0.0335  0.2356  0.1523
 1098POPI    C216170   7.723   5.344   4.993 -0.0701  0.0427 -0.0285
 1098POPI    C316171   7.948   5.030   5.096 -0.1069  0.0285  0.0085
 1098POPI   PO416172   7.545   5.266   5.474  0.1127 -0.0626 -0.2300
 1098POPI   GL116173   7.541   5.351   5.809 -0.2010 -0.0404 -0.3093
 1098POPI   GL216174   7.742   4.974   5.775 -0.1238  0.1207  0.1274
 1098POPI   C1A16175   7.460   5.241   6.265  0.0273 -0.1562  0.1440
 1098POPI   D2A16176   7.270   5.192   6.705  0.0851  0.2809  0.0963
 1098POPI   C3A16177   7.383   5.582   6.977 -0.0025 -0.2214 -0.0647
 1098POPI   C4A16178   7.429   5.763   7.412 -0.2018 -0.2499  0.1883
 1098POPI   C1B16179   7.447   4.763   6.010 -0.2532 -0.0694  0.2140
 1098POPI   C2B16180   7.307   4.730   6.393 -0.2002 -0.2549  0.2582
 1098POPI   C3B16181   7.317   4.676   6.888 -0.1430  0.0393  0.0657
 1098POPI   C4B16182   7.281   4.826   7.246  0.1372 -0.0245 -0.2963
 1099POPI    C116183   6.013  11.251   5.476  0.0900  0.1153  0.1720
 1099POPI    C216184   6.237  11.398   5.179 -0.2359  0.1213 -0.0776
 1099POPI    C316185   6.077  11.645   5.451  0.0700  0.1149  0.1136
 1099POPI   PO416186   6.103  11.078   5.641 -0.0205  0.0043 -0.2043
 1099POPI   GL116187   6.167  10.977   5.999  0.0972  0.2029  0.0202
 1099POPI   GL216188   6.024  10.607   6.015  0.0005  0.1659 -0.0983
 1099POPI   C1A16189   6.295  10.969   6.380 -0.0850  0.1924  0.0765
 1099POPI   D2A16190   6.350  10.935   6.786  0.2591  0.0569 -0.2024
 1099POPI   C3A16191   6.276  11.326   6.809 -0.0598  0.0400 -0.0686
 1099POPI   C4A16192   6.204  11.718   6.823 -0.1367 -0.3329  0.2635
 1099POPI   C1B16193   6.125  10.444   6.365 -0.2121 -0.0934  0.0033
 1099POPI   C2B16194   6.049  10.524   6.760  0.1135 -0.1929 -0.1189
 1099POPI   C3B16195   5.962  10.632   7.166 -0.2616  0.1186 -0.0835
 1099POPI   C4B16196   5.893  10.702   7.549 -0.2167  0.0592  0.1375
 1100POPI    C116197   1.873  11.152   5.317  0.3966 -0.2365  0.2986
 1100POPI    C216198   1.945  11.221   4.929 -0.2674 -0.2179  0.1666
 1100POPI    C316199   2.066  10.879   5.098  0.2150 -0.1345  0.0057
 1100POPI   PO416200   1.816  11.363   5.483 -0.2941 -0.1057 -0.2140
 1100POPI   GL116201   1.671  11.406   5.958 -0.2709 -0.0570  0.1039
 1100POPI   GL216202   1.551  11.124   5.951 -0.0698  0.0786 -0.1083
 1100POPI   C1A16203   1.695  11.403   6.381  0.1151 -0.1062 -0.1263
 1100POPI   D2A16204   1.726  11.085   6.617  0.0346 -0.3277  0.0736
 1100POPI   C3A16205   1.805  10.989   7.034 -0.0460 -0.1516 -0.1528
 1100POPI   C4A16206   1.855  10.886   7.485  0.0395 -0.1554  0.2003
 1100POPI   C1B16207   1.402  10.878   6.284 -0.3129 -0.0103  0.2729
 1100POPI   C2B16208   1.224  10.805   6.756  0.2368  0.0733 -0.1739
 1100POPI   C3B16209   1.542  10.595   6.965  0.1457 -0.2997 -0.0890
 1100POPI   C4B16210   1.900  10.365   7.121 -0.1591 -0.0640 -0.1282
 1101POPI    C116211   3.412  17.812   5.623 -0.2677  0.3846  0.0436
 1101POPI    C216212   3.329  17.989   5.274 -0.2334  0.1565 -0.0824
 1101POPI    C316213   3.667  17.779   5.316 -0.3557 -0.0257  0.0078
 1101POPI   PO416214   3.262  17.966   5.783  0.0372 -0.1574 -0.0347
 1101POPI   GL116215   3.327  18.327   5.952  0.1800  0.1540 -0.1782
 1101POPI   GL216216   3.644  18.140   6.041 -0.1950  0.3015  0.0379
 1101POPI   C1A16217   3.445  18.582   6.286 -0.1782  0.1984  0.0481
 1101POPI   D2A16218   3.485  18.792   6.643 -0.0416  0.0476 -0.2666
 1101POPI   C3A16219   3.752  18.947   6.964  0.1395  0.0117  0.1757
 1101POPI   C4A16220   3.785  19.176   7.186 -0.1447 -0.1345  0.1813
 1101POPI   C1B16221   3.734  18.044   6.456  0.0042  0.3962  0.1382
 1101POPI   C2B16222   3.874  18.019   6.844 -0.0452 -0.1065 -0.2717
 1101POPI   C3B16223   3.766  18.193   7.250  0.0132 -0.0377  0.0097
 1101POPI   C4B16224   3.606  18.424   7.611  0.4138 -0.0324  0.0356
 1102POPI    C116225  15.029  14.933   5.971 -0.0425 -0.0173  0.1483
 1102POPI    C216226  14.666  14.768   5.995 -0.1531  0.2059  0.0360
 1102POPI    C316227  14.766  14.985   5.674  0.1531 -0.0250 -0.0290
 1102POPI   PO416228  15.096  14.921   6.201  0.2407 -0.2593  0.2028
 1102POPI   GL116229  14.912  15.101   6.556 -0.0848  0.3447 -0.0545
 1102POPI   GL216230  14.677  14.830   6.552 -0.1227 -0.1619  0.1630
 1102POPI   C1A16231  14.781  14.988   7.012  0.3221 -0.1069  0.0241
 1102POPI   D2A16232  14.868  14.726   7.399 -0.1315 -0.0091 -0.3145
 1102POPI   C3A16233  15.046  14.955   7.759 -0.2156  0.0575 -0.0981
 1102POPI   C4A16234  15.274  15.171   7.911  0.1147  0.0144 -0.1740
 1102POPI   C1B16235  14.624  14.518   6.874  0.0193 -0.0595 -0.0308
 1102POPI   C2B16236  14.390  14.245   7.130 -0.1650  0.0206  0.1184
 1102POPI   C3B16237  13.985  14.092   7.085 -0.2178 -0.1613  0.0602
 1102POPI   C4B16238  13.588  14.231   6.857  0.0805 -0.1386 -0.1529
 1103POPI    C116239   5.933   9.989   4.899  0.0012  0.1518  0.1008
 1103POPI    C216240   6.322  10.004   4.810 -0.0458 -0.0172 -0.1417
 1103POPI    C316241   6.058  10.199   4.582 -0.0942  0.1922  0.0894
 1103POPI   PO416242   5.840   9.801   5.122  0.0562  0.3304  0.0238
 1103POPI   GL116243   5.825   9.914   5.627 -0.1053 -0.1977 -0.2026
 1103POPI   GL216244   5.631  10.201   5.909 -0.1347  0.1059 -0.2072
 1103POPI   C1A16245   5.822   9.509   5.995 -0.1696  0.0902 -0.2251
 1103POPI   D2A16246   6.177   9.157   5.990  0.1742  0.2619 -0.0465
 1103POPI   C3A16247   6.272   9.062   6.344 -0.0074 -0.3169 -0.2350
 1103POPI   C4A16248   6.552   8.996   6.682 -0.4434 -0.0386 -0.0706
 1103POPI   C1B16249   5.631  10.112   6.352 -0.0518  0.1167  0.1279
 1103POPI   C2B16250   5.740  10.157   6.763  0.0033  0.2627 -0.0562
 1103POPI   C3B16251   5.716  10.181   7.246 -0.0200 -0.0759 -0.1344
 1103POPI   C4B16252   5.643  10.255   7.682 -0.0032 -0.2181  0.2558
 1104POPI    C116253   5.034  18.460   5.290  0.0172 -0.0421 -0.0307
 1104POPI    C216254   4.667  18.620   5.303  0.0667  0.0701 -0.0054
 1104POPI    C316255   4.818  18.493   4.955  0.0144  0.0480 -0.0201
 1104POPI   PO416256   5.043  18.203   5.387 -0.1005  0.0971 -0.0100
 1104POPI   GL116257   5.038  17.954   5.730  0.1647 -0.1564 -0.3350
 1104POPI   GL216258   5.161  18.288   5.884 -0.1337 -0.1577 -0.0028
 1104POPI   C1A16259   4.847  17.991   6.135  0.2965  0.1117 -0.1506
 1104POPI   D2A16260   4.749  18.046   6.591 -0.1747 -0.1459 -0.1257
 1104POPI   C3A16261   4.975  17.891   6.820 -0.0956 -0.0190  0.2777
 1104POPI   C4A16262   5.074  17.533   7.207 -0.0312  0.1128  0.0809
 1104POPI   C1B16263   5.128  18.456   6.184 -0.0636 -0.1693 -0.0879
 1104POPI   C2B16264   5.351  18.452   6.601 -0.0011 -0.2070  0.0108
 1104POPI   C3B16265   5.479  18.467   6.959  0.1875  0.1895 -0.2144
 1104POPI   C4B16266   5.600  18.698   7.294 -0.3803  0.2473 -0.0755
 1105POPI    C116267   2.350  12.247   5.574 -0.1306  0.2329 -0.2515
 1105POPI    C216268   2.391  12.422   5.217  0.0839 -0.0552 -0.3726
 1105POPI    C316269   2.465  12.031   5.257  0.0797 -0.0220 -0.0075
 1105POPI   PO416270   2.093  12.289   5.642 -0.0980  0.0694  0.3090
 1105POPI   GL116271   1.891  12.377   5.933  0.2176 -0.2005  0.0699
 1105POPI   GL216272   1.604  12.275   6.004 -0.1336  0.0447  0.4525
 1105POPI   C1A16273   1.942  12.394   6.370 -0.2426 -0.1931 -0.1076
 1105POPI   D2A16274   2.069  12.259   6.767 -0.1224 -0.1533 -0.0401
 1105POPI   C3A16275   2.322  12.448   7.048 -0.0217  0.1215 -0.1629
 1105POPI   C4A16276   2.255  12.613   7.351 -0.0275  0.0886 -0.0991
 1105POPI   C1B16277   1.458  12.204   6.387  0.1403 -0.1082 -0.1615
 1105POPI   C2B16278   1.326  12.065   6.790 -0.1112  0.0559  0.1230
 1105POPI   C3B16279   1.196  12.076   7.139  0.1769  0.1027  0.0933
 1105POPI   C4B16280   1.244  12.312   7.562  0.2070 -0.2024  0.0051
 1106POPI    C116281   4.224   4.900   5.243 -0.2072 -0.1000 -0.1327
 1106POPI    C216282   4.356   5.065   4.904 -0.0023  0.0078 -0.0025
 1106POPI    C316283   4.077   5.251   5.121  0.1509  0.1332  0.0887
 1106POPI   PO416284   4.462   4.849   5.359 -0.0929 -0.0921 -0.0136
 1106POPI   GL116285   4.478   4.939   5.714  0.1251  0.2667  0.0882
 1106POPI   GL216286   4.544   4.586   5.816 -0.3011 -0.1361 -0.1833
 1106POPI   C1A16287   4.530   5.182   6.203 -0.2982 -0.0735  0.1561
 1106POPI   D2A16288   4.835   5.262   6.576  0.0713  0.1679  0.0347
 1106POPI   C3A16289   4.933   4.943   6.941  0.4379 -0.3876 -0.0082
 1106POPI   C4A16290   4.971   4.609   7.247  0.1105  0.1578  0.0533
 1106POPI   C1B16291   4.368   4.688   6.282 -0.1864 -0.0226  0.0912
 1106POPI   C2B16292   4.362   5.060   6.696 -0.1575  0.0179 -0.1023
 1106POPI   C3B16293   4.463   4.994   7.003  0.1219 -0.2345  0.4078
 1106POPI   C4B16294   4.739   5.109   7.387  0.0288  0.3183 -0.1950
 1107POPI    C116295   4.085  10.268   5.026  0.0387  0.0422  0.1596
 1107POPI    C216296   3.902   9.915   5.071 -0.0240  0.0388 -0.1030
 1107POPI    C316297   3.764  10.179   4.805  0.1697  0.1626 -0.0828
 1107POPI   PO416298   4.344  10.376   5.311 -0.0195  0.2963  0.1944
 1107POPI   GL116299   4.351  10.433   5.704 -0.1453  0.0417  0.1408
 1107POPI   GL216300   4.514  10.232   5.945  0.2257 -0.2926 -0.0979
 1107POPI   C1A16301   4.259  10.687   6.088 -0.0028 -0.0978 -0.2532
 1107POPI   D2A16302   4.262  10.759   6.503  0.0761 -0.0128 -0.1029
 1107POPI   C3A16303   4.522  10.625   6.748  0.0662  0.2784  0.1180
 1107POPI   C4A16304   4.387  10.598   7.150  0.3662 -0.2154 -0.1275
 1107POPI   C1B16305   4.586  10.246   6.411 -0.0109 -0.2813  0.1777
 1107POPI   C2B16306   4.728  10.109   6.846  0.1113 -0.2511  0.1126
 1107POPI   C3B16307   4.647  10.175   7.363  0.0078  0.1175  0.2887
 1107POPI   C4B16308   4.553  10.061   7.808 -0.1535 -0.1404  0.0543
 1108POPI    C116309   2.702   5.634   5.614  0.1671 -0.0894 -0.0739
 1108POPI    C216310   2.705   5.560   5.221 -0.1783 -0.1522 -0.0681
 1108POPI    C316311   2.558   5.288   5.475 -0.0257 -0.0809  0.0989
 1108POPI   PO416312   2.925   5.758   5.684  0.1928 -0.4559  0.0152
 1108POPI   GL116313   2.805   5.949   6.058 -0.0777 -0.0970  0.1628
 1108POPI   GL216314   2.487   5.770   6.035  0.3554  0.2357 -0.0303
 1108POPI   C1A16315   2.701   6.117   6.431  0.2569 -0.2985  0.0345
 1108POPI   D2A16316   2.655   6.104   6.830 -0.1614 -0.1465  0.2717
 1108POPI   C3A16317   2.447   6.305   7.263  0.1826 -0.0354  0.1800
 1108POPI   C4A16318   2.459   6.132   7.666  0.2226  0.2233 -0.2123
 1108POPI   C1B16319   2.278   5.775   6.327  0.3043 -0.0709  0.2643
 1108POPI   C2B16320   2.138   5.725   6.713  0.1208 -0.1219  0.0596
 1108POPI   C3B16321   2.326   5.742   7.065  0.0411 -0.3787  0.2812
 1108POPI   C4B16322   2.542   5.736   7.399  0.2440 -0.0752 -0.0185
 1109POPI    C116323  15.787  11.927   5.296 -0.0502 -0.0833 -0.0338
 1109POPI    C216324  15.550  12.099   5.024 -0.2095 -0.0628  0.1163
 1109POPI    C316325  15.770  11.780   4.925 -0.2513 -0.0432 -0.0414
 1109POPI   PO416326  15.614  11.952   5.539 -0.1303  0.3435 -0.0963
 1109POPI   GL116327  15.706  12.213   5.862 -0.1583  0.0356  0.1151
 1109POPI   GL216328  15.340  12.399   5.984  0.0357  0.0034  0.2079
 1109POPI   C1A16329  15.715  12.470   6.309 -0.0513 -0.0959 -0.3046
 1109POPI   D2A16330  15.664  12.880   6.512 -0.0687 -0.1259  0.0342
 1109POPI   C3A16331  15.583  12.830   6.945 -0.1462 -0.2423  0.0237
 1109POPI   C4A16332  15.740  12.598   7.323 -0.3694 -0.0382 -0.0176
 1109POPI   C1B16333  15.173  12.150   6.379 -0.0291 -0.3244  0.1342
 1109POPI   C2B16334  15.059  11.957   6.823 -0.2530 -0.2993 -0.2531
 1109POPI   C3B16335  14.745  11.820   6.891  0.2583  0.0386 -0.1200
 1109POPI   C4B16336  14.389  11.689   7.210  0.1002 -0.0525 -0.0008
 1110POPI    C116337  16.695  13.437   5.034 -0.0043 -0.0055  0.0896
 1110POPI    C216338  16.513  13.082   5.011 -0.0395  0.0089  0.1469
 1110POPI    C316339  16.809  13.172   4.757  0.1814 -0.1829  0.3307
 1110POPI   PO416340  16.743  13.424   5.366  0.2523 -0.4184  0.3625
 1110POPI   GL116341  16.783  13.192   5.733  0.1071 -0.0306  0.2638
 1110POPI   GL216342  16.770  12.884   5.745 -0.3097  0.1277 -0.1845
 1110POPI   C1A16343  16.872  13.198   6.163 -0.0046  0.0154 -0.1686
 1110POPI   D2A16344  17.137  13.160   6.477 -0.1409  0.0377 -0.1609
 1110POPI   C3A16345  17.106  13.006   6.942 -0.1712  0.1239 -0.0265
 1110POPI   C4A16346  16.969  13.101   7.431 -0.2223 -0.0181 -0.2129
 1110POPI   C1B16347  16.426  13.040   5.997  0.1176 -0.0608 -0.1635
 1110POPI   C2B16348  16.351  13.174   6.430  0.2857 -0.1921 -0.1714
 1110POPI   C3B16349  16.493  12.974   6.805  0.2119  0.0671  0.1300
 1110POPI   C4B16350  16.687  12.775   7.209 -0.1884  0.3037  0.1899
 1111POPI    C116351   1.422  17.793   5.443  0.2013 -0.1708 -0.1225
 1111POPI    C216352   1.380  17.533   5.142 -0.0561  0.0589 -0.2899
 1111POPI    C316353   1.247  17.908   5.102  0.0459  0.1353  0.0561
 1111POPI   PO416354   1.395  17.625   5.698  0.1715 -0.2714 -0.0286
 1111POPI   GL116355   1.436  17.670   6.118  0.0177  0.0013 -0.0123
 1111POPI   GL216356   1.721  17.773   6.221  0.1119  0.0821  0.0798
 1111POPI   C1A16357   1.328  17.990   6.361 -0.2406 -0.4589 -0.1451
 1111POPI   D2A16358   1.412  18.235   6.632  0.1215 -0.0138  0.1369
 1111POPI   C3A16359   1.403  17.992   6.945  0.0564  0.0530 -0.0019
 1111POPI   C4A16360   1.452  17.576   7.101  0.1779  0.2451  0.2525
 1111POPI   C1B16361   1.751  17.824   6.654  0.1057  0.2966 -0.1956
 1111POPI   C2B16362   1.885  17.942   7.025 -0.0318  0.1673 -0.0233
 1111POPI   C3B16363   2.081  18.131   7.388  0.1713 -0.0996 -0.2258
 1111POPI   C4B16364   2.371  17.906   7.703  0.4679 -0.0935 -0.0064
 1112POPI    C116365   1.451  16.957   5.379  0.0093  0.0584 -0.0286
 1112POPI    C216366   1.704  17.085   5.097  0.0304 -0.1469 -0.1044
 1112POPI    C316367   1.349  16.933   4.993 -0.1623  0.2169  0.0055
 1112POPI   PO416368   1.574  17.024   5.643 -0.1188  0.4819 -0.4288
 1112POPI   GL116369   1.614  16.727   6.058  0.2418 -0.2112  0.2731
 1112POPI   GL216370   1.729  16.584   6.279 -0.0329 -0.0900  0.0610
 1112POPI   C1A16371   1.638  17.135   6.302 -0.0401 -0.2776  0.1480
 1112POPI   D2A16372   1.465  17.321   6.630  0.1245 -0.0131 -0.1078
 1112POPI   C3A16373   1.145  17.185   6.994  0.0115 -0.0396 -0.1449
 1112POPI   C4A16374   1.038  16.836   7.282  0.2392  0.1241 -0.0326
 1112POPI   C1B16375   1.644  16.325   6.597 -0.0801 -0.1556 -0.0462
 1112POPI   C2B16376   1.855  16.383   6.962  0.1289  0.0452  0.1377
 1112POPI   C3B16377   1.714  16.457   7.389  0.3665 -0.2515  0.3361
 1112POPI   C4B16378   1.390  16.678   7.687 -0.1921  0.0663  0.1886
 1113POPI    C116379   4.779  15.972   5.444 -0.1281 -0.0516  0.0937
 1113POPI    C216380   4.604  15.778   5.141 -0.1666  0.2033 -0.0500
 1113POPI    C316381   4.953  15.965   5.084  0.0167 -0.0658  0.1637
 1113POPI   PO416382   4.787  15.773   5.619  0.2123  0.0615  0.0973
 1113POPI   GL116383   5.001  15.815   5.955 -0.0860  0.0938  0.2845
 1113POPI   GL216384   5.016  16.095   6.072  0.4081 -0.1601  0.1183
 1113POPI   C1A16385   5.201  15.569   6.319 -0.2920 -0.0522  0.0019
 1113POPI   D2A16386   5.494  15.439   6.741 -0.2587  0.1626  0.2092
 1113POPI   C3A16387   5.510  15.172   6.976 -0.4447 -0.3319 -0.0190
 1113POPI   C4A16388   5.225  14.894   7.253 -0.0848 -0.2414 -0.0236
 1113POPI   C1B16389   5.005  16.036   6.466 -0.0372 -0.0576  0.2082
 1113POPI   C2B16390   5.128  16.109   6.945 -0.1957 -0.1759  0.3591
 1113POPI   C3B16391   4.999  16.185   7.372 -0.1210  0.3936  0.1560
 1113POPI   C4B16392   4.719  16.033   7.841 -0.1864  0.1165  0.0304
 1114POPI    C116393   7.826   2.385   4.872 -0.0497 -0.0773  0.0932
 1114POPI    C216394   8.184   2.494   5.013  0.0263 -0.2185  0.0113
 1114POPI    C316395   8.031   2.679   4.693  0.0589 -0.2073  0.0021
 1114POPI   PO416396   7.736   2.384   5.199  0.1143 -0.0165 -0.2019
 1114POPI   GL116397   7.652   2.562   5.636  0.2485 -0.0733 -0.2842
 1114POPI   GL216398   7.450   2.716   5.465 -0.0083 -0.1667 -0.4296
 1114POPI   C1A16399   7.411   2.393   5.965 -0.0889 -0.1580 -0.1230
 1114POPI   D2A16400   7.601   2.376   6.349  0.2953  0.0421  0.0715
 1114POPI   C3A16401   7.673   2.720   6.581  0.1062 -0.1064  0.0378
 1114POPI   C4A16402   7.898   2.736   7.033  0.2559  0.2516 -0.1363
 1114POPI   C1B16403   7.358   2.896   5.854 -0.2451  0.0147 -0.2588
 1114POPI   C2B16404   7.387   2.934   6.181  0.1159  0.2416  0.0915
 1114POPI   C3B16405   7.224   3.092   6.543 -0.0548 -0.1396 -0.1734
 1114POPI   C4B16406   7.137   2.952   6.933 -0.0771  0.3330  0.0186
 1115POPI    C116407   8.993  10.999   5.364  0.0987 -0.1174  0.4088
 1115POPI    C216408   9.284  11.272   5.337  0.0666 -0.1235 -0.1016
 1115POPI    C316409   9.328  10.915   5.161 -0.0901 -0.2711  0.1538
 1115POPI   PO416410   8.596  11.046   5.547 -0.1151  0.0448 -0.1443
 1115POPI   GL116411   8.470  11.102   5.994  0.2080 -0.3805 -0.5102
 1115POPI   GL216412   8.431  10.895   6.129 -0.2152 -0.1960 -0.0372
 1115POPI   C1A16413   8.524  11.429   6.360 -0.0264  0.0473  0.0416
 1115POPI   D2A16414   8.639  11.810   6.676 -0.0509 -0.0276  0.2436
 1115POPI   C3A16415   8.650  11.851   7.051  0.3846  0.0203 -0.1917
 1115POPI   C4A16416   8.825  12.062   7.336 -0.3445 -0.3686 -0.1147
 1115POPI   C1B16417   8.528  10.982   6.557 -0.1379  0.4882  0.1519
 1115POPI   C2B16418   8.558  11.289   6.895  0.1131 -0.1001 -0.0544
 1115POPI   C3B16419   8.720  11.361   7.342 -0.0839  0.3619  0.1551
 1115POPI   C4B16420   8.723  11.505   7.801 -0.0910 -0.0279  0.0880
 1116POPI    C116421  17.765   4.878   5.003 -0.0650 -0.1129 -0.0317
 1116POPI    C216422  17.893   4.831   4.627  0.0255 -0.1185 -0.0005
 1116POPI    C316423  17.799   4.511   4.847  0.1706 -0.1275  0.0496
 1116POPI   PO416424  17.624   4.945   5.088 -0.1433 -0.3698  0.1270
 1116POPI   GL116425  17.437   4.923   5.508 -0.2369 -0.0847 -0.0200
 1116POPI   GL216426  17.185   4.834   5.719  0.2367  0.3234  0.1538
 1116POPI   C1A16427  17.563   5.069   5.945 -0.0002  0.0490  0.2907
 1116POPI   D2A16428  17.710   5.138   6.335 -0.0058 -0.1450  0.2408
 1116POPI   C3A16429  17.678   5.311   6.767 -0.2249  0.5216 -0.1895
 1116POPI   C4A16430  18.038   5.247   7.103 -0.3636  0.0874  0.0956
 1116POPI   C1B16431  17.360   4.587   6.010 -0.1533 -0.1789 -0.0524
 1116POPI   C2B16432  17.319   4.334   6.177 -0.0746 -0.1401 -0.2442
 1116POPI   C3B16433  17.382   4.089   6.372 -0.1339  0.0931 -0.0136
 1116POPI   C4B16434  17.467   4.120   6.881 -0.2706  0.2475 -0.5072
 1117POPI    C116435   7.541  11.049   5.534 -0.1483 -0.0382  0.0356
 1117POPI    C216436   7.462  10.904   5.170  0.0304 -0.0619  0.0054
 1117POPI    C316437   7.805  11.097   5.238  0.0974 -0.2505  0.2152
 1117POPI   PO416438   7.477  10.882   5.653  0.2003 -0.2055  0.0199
 1117POPI   GL116439   7.603  11.034   6.055  0.1553 -0.0958  0.1316
 1117POPI   GL216440   7.178  11.045   6.023  0.1240 -0.1434  0.0006
 1117POPI   C1A16441   7.517  11.109   6.436 -0.2445 -0.0178  0.2813
 1117POPI   D2A16442   7.391  11.171   6.943  0.1002  0.1144  0.1088
 1117POPI   C3A16443   7.214  11.182   7.303  0.3922 -0.0898 -0.3571
 1117POPI   C4A16444   6.860  11.431   7.475  0.0094 -0.2682  0.1591
 1117POPI   C1B16445   7.104  10.751   6.309  0.1700 -0.0651 -0.2046
 1117POPI   C2B16446   7.029  10.666   6.726  0.1899 -0.2499  0.2900
 1117POPI   C3B16447   7.169  10.695   7.229  0.1082 -0.1165  0.1212
 1117POPI   C4B16448   7.454  10.840   7.505  0.2033 -0.1679 -0.0356
 1118POPI    C116449   5.215   4.399   5.057 -0.1610 -0.1866 -0.0667
 1118POPI    C216450   5.408   4.458   4.712  0.0724  0.0991  0.1080
 1118POPI    C316451   5.028   4.575   4.751  0.0935  0.2078 -0.0035
 1118POPI   PO416452   5.390   4.430   5.274 -0.0463  0.0435 -0.0784
 1118POPI   GL116453   5.573   4.611   5.629  0.1116  0.4917 -0.1102
 1118POPI   GL216454   5.343   4.813   5.726  0.0362 -0.0477 -0.1200
 1118POPI   C1A16455   5.631   4.379   5.929  0.2115  0.0312 -0.0930
 1118POPI   D2A16456   5.777   4.433   6.394 -0.0648 -0.4032 -0.0754
 1118POPI   C3A16457   5.575   4.525   6.675 -0.0830 -0.1241  0.0801
 1118POPI   C4A16458   5.191   4.427   6.818  0.2526  0.5834 -0.1762
 1118POPI   C1B16459   5.337   4.719   6.206 -0.0364 -0.0727  0.3805
 1118POPI   C2B16460   5.308   4.937   6.602 -0.0076  0.2060  0.3735
 1118POPI   C3B16461   5.415   4.877   7.069 -0.0643 -0.2025  0.3555
 1118POPI   C4B16462   5.347   5.038   7.427 -0.0718 -0.0714  0.0517
 1119POPI    C116463   2.188   1.893   5.502  0.2616  0.1931  0.1111
 1119POPI    C216464   2.392   1.553   5.555 -0.0916 -0.0328  0.0578
 1119POPI    C316465   2.535   1.836   5.312  0.0588 -0.2733 -0.1389
 1119POPI   PO416466   2.140   1.973   5.689 -0.2179 -0.2451 -0.0439
 1119POPI   GL116467   2.242   1.825   6.032  0.3352  0.0751 -0.2243
 1119POPI   GL216468   2.423   1.811   6.279  0.2476  0.3368 -0.2712
 1119POPI   C1A16469   1.987   1.898   6.418  0.0557 -0.2383  0.0178
 1119POPI   D2A16470   1.902   1.936   6.864 -0.1774  0.0075  0.0917
 1119POPI   C3A16471   1.669   1.805   7.274  0.2586 -0.1015 -0.0342
 1119POPI   C4A16472   1.425   1.877   7.600 -0.0454  0.0471 -0.0700
 1119POPI   C1B16473   2.441   1.992   6.726  0.3320 -0.5230  0.1741
 1119POPI   C2B16474   2.439   1.959   7.093  0.2158  0.1839  0.2730
 1119POPI   C3B16475   2.224   1.914   7.392  0.1087 -0.0997  0.2795
 1119POPI   C4B16476   1.889   1.926   7.728  0.1195 -0.0976 -0.0446
 1120POPI    C116477   1.222  13.484   5.064  0.0171  0.0516 -0.1450
 1120POPI    C216478   0.912  13.395   4.827 -0.0805  0.0369 -0.0131
 1120POPI    C316479   1.240  13.565   4.672 -0.1221 -0.0210 -0.1669
 1120POPI   PO416480   1.152  13.444   5.380  0.1912 -0.3216 -0.2035
 1120POPI   GL116481   1.187  13.410   5.902 -0.3094  0.2237  0.0864
 1120POPI   GL216482   1.276  13.074   6.042 -0.1362  0.0903  0.0262
 1120POPI   C1A16483   1.061  13.483   6.258  0.3693  0.0328 -0.1705
 1120POPI   D2A16484   0.981  13.495   6.631 -0.0106  0.1513 -0.1209
 1120POPI   C3A16485   0.867  13.475   6.947 -0.4328  0.0733 -0.0491
 1120POPI   C4A16486   0.832  13.554   7.414  0.0697 -0.2062  0.0723
 1120POPI   C1B16487   1.249  13.089   6.471  0.0429 -0.3376  0.2126
 1120POPI   C2B16488   1.391  12.981   6.849  0.1658  0.1150 -0.2965
 1120POPI   C3B16489   1.333  13.166   7.192  0.1608 -0.1093  0.1263
 1120POPI   C4B16490   1.248  13.302   7.660 -0.0243  0.0599 -0.0204
 1121POPI    C116491  14.521  17.124   5.521 -0.1242  0.2025 -0.0351
 1121POPI    C216492  14.376  17.326   5.208 -0.2130  0.3610  0.1069
 1121POPI    C316493  14.753  17.386   5.327 -0.2051  0.3623  0.0814
 1121POPI   PO416494  14.448  17.137   5.831 -0.2425 -0.2603  0.0362
 1121POPI   GL116495  14.342  16.889   6.157  0.1341  0.2135  0.2359
 1121POPI   GL216496  14.672  16.872   6.193  0.3157 -0.1604  0.2870
 1121POPI   C1A16497  14.199  16.880   6.542  0.2548  0.0130 -0.1411
 1121POPI   D2A16498  14.192  17.100   6.910  0.2377 -0.2166 -0.1166
 1121POPI   C3A16499  14.347  17.092   7.288  0.2734 -0.1338 -0.0061
 1121POPI   C4A16500  14.255  17.328   7.713 -0.0059  0.3121 -0.0195
 1121POPI   C1B16501  14.703  17.038   6.595  0.0432 -0.3669 -0.0788
 1121POPI   C2B16502  14.747  17.196   6.953 -0.1457  0.0709  0.2657
 1121POPI   C3B16503  14.911  17.189   7.304  0.0914  0.1140 -0.0702
 1121POPI   C4B16504  14.757  17.010   7.619 -0.1042  0.2028 -0.0108
 1122POPI    C116505  15.785   4.633   4.794  0.1171  0.0054 -0.0151
 1122POPI    C216506  15.545   4.866   4.575  0.0670 -0.0468 -0.0161
 1122POPI    C316507  15.898   4.749   4.428  0.0255 -0.0967 -0.0765
 1122POPI   PO416508  15.748   4.704   5.044 -0.4200 -0.2082  0.3352
 1122POPI   GL116509  15.597   4.660   5.523  0.2010  0.0768  0.2650
 1122POPI   GL216510  15.653   4.909   5.684  0.0244 -0.1516 -0.3505
 1122POPI   C1A16511  15.211   4.712   5.657 -0.3152  0.3690 -0.1295
 1122POPI   D2A16512  14.991   4.708   6.005  0.0149 -0.1305  0.0129
 1122POPI   C3A16513  14.957   4.667   6.420  0.1062  0.2809  0.2890
 1122POPI   C4A16514  15.190   4.520   6.729  0.4832 -0.0279 -0.0541
 1122POPI   C1B16515  15.704   5.318   6.060 -0.1030  0.1312  0.1139
 1122POPI   C2B16516  15.288   5.458   6.306  0.2206  0.0089  0.1644
 1122POPI   C3B16517  15.168   5.611   6.684  0.0568  0.0127 -0.2460
 1122POPI   C4B16518  14.821   5.482   6.864  0.0223  0.2216  0.0276
 1123POPI    C116519   6.636   1.288   5.334  0.3616 -0.2492  0.1103
 1123POPI    C216520   6.774   1.498   5.023 -0.1753 -0.0569 -0.0102
 1123POPI    C316521   6.812   1.100   5.028 -0.0365 -0.0492 -0.2535
 1123POPI   PO416522   6.722   1.340   5.559 -0.1944 -0.1066  0.0558
 1123POPI   GL116523   6.818   1.439   5.924  0.1763  0.3988 -0.1204
 1123POPI   GL216524   6.906   1.133   6.010  0.4524  0.2492 -0.1113
 1123POPI   C1A16525   6.749   1.700   6.255 -0.0340 -0.0157  0.4444
 1123POPI   D2A16526   6.664   1.848   6.611 -0.1597  0.2063 -0.0341
 1123POPI   C3A16527   6.720   1.619   6.955  0.0438  0.0032  0.1088
 1123POPI   C4A16528   6.769   1.325   7.299 -0.1176  0.3922  0.3466
 1123POPI   C1B16529   7.209   1.391   6.183 -0.0719 -0.0125 -0.2131
 1123POPI   C2B16530   7.561   1.586   6.337 -0.1823  0.0116  0.3308
 1123POPI   C3B16531   7.670   1.980   6.650  0.3011  0.1446  0.3154
 1123POPI   C4B16532   7.875   2.302   6.755  0.0934 -0.0114 -0.0013
 1124POPI    C116533   0.731   5.476   5.311 -0.0269 -0.0341 -0.0052
 1124POPI    C216534   0.829   5.316   5.664  0.0309 -0.0185 -0.0141
 1124POPI    C316535   0.856   5.711   5.610  0.0930 -0.0288 -0.0591
 1124POPI   PO416536   0.468   5.446   5.343 -0.1084  0.1077  0.1508
 1124POPI   GL116537   0.273   5.477   5.701  0.2279 -0.3543 -0.0331
 1124POPI   GL216538   0.383   5.721   5.829  0.0588  0.0724 -0.3473
 1124POPI   C1A16539   0.028   5.164   5.915  0.0709  0.1570  0.1194
 1124POPI   D2A16540  -0.347   5.108   6.026  0.0896  0.2431  0.3106
 1124POPI   C3A16541  -0.280   4.922   6.340 -0.1657 -0.2212  0.0442
 1124POPI   C4A16542  -0.421   5.003   6.678  0.0434 -0.1016 -0.0504
 1124POPI   C1B16543   0.195   5.552   6.184  0.1953 -0.1789  0.1580
 1124POPI   C2B16544   0.089   5.321   6.426  0.0175  0.0435 -0.0285
 1124POPI   C3B16545   0.103   5.092   6.715  0.2706  0.3486  0.0449
 1124POPI   C4B16546  -0.188   4.811   7.023  0.1749 -0.0998 -0.2559
 1125POPI    C116547  12.630  15.217   5.974  0.0343  0.0411 -0.1145
 1125POPI    C216548  12.553  15.515   5.719  0.0535  0.0743 -0.0816
 1125POPI    C316549  12.750  15.190   5.593 -0.0142  0.0519 -0.1305
 1125POPI   PO416550  12.450  15.171   6.110 -0.0752 -0.1763  0.1153
 1125POPI   GL116551  12.208  14.994   6.437 -0.0052 -0.2390  0.0836
 1125POPI   GL216552  12.189  15.358   6.580 -0.1218 -0.2938 -0.2524
 1125POPI   C1A16553  12.196  14.808   6.820  0.0561 -0.1687 -0.0333
 1125POPI   D2A16554  11.878  14.688   7.163  0.0693  0.1483  0.0013
 1125POPI   C3A16555  11.974  15.057   7.519 -0.0295 -0.1094 -0.2150
 1125POPI   C4A16556  12.039  15.223   7.921  0.0184 -0.0760 -0.3704
 1125POPI   C1B16557  12.192  15.458   7.018 -0.2642 -0.1364 -0.0902
 1125POPI   C2B16558  12.285  15.508   7.440 -0.0304  0.2663  0.0348
 1125POPI   C3B16559  12.276  15.763   7.873 -0.2469 -0.0629 -0.0430
 1125POPI   C4B16560  12.315  16.187   8.164  0.1864 -0.0608 -0.0845
 1126POPI    C116561  15.503  17.701   5.087 -0.0868  0.1643  0.2633
 1126POPI    C216562  15.591  17.948   4.785 -0.2167  0.0080  0.0945
 1126POPI    C316563  15.239  17.759   4.792 -0.0469 -0.3137  0.1253
 1126POPI   PO416564  15.623  17.789   5.318 -0.1026  0.0763 -0.2256
 1126POPI   GL116565  15.677  17.659   5.761 -0.2859  0.0055 -0.3481
 1126POPI   GL216566  15.713  17.337   5.716  0.1850 -0.2663 -0.2076
 1126POPI   C1A16567  15.582  17.913   6.132  0.0160 -0.1525  0.0170
 1126POPI   D2A16568  15.167  17.991   6.282 -0.0819 -0.1211 -0.2637
 1126POPI   C3A16569  15.195  18.130   6.723  0.0670  0.0983  0.2801
 1126POPI   C4A16570  15.136  18.414   7.019 -0.1393 -0.1762  0.3389
 1126POPI   C1B16571  15.712  17.282   6.120  0.3352 -0.2024  0.0918
 1126POPI   C2B16572  15.610  17.455   6.391  0.1169  0.0330  0.1029
 1126POPI   C3B16573  15.494  17.756   6.608  0.2411 -0.2128  0.1409
 1126POPI   C4B16574  15.451  17.684   6.960  0.2205 -0.0514 -0.1146
 1127POPI    C116575   6.090  16.553   5.238 -0.1424  0.2085  0.0019
 1127POPI    C216576   6.191  16.391   4.886  0.0013  0.0590  0.1106
 1127POPI    C316577   5.806  16.453   4.975 -0.0290  0.2246 -0.1277
 1127POPI   PO416578   6.350  16.640   5.361  0.1476 -0.2519  0.1145
 1127POPI   GL116579   6.507  16.652   5.750 -0.2069 -0.1959  0.1075
 1127POPI   GL216580   6.273  16.824   5.961  0.0161  0.4205 -0.3602
 1127POPI   C1A16581   6.479  16.400   6.039 -0.2496  0.3024 -0.0220
 1127POPI   D2A16582   6.515  16.178   6.338  0.0913  0.0626 -0.1129
 1127POPI   C3A16583   6.456  16.329   6.758  0.2235  0.1132 -0.0080
 1127POPI   C4A16584   6.420  16.346   7.288 -0.0592 -0.3671  0.0236
 1127POPI   C1B16585   6.390  16.675   6.445 -0.0004  0.1241  0.2968
 1127POPI   C2B16586   6.434  16.926   6.758 -0.0473  0.0540  0.2422
 1127POPI   C3B16587   6.347  16.905   7.142 -0.2402  0.0292 -0.1228
 1127POPI   C4B16588   6.534  17.172   7.581  0.1869  0.0741 -0.0478
 1128POPI    C116589   1.000   8.294   5.037  0.1308 -0.0501 -0.2219
 1128POPI    C216590   0.747   8.320   4.728  0.0501 -0.1241 -0.1624
 1128POPI    C316591   1.031   8.038   4.731  0.0574 -0.1169 -0.1739
 1128POPI   PO416592   0.850   8.346   5.265  0.0183 -0.1283  0.3967
 1128POPI   GL116593   0.973   8.258   5.652  0.0514 -0.0980  0.0063
 1128POPI   GL216594   1.293   8.128   5.851 -0.0666 -0.1534 -0.1606
 1128POPI   C1A16595   0.877   8.570   5.998  0.2137 -0.2252  0.0296
 1128POPI   D2A16596   0.536   8.813   6.195  0.1422 -0.2254 -0.1309
 1128POPI   C3A16597   0.081   8.771   6.426  0.2954 -0.2833  0.2202
 1128POPI   C4A16598  -0.097   8.752   6.804 -0.0189 -0.0540 -0.3704
 1128POPI   C1B16599   1.318   7.991   6.259  0.3141 -0.0747  0.2838
 1128POPI   C2B16600   1.069   8.323   6.397  0.0511 -0.1708  0.0818
 1128POPI   C3B16601   1.078   8.229   6.920 -0.1144  0.0293  0.0070
 1128POPI   C4B16602   1.207   8.212   7.354  0.0424  0.1840  0.3951
 1129POPI    C116603   6.659  12.664   5.095  0.1608 -0.1017  0.2083
 1129POPI    C216604   7.031  12.737   5.220  0.2140 -0.2487  0.1379
 1129POPI    C316605   6.927  12.818   4.842  0.0474  0.2144  0.2759
 1129POPI   PO416606   6.525  12.533   5.266 -0.2358  0.2093  0.1166
 1129POPI   GL116607   6.534  12.421   5.613 -0.1725  0.0553  0.2049
 1129POPI   GL216608   6.612  12.647   5.717 -0.1864  0.2400 -0.1795
 1129POPI   C1A16609   6.655  12.277   6.013 -0.0903 -0.0354  0.0136
 1129POPI   D2A16610   6.867  12.022   6.339 -0.0153 -0.1600  0.0001
 1129POPI   C3A16611   6.959  12.087   6.830 -0.1475  0.0989  0.1914
 1129POPI   C4A16612   6.907  12.208   7.271  0.2140 -0.1105 -0.2088
 1129POPI   C1B16613   6.592  12.926   6.093  0.1914  0.0469 -0.2384
 1129POPI   C2B16614   6.853  12.942   6.417 -0.1209  0.0221 -0.1765
 1129POPI   C3B16615   6.787  13.046   6.732  0.5434 -0.1786  0.1435
 1129POPI   C4B16616   6.868  13.195   7.200  0.3060  0.2110  0.0393
 1130POPI    C116617  15.171  17.973   5.747 -0.1048  0.0857  0.0610
 1130POPI    C216618  15.174  18.333   5.921  0.2124  0.0108  0.2173
 1130POPI    C316619  15.354  18.280   5.567 -0.1265  0.0805  0.0303
 1130POPI   PO416620  14.911  17.860   5.798  0.1042  0.0283 -0.1821
 1130POPI   GL116621  14.715  17.578   6.151 -0.0621 -0.0572  0.1235
 1130POPI   GL216622  14.894  17.495   6.386 -0.0162 -0.1551  0.0491
 1130POPI   C1A16623  14.553  17.888   6.354 -0.1202 -0.0103 -0.1002
 1130POPI   D2A16624  14.738  18.117   6.692 -0.1196 -0.1320 -0.0436
 1130POPI   C3A16625  14.653  18.067   7.101  0.3718 -0.0702  0.2015
 1130POPI   C4A16626  14.638  18.191   7.560  0.0703  0.0291 -0.1884
 1130POPI   C1B16627  14.986  17.688   6.685  0.1430 -0.2996  0.1404
 1130POPI   C2B16628  14.981  17.687   7.109 -0.4612  0.3341 -0.0706
 1130POPI   C3B16629  15.072  17.998   7.342 -0.1194 -0.2600  0.3583
 1130POPI   C4B16630  15.331  18.285   7.608 -0.5639  0.0338  0.0311
 1131POPI    C116631   4.180   0.016   5.511  0.1942 -0.0881  0.1422
 1131POPI    C216632   3.958   0.344   5.567  0.0913 -0.1205 -0.0674
 1131POPI    C316633   4.319   0.373   5.397  0.1119 -0.1073 -0.0216
 1131POPI   PO416634   4.061  -0.189   5.597  0.0044  0.2463 -0.0599
 1131POPI   GL116635   4.221  -0.314   6.002 -0.2530 -0.1331  0.0023
 1131POPI   GL216636   4.236  -0.571   6.135 -0.3726  0.1730 -0.0870
 1131POPI   C1A16637   4.511  -0.109   6.309  0.1763 -0.2384  0.1422
 1131POPI   D2A16638   4.872   0.058   6.596  0.0348 -0.2888 -0.0190
 1131POPI   C3A16639   4.996  -0.183   7.052  0.5210 -0.1005  0.1724
 1131POPI   C4A16640   4.897  -0.460   7.351  0.0060 -0.2599  0.1965
 1131POPI   C1B16641   4.231  -0.479   6.487 -0.0472 -0.1243 -0.4508
 1131POPI   C2B16642   4.417  -0.416   6.913  0.0141 -0.0393 -0.2332
 1131POPI   C3B16643   4.495  -0.066   7.104  0.0412 -0.1883  0.0713
 1131POPI   C4B16644   4.793   0.269   7.019 -0.2992 -0.1065 -0.4693
 1132POPI    C116645  12.287  14.210   5.475  0.2019  0.0778 -0.0530
 1132POPI    C216646  12.096  14.560   5.506  0.1031  0.0254 -0.0673
 1132POPI    C316647  12.330  14.487   5.190 -0.1014 -0.0308 -0.2076
 1132POPI   PO416648  12.448  14.227   5.728  0.2834 -0.0426 -0.0187
 1132POPI   GL116649  12.640  14.073   6.158 -0.0303 -0.0724 -0.0151
 1132POPI   GL216650  12.622  13.752   6.208 -0.2863  0.0433 -0.2187
 1132POPI   C1A16651  12.341  14.081   6.397 -0.1089  0.3145  0.4706
 1132POPI   D2A16652  12.309  13.904   6.891 -0.1943 -0.0548  0.1458
 1132POPI   C3A16653  12.165  13.555   7.013 -0.1421  0.0874 -0.0644
 1132POPI   C4A16654  11.911  13.243   6.788 -0.2593 -0.0380  0.0623
 1132POPI   C1B16655  12.847  13.870   6.670 -0.0981 -0.0518  0.0859
 1132POPI   C2B16656  12.811  13.709   7.065  0.0383  0.0608 -0.0205
 1132POPI   C3B16657  12.659  13.897   7.462 -0.0372  0.1672 -0.0701
 1132POPI   C4B16658  12.734  13.857   7.872  0.1711  0.1847  0.2415
 1133POPI    C116659  17.773  12.766   5.032  0.1098 -0.1716  0.1105
 1133POPI    C216660  17.605  12.408   4.973 -0.0534 -0.0842  0.0374
 1133POPI    C316661  17.752  12.613   4.663 -0.0684 -0.0355  0.0624
 1133POPI   PO416662  17.654  12.807   5.266  0.0348  0.1990 -0.2574
 1133POPI   GL116663  17.629  12.756   5.743 -0.1452  0.1097 -0.1751
 1133POPI   GL216664  17.911  12.560   5.906  0.0856 -0.0307  0.0833
 1133POPI   C1A16665  17.399  12.550   6.141 -0.4479  0.0811 -0.0552
 1133POPI   D2A16666  17.564  12.522   6.596  0.1319  0.0309  0.0082
 1133POPI   C3A16667  17.614  12.421   7.018 -0.1952 -0.0823  0.0394
 1133POPI   C4A16668  17.779  12.253   7.408 -0.0993 -0.1729 -0.0633
 1133POPI   C1B16669  18.003  12.638   6.321  0.1100  0.0984 -0.1030
 1133POPI   C2B16670  18.086  12.682   6.763 -0.2916  0.1787 -0.0491
 1133POPI   C3B16671  18.055  12.804   7.212  0.0665  0.0785  0.0823
 1133POPI   C4B16672  18.242  12.805   7.651 -0.1680 -0.3655  0.0516
 1134POPI    C116673   4.417  13.688   5.250  0.1510  0.2958 -0.2018
 1134POPI    C216674   4.556  13.325   5.345 -0.1843  0.2595  0.1770
 1134POPI    C316675   4.777  13.571   5.120  0.0567 -0.1664 -0.0662
 1134POPI   PO416676   4.326  13.804   5.561 -0.0161  0.0218 -0.0257
 1134POPI   GL116677   4.125  13.887   5.910  0.1711  0.0547  0.2155
 1134POPI   GL216678   4.071  14.275   5.918 -0.0566 -0.0402  0.0573
 1134POPI   C1A16679   4.313  13.760   6.224 -0.0503  0.0788 -0.3576
 1134POPI   D2A16680   4.270  13.423   6.535  0.1491  0.0523 -0.2179
 1134POPI   C3A16681   4.409  13.289   6.977  0.2064 -0.1509  0.4616
 1134POPI   C4A16682   4.724  12.929   7.207 -0.4185  0.2107  0.2892
 1134POPI   C1B16683   4.022  14.357   6.347  0.0874 -0.2838  0.0641
 1134POPI   C2B16684   4.068  14.455   6.726  0.0061  0.2198  0.1654
 1134POPI   C3B16685   4.043  14.349   7.012 -0.1352  0.1365  0.2207
 1134POPI   C4B16686   4.116  14.451   7.435 -0.4739  0.3189 -0.1268
 1135POPI    C116687   6.836   6.690   4.974 -0.0164  0.1451  0.1590
 1135POPI    C216688   7.088   6.380   4.947 -0.3562 -0.1438  0.2218
 1135POPI    C316689   6.854   6.475   4.637  0.0149  0.2941  0.0648
 1135POPI   PO416690   7.012   6.833   5.200  0.1681 -0.3752 -0.0222
 1135POPI   GL116691   7.197   7.004   5.498 -0.0606 -0.3334  0.0011
 1135POPI   GL216692   7.378   7.322   5.555  0.2245 -0.2780  0.1660
 1135POPI   C1A16693   7.584   6.948   5.764  0.0381  0.1779  0.0047
 1135POPI   D2A16694   7.767   7.168   6.138 -0.2220 -0.1093  0.1511
 1135POPI   C3A16695   7.598   7.206   6.568 -0.0662 -0.1515  0.3648
 1135POPI   C4A16696   7.138   7.241   6.556  0.0441  0.1012 -0.0003
 1135POPI   C1B16697   7.034   7.310   5.872  0.0834  0.1983 -0.1680
 1135POPI   C2B16698   6.682   7.245   6.090 -0.2735  0.2152  0.2422
 1135POPI   C3B16699   6.626   7.288   6.484 -0.0276 -0.0762  0.3301
 1135POPI   C4B16700   6.688   7.206   6.950 -0.2182 -0.3135  0.3614
 1136POPI    C116701  16.000   1.155   5.318  0.0630 -0.0768  0.1021
 1136POPI    C216702  15.910   0.802   5.154  0.0395 -0.0580  0.0746
 1136POPI    C316703  16.032   1.105   4.923  0.1580 -0.0784  0.1098
 1136POPI   PO416704  15.910   1.113   5.556  0.1965  0.0293  0.1270
 1136POPI   GL116705  15.985   1.032   6.027 -0.2088  0.1121  0.3888
 1136POPI   GL216706  16.031   0.758   5.917  0.2724  0.1508  0.3128
 1136POPI   C1A16707  15.928   1.117   6.423  0.0606  0.3452 -0.0986
 1136POPI   D2A16708  16.091   1.213   6.874  0.0035 -0.1596  0.1117
 1136POPI   C3A16709  15.899   1.134   7.246 -0.0363  0.0543  0.0709
 1136POPI   C4A16710  15.874   1.448   7.588  0.1374 -0.1233  0.0891
 1136POPI   C1B16711  15.667   0.635   6.235  0.0375 -0.0183 -0.3464
 1136POPI   C2B16712  15.291   0.683   6.425  0.1737 -0.2126  0.0310
 1136POPI   C3B16713  14.936   0.995   6.722  0.0788 -0.1177  0.3720
 1136POPI   C4B16714  15.020   1.204   6.952 -0.0494  0.2802 -0.3898
 1137POPI    C116715  14.275  14.920   5.708  0.0555  0.0380  0.0311
 1137POPI    C216716  14.074  15.080   5.401  0.1579  0.0341 -0.0383
 1137POPI    C316717  14.415  14.881   5.336  0.2818  0.1986  0.0974
 1137POPI   PO416718  14.153  15.079   5.922 -0.1379  0.0998 -0.3219
 1137POPI   GL116719  14.242  14.996   6.384 -0.0145 -0.1950  0.0502
 1137POPI   GL216720  13.904  15.012   6.376  0.0629 -0.1308 -0.1145
 1137POPI   C1A16721  14.315  15.130   6.748 -0.0852 -0.2221 -0.0768
 1137POPI   D2A16722  14.129  15.042   7.109  0.1925 -0.4725 -0.2279
 1137POPI   C3A16723  14.336  14.770   7.386 -0.2078 -0.0099  0.3037
 1137POPI   C4A16724  14.251  14.546   7.718 -0.1155 -0.4570  0.2001
 1137POPI   C1B16725  13.588  15.042   6.744 -0.1934 -0.1548 -0.0837
 1137POPI   C2B16726  13.637  15.012   7.260  0.1812 -0.0312  0.1750
 1137POPI   C3B16727  13.985  14.998   7.671 -0.2016  0.0592 -0.0807
 1137POPI   C4B16728  14.498  14.961   7.807  0.0435  0.3147  0.2132
 1138POPI    C116729   9.108   1.320   4.920 -0.0766 -0.6627  0.1161
 1138POPI    C216730   8.959   1.067   4.648 -0.0786 -0.2279 -0.2988
 1138POPI    C316731   8.774   1.415   4.722  0.2117 -0.1066 -0.1263
 1138POPI   PO416732   9.291   1.271   5.162  0.1693  0.0307 -0.0120
 1138POPI   GL116733   9.304   1.276   5.586  0.0006  0.1687  0.2674
 1138POPI   GL216734   9.267   1.592   5.674  0.1832 -0.1239  0.1939
 1138POPI   C1A16735   9.661   1.374   5.934 -0.0911  0.1929  0.3854
 1138POPI   D2A16736   9.749   1.795   6.207 -0.1650 -0.1309  0.1759
 1138POPI   C3A16737  10.001   1.792   6.601  0.2035  0.3255 -0.0821
 1138POPI   C4A16738   9.868   1.891   6.923 -0.1153  0.0103  0.3067
 1138POPI   C1B16739   9.266   1.749   6.010 -0.0932  0.2760  0.1215
 1138POPI   C2B16740   9.261   1.593   6.270  0.0356  0.0632 -0.1183
 1138POPI   C3B16741   9.444   1.385   6.374  0.1240 -0.3970 -0.1158
 1138POPI   C4B16742   9.544   1.645   6.715 -0.0054 -0.2296  0.2649
 1139POPI    C116743  17.839  11.902   5.124 -0.2659  0.1986  0.1351
 1139POPI    C216744  17.597  11.636   4.948  0.0989 -0.0462 -0.0102
 1139POPI    C316745  17.688  11.978   4.762  0.1366 -0.1079 -0.1057
 1139POPI   PO416746  17.646  11.924   5.406  0.4868  0.1774  0.0889
 1139POPI   GL116747  17.488  11.777   5.822  0.0233 -0.5693  0.1491
 1139POPI   GL216748  17.428  12.095   5.884 -0.1629 -0.0723  0.1836
 1139POPI   C1A16749  17.407  11.528   6.191 -0.0409 -0.0643  0.1914
 1139POPI   D2A16750  17.420  11.536   6.611  0.0131  0.1541  0.1986
 1139POPI   C3A16751  17.214  11.631   6.966 -0.0710 -0.0304  0.4918
 1139POPI   C4A16752  16.988  11.541   7.334 -0.1021 -0.0655 -0.0146
 1139POPI   C1B16753  17.351  12.021   6.306  0.2955  0.1168  0.0381
 1139POPI   C2B16754  17.347  12.108   6.739  0.2548 -0.1139  0.0352
 1139POPI   C3B16755  17.346  11.998   7.227 -0.1226  0.2228 -0.2100
 1139POPI   C4B16756  17.595  11.840   7.601 -0.1556  0.0016 -0.0767
 1140POPI    C116757   4.095   4.035   5.192 -0.1605  0.1398  0.0172
 1140POPI    C216758   3.974   4.395   5.067 -0.0114  0.1674 -0.0498
 1140POPI    C316759   4.257   4.198   4.865 -0.0736  0.0235  0.0017
 1140POPI   PO416760   4.032   4.093   5.465 -0.0361 -0.2236  0.1500
 1140POPI   GL116761   4.339   4.137   5.883 -0.2634 -0.0850  0.3659
 1140POPI   GL216762   3.991   4.265   6.114  0.0126 -0.0143  0.1205
 1140POPI   C1A16763   4.352   3.907   6.286  0.0045 -0.0856  0.3100
 1140POPI   D2A16764   4.503   3.671   6.737  0.0254  0.1396 -0.1639
 1140POPI   C3A16765   4.641   3.641   7.200  0.0422 -0.2331  0.1224
 1140POPI   C4A16766   4.834   3.752   7.602 -0.1144 -0.0250  0.2348
 1140POPI   C1B16767   4.199   4.310   6.559 -0.0030 -0.0835  0.2597
 1140POPI   C2B16768   4.405   4.194   6.866  0.3197 -0.0330 -0.2414
 1140POPI   C3B16769   4.412   4.125   7.260  0.0035  0.0636 -0.1438
 1140POPI   C4B16770   4.716   4.239   7.646  0.0796  0.1438 -0.0721
 1141POPI    C116771  17.941  16.863   5.808 -0.2071  0.0074 -0.0329
 1141POPI    C216772  18.252  16.665   5.963 -0.0114  0.2158 -0.1546
 1141POPI    C316773  18.030  16.496   5.676 -0.0893  0.0159  0.0214
 1141POPI   PO416774  17.820  16.950   5.979 -0.0734 -0.2936 -0.2703
 1141POPI   GL116775  17.990  16.941   6.395 -0.3169 -0.0810  0.0160
 1141POPI   GL216776  17.837  17.165   6.524 -0.2625 -0.2111 -0.0742
 1141POPI   C1A16777  18.176  16.883   6.891  0.0760  0.0106  0.2327
 1141POPI   D2A16778  18.132  16.711   7.239  0.2569  0.0301 -0.0222
 1141POPI   C3A16779  18.472  16.762   7.379  0.0015 -0.1325 -0.1984
 1141POPI   C4A16780  18.854  16.611   7.248  0.2557 -0.2047  0.1795
 1141POPI   C1B16781  17.767  17.231   7.016 -0.0284  0.1963  0.3887
 1141POPI   C2B16782  17.807  17.475   7.518 -0.0290  0.0693  0.0285
 1141POPI   C3B16783  17.702  17.424   7.899  0.3205  0.0058  0.0382
 1141POPI   C4B16784  17.401  17.352   8.229 -0.0732 -0.0908 -0.0320
 1142POPI    C116785   5.021  13.106   5.271  0.0074 -0.2004  0.1435
 1142POPI    C216786   5.286  13.080   4.972  0.2770  0.0885  0.3505
 1142POPI    C316787   5.042  12.772   5.051  0.2835 -0.0353 -0.0872
 1142POPI   PO416788   5.218  13.200   5.635  0.0562  0.0638 -0.0544
 1142POPI   GL116789   5.398  13.166   5.916  0.2804 -0.0439  0.1852
 1142POPI   GL216790   5.764  13.023   5.747 -0.1664 -0.1926  0.0291
 1142POPI   C1A16791   5.425  12.958   6.215 -0.1922  0.1362 -0.2477
 1142POPI   D2A16792   5.265  12.599   6.539 -0.2796  0.0826 -0.0699
 1142POPI   C3A16793   5.536  12.482   6.893 -0.2264 -0.0939  0.0907
 1142POPI   C4A16794   5.644  12.261   7.264 -0.1481 -0.2995  0.0227
 1142POPI   C1B16795   5.880  12.846   6.091  0.5095 -0.2423  0.3230
 1142POPI   C2B16796   5.766  12.914   6.561 -0.1178  0.2416 -0.1260
 1142POPI   C3B16797   5.763  12.962   7.005  0.0674  0.0167  0.0494
 1142POPI   C4B16798   5.964  13.054   7.415  0.0614 -0.0665  0.0999
 1143POPI    C116799  16.266  11.533   5.163  0.0229  0.0691 -0.0016
 1143POPI    C216800  16.373  11.268   5.443 -0.3746 -0.0560  0.0380
 1143POPI    C316801  16.379  11.164   5.057  0.0328  0.0700  0.0059
 1143POPI   PO416802  16.289  11.764   5.305  0.2818  0.2050  0.1092
 1143POPI   GL116803  16.104  11.738   5.657 -0.1072  0.2799  0.1619
 1143POPI   GL216804  15.787  11.514   5.842 -0.2394 -0.2727 -0.0421
 1143POPI   C1A16805  15.981  11.883   6.145  0.1015 -0.0196 -0.2081
 1143POPI   D2A16806  16.050  12.060   6.576 -0.1124  0.1579  0.0534
 1143POPI   C3A16807  16.334  12.026   6.906  0.1276 -0.0216  0.1156
 1143POPI   C4A16808  16.434  11.817   7.315 -0.0615  0.0003 -0.1150
 1143POPI   C1B16809  15.544  11.716   6.217  0.2943 -0.0954  0.0704
 1143POPI   C2B16810  15.575  11.986   6.508  0.1199 -0.1456  0.1070
 1143POPI   C3B16811  15.600  12.232   6.811 -0.1477 -0.1415  0.2040
 1143POPI   C4B16812  15.940  12.257   7.016 -0.1622 -0.1299  0.1654
 1144POPI    C116813   8.798   3.406   5.109  0.3135 -0.0554 -0.2172
 1144POPI    C216814   8.636   3.765   5.178  0.3078 -0.0514 -0.2506
 1144POPI    C316815   8.536   3.561   4.849  0.0408 -0.2405 -0.0563
 1144POPI   PO416816   8.838   3.141   5.276  0.0559 -0.0372  0.1777
 1144POPI   GL116817   8.728   3.048   5.773  0.1636  0.1394  0.0560
 1144POPI   GL216818   8.664   3.379   5.642 -0.0113 -0.0880  0.1110
 1144POPI   C1A16819   8.847   2.986   6.089  0.0947  0.0281  0.0935
 1144POPI   D2A16820   9.154   2.927   6.367  0.0457  0.1063  0.3388
 1144POPI   C3A16821   9.019   3.155   6.680 -0.3741 -0.0888 -0.0891
 1144POPI   C4A16822   9.065   3.446   7.025  0.3636 -0.0485 -0.2456
 1144POPI   C1B16823   8.554   3.582   6.059  0.0106  0.3028  0.0221
 1144POPI   C2B16824   8.579   3.809   6.487  0.3148  0.1414  0.0440
 1144POPI   C3B16825   8.764   3.864   7.010  0.2107 -0.0074  0.4125
 1144POPI   C4B16826   9.168   3.878   7.355 -0.2813 -0.2319 -0.0234
 1145POPI    C116827   5.274   1.090   5.771  0.3885  0.0288  0.0191
 1145POPI    C216828   5.180   1.391   5.526 -0.2297 -0.2346 -0.0872
 1145POPI    C316829   5.160   1.442   5.922  0.0016 -0.0419 -0.0977
 1145POPI   PO416830   5.361   0.929   5.576 -0.0777  0.0868 -0.2168
 1145POPI   GL116831   5.431   0.608   5.837 -0.1499 -0.1323  0.1645
 1145POPI   GL216832   5.184   0.619   5.962 -0.0403  0.0329 -0.1390
 1145POPI   C1A16833   5.746   0.650   6.089 -0.0779 -0.0526 -0.0365
 1145POPI   D2A16834   5.701   0.728   6.572  0.0297 -0.3236  0.0933
 1145POPI   C3A16835   6.136   0.854   6.766  0.2036 -0.0362  0.1913
 1145POPI   C4A16836   6.525   1.068   6.876 -0.1130 -0.0566 -0.1583
 1145POPI   C1B16837   5.280   0.468   6.330  0.5099 -0.1923  0.0533
 1145POPI   C2B16838   5.221   0.469   6.814 -0.0578  0.3427 -0.1971
 1145POPI   C3B16839   5.171   0.497   7.231 -0.1838  0.0523 -0.0682
 1145POPI   C4B16840   5.089   0.451   7.671 -0.0589 -0.0713 -0.1775
 1146POPI    C116841   3.151   6.945   5.035 -0.0004  0.0946  0.0481
 1146POPI    C216842   3.309   7.291   4.911  0.1104  0.0524  0.0702
 1146POPI    C316843   3.449   6.945   4.767 -0.1062  0.0216 -0.0705
 1146POPI   PO416844   3.245   7.028   5.351  0.1036 -0.0180  0.1837
 1146POPI   GL116845   3.705   6.951   5.622 -0.2017 -0.1207  0.2131
 1146POPI   GL216846   3.787   7.304   5.721 -0.1500 -0.0994 -0.1858
 1146POPI   C1A16847   3.695   6.855   6.041 -0.0250 -0.1128 -0.1104
 1146POPI   D2A16848   3.874   6.805   6.515  0.0608 -0.0052 -0.2516
 1146POPI   C3A16849   3.758   6.651   6.827 -0.0150 -0.0132  0.0257
 1146POPI   C4A16850   3.969   6.760   7.142 -0.1157  0.3311  0.1526
 1146POPI   C1B16851   3.815   7.325   6.134  0.3169 -0.0875 -0.1974
 1146POPI   C2B16852   3.877   7.317   6.568 -0.0659 -0.3632  0.3189
 1146POPI   C3B16853   4.089   7.338   6.922 -0.2115 -0.1011  0.1154
 1146POPI   C4B16854   3.990   7.386   7.284  0.2117 -0.1602  0.1139
 1147DPPI    C116855   6.715  10.395   5.025  0.2192  0.1328 -0.0248
 1147DPPI    C216856   6.316  10.421   5.037  0.1963 -0.1905  0.0043
 1147DPPI    C316857   6.509  10.461   4.689  0.1461  0.0403  0.0014
 1147DPPI   PO416858   6.779  10.404   5.318  0.3472  0.0070 -0.0383
 1147DPPI   GL116859   6.959  10.184   5.610 -0.0030  0.0004 -0.0356
 1147DPPI   GL216860   6.661  10.122   5.765  0.0697 -0.3982  0.1147
 1147DPPI   C1A16861   7.072  10.316   6.065 -0.2340 -0.2183 -0.0216
 1147DPPI   C2A16862   7.004  10.231   6.444  0.3365 -0.2231  0.0793
 1147DPPI   C3A16863   6.922  10.179   6.916  0.0944 -0.1792  0.0367
 1147DPPI   C4A16864   6.917  10.311   7.339 -0.2597  0.0073 -0.3612
 1147DPPI   C1B16865   6.574  10.069   6.281  0.2044 -0.0726 -0.2565
 1147DPPI   C2B16866   6.366   9.964   6.644 -0.1736  0.0424 -0.1753
 1147DPPI   C3B16867   6.203  10.107   7.058 -0.1214 -0.0880  0.3429
 1147DPPI   C4B16868   6.377  10.278   7.358  0.3763  0.2023  0.0582
 1148DPPI    C116869   2.126  17.621   5.786  0.0166  0.1168 -0.0124
 1148DPPI    C216870   2.231  17.241   5.721  0.0570  0.1587 -0.1990
 1148DPPI    C316871   1.901  17.324   5.932  0.0908  0.0219 -0.0905
 1148DPPI   PO416872   2.454  17.718   6.009 -0.0548 -0.3713 -0.0776
 1148DPPI   GL116873   2.713  17.638   6.396 -0.4454  0.1284 -0.1936
 1148DPPI   GL216874   2.778  17.943   6.309  0.0770 -0.2945 -0.2270
 1148DPPI   C1A16875   2.592  17.385   6.867 -0.1248  0.2822  0.1700
 1148DPPI   C2A16876   2.480  17.205   7.283  0.1582 -0.0030  0.3731
 1148DPPI   C3A16877   2.598  17.060   7.784 -0.2068 -0.0018 -0.0744
 1148DPPI   C4A16878   2.836  16.935   8.221 -0.0101 -0.2781 -0.1314
 1148DPPI   C1B16879   2.915  17.909   6.816  0.0118  0.1585 -0.2344
 1148DPPI   C2B16880   3.150  17.945   7.255 -0.0897 -0.0096  0.0979
 1148DPPI   C3B16881   3.510  17.906   7.559 -0.0183 -0.0746  0.0652
 1148DPPI   C4B16882   3.834  17.940   7.807 -0.1598  0.2104  0.3580
 1149DPPI    C116883  15.273  13.048   5.419 -0.0166 -0.0548 -0.0204
 1149DPPI    C216884  15.218  13.231   5.068  0.0766 -0.2038 -0.1144
 1149DPPI    C316885  15.581  13.227   5.237  0.0013 -0.0071  0.0566
 1149DPPI   PO416886  15.092  13.138   5.593  0.4158 -0.0149  0.2346
 1149DPPI   GL116887  14.913  13.226   6.012  0.0500  0.2419 -0.0983
 1149DPPI   GL216888  15.265  12.946   6.020 -0.1513  0.0569  0.4237
 1149DPPI   C1A16889  14.970  13.172   6.424 -0.1650  0.0292 -0.0447
 1149DPPI   C2A16890  15.302  13.297   6.702 -0.0937  0.1856  0.0254
 1149DPPI   C3A16891  15.592  13.371   7.036 -0.3024 -0.0663  0.1027
 1149DPPI   C4A16892  15.551  13.129   7.463  0.5250  0.1419 -0.0794
 1149DPPI   C1B16893  15.218  12.676   6.377 -0.3204 -0.2734 -0.1869
 1149DPPI   C2B16894  15.190  12.449   6.892  0.1282  0.1817 -0.3698
 1149DPPI   C3B16895  15.279  12.506   7.357  0.2056  0.0600 -0.1704
 1149DPPI   C4B16896  15.037  12.381   7.677 -0.1457  0.0106 -0.0873
 1150DPPI    C116897  14.248  14.461   5.983  0.0615 -0.1053  0.0222
 1150DPPI    C216898  13.906  14.618   6.117  0.1094 -0.0385  0.0673
 1150DPPI    C316899  13.899  14.288   5.891 -0.0040  0.1293 -0.1782
 1150DPPI   PO416900  14.358  14.478   6.292  0.0395  0.1948 -0.0043
 1150DPPI   GL116901  14.074  14.606   6.649  0.1547 -0.0724 -0.2646
 1150DPPI   GL216902  13.990  14.216   6.567  0.4025 -0.2047  0.2729
 1150DPPI   C1A16903  13.829  14.624   6.973  0.3152 -0.1791 -0.0292
 1150DPPI   C2A16904  13.840  14.597   7.407  0.0005 -0.1189  0.0075
 1150DPPI   C3A16905  13.745  14.616   7.860  0.0054 -0.2875 -0.2292
 1150DPPI   C4A16906  13.642  14.578   8.287 -0.2875 -0.1418  0.1551
 1150DPPI   C1B16907  14.326  13.826   6.708  0.2623  0.1578 -0.3484
 1150DPPI   C2B16908  14.389  13.694   7.207 -0.0839 -0.1192  0.0492
 1150DPPI   C3B16909  14.749  13.406   7.412  0.1724 -0.1843  0.1603
 1150DPPI   C4B16910  14.527  13.153   7.721 -0.0679  0.2843  0.0929
 1151DPPI    C116911  17.455   3.267   5.160  0.1366  0.1112  0.0261
 1151DPPI    C216912  17.485   3.589   4.925 -0.0239 -0.0369 -0.2012
 1151DPPI    C316913  17.664   3.247   4.820 -0.1720 -0.1294 -0.1548
 1151DPPI   PO416914  17.504   3.443   5.394 -0.0772  0.1215  0.0547
 1151DPPI   GL116915  17.661   3.483   5.739 -0.1205  0.0066  0.1349
 1151DPPI   GL216916  18.006   3.566   5.800 -0.1823  0.0275 -0.0493
 1151DPPI   C1A16917  17.581   3.719   6.135  0.1542  0.2129 -0.1232
 1151DPPI   C2A16918  17.803   3.761   6.535 -0.0891  0.0056  0.1046
 1151DPPI   C3A16919  17.872   3.629   6.925 -0.2918 -0.0400  0.1242
 1151DPPI   C4A16920  17.611   3.767   7.310  0.3250 -0.2841 -0.2595
 1151DPPI   C1B16921  18.194   3.715   6.230 -0.2082  0.0299  0.1088
 1151DPPI   C2B16922  18.280   3.855   6.615 -0.2567 -0.0126 -0.0986
 1151DPPI   C3B16923  18.424   4.128   6.872 -0.0483  0.1658 -0.3506
 1151DPPI   C4B16924  18.438   4.380   7.169 -0.1504  0.2558  0.2395
 1152DPPI    C116925   8.670  10.301   5.398  0.1861  0.2375  0.1964
 1152DPPI    C216926   8.583  10.588   5.133 -0.0137  0.0304  0.0345
 1152DPPI    C316927   8.663  10.216   5.007  0.4015  0.0476  0.2318
 1152DPPI   PO416928   8.854  10.489   5.566 -0.1830 -0.0122  0.0934
 1152DPPI   GL116929   8.895  10.638   5.934  0.1273 -0.4160 -0.4490
 1152DPPI   GL216930   8.952  10.932   5.843  0.1893  0.3304  0.0072
 1152DPPI   C1A16931   8.947  10.785   6.446 -0.1168 -0.3282  0.2665
 1152DPPI   C2A16932   8.934  10.781   6.839  0.1557  0.0639  0.2718
 1152DPPI   C3A16933   8.859  10.896   7.274  0.1627 -0.2861  0.4102
 1152DPPI   C4A16934   8.915  10.869   7.730 -0.0034  0.0561  0.1659
 1152DPPI   C1B16935   9.301  11.030   6.192 -0.2441  0.3234 -0.0954
 1152DPPI   C2B16936   9.411  11.019   6.559 -0.4386 -0.2189 -0.1418
 1152DPPI   C3B16937   9.516  10.834   6.869  0.1897  0.1404  0.2137
 1152DPPI   C4B16938   9.279  10.679   7.254 -0.4042 -0.3535 -0.0599
 1153DPPI    C116939  11.302   3.372   5.190 -0.0787  0.1819  0.1974
 1153DPPI    C216940  11.025   3.111   5.066  0.0794  0.0782  0.0583
 1153DPPI    C316941  10.921   3.487   5.151 -0.0895  0.0630 -0.0755
 1153DPPI   PO416942  11.477   3.312   5.400  0.3409  0.3756  0.0795
 1153DPPI   GL116943  11.620   3.141   5.752 -0.1006 -0.1466 -0.0507
 1153DPPI   GL216944  11.465   3.537   5.856  0.2745  0.1252 -0.0951
 1153DPPI   C1A16945  11.601   3.056   6.227 -0.2379  0.3106 -0.3046
 1153DPPI   C2A16946  11.593   2.950   6.667 -0.3522  0.0436  0.2741
 1153DPPI   C3A16947  11.955   2.918   6.913 -0.1211 -0.2589 -0.1664
 1153DPPI   C4A16948  12.206   3.143   7.288 -0.0147 -0.0884  0.2691
 1153DPPI   C1B16949  11.390   3.509   6.312 -0.1807  0.0471 -0.2953
 1153DPPI   C2B16950  11.466   3.447   6.730  0.1174 -0.0969 -0.0979
 1153DPPI   C3B16951  11.506   3.605   7.240 -0.0665 -0.0506  0.2341
 1153DPPI   C4B16952  11.703   3.498   7.632 -0.0742 -0.2887 -0.0029
 1154DPPI    C116953  16.089  16.583   5.773 -0.2185  0.1439 -0.2048
 1154DPPI    C216954  15.864  16.898   5.673  0.0151  0.3397 -0.1237
 1154DPPI    C316955  16.231  16.858   5.519  0.0606  0.2088  0.0164
 1154DPPI   PO416956  16.031  16.279   5.888  0.0005 -0.1558 -0.0318
 1154DPPI   GL116957  15.828  15.945   6.145 -0.1686  0.0268  0.0309
 1154DPPI   GL216958  15.926  15.620   6.292  0.0316  0.2821 -0.2987
 1154DPPI   C1A16959  15.748  16.146   6.581 -0.2675  0.1647 -0.0766
 1154DPPI   C2A16960  15.741  16.107   7.000 -0.0160 -0.1197 -0.2835
 1154DPPI   C3A16961  15.752  16.093   7.471  0.0642  0.1645 -0.0054
 1154DPPI   C4A16962  15.961  15.863   7.751 -0.0734 -0.1063  0.1427
 1154DPPI   C1B16963  16.139  15.739   6.696 -0.2186 -0.1989  0.3461
 1154DPPI   C2B16964  16.116  15.835   7.145  0.4768 -0.1300 -0.0640
 1154DPPI   C3B16965  16.441  15.883   7.581 -0.0011  0.0086  0.0238
 1154DPPI   C4B16966  16.886  16.042   7.713  0.0835 -0.2291 -0.2626
 1155DPPI    C116967   4.339  10.872   5.144 -0.1393  0.1465  0.0988
 1155DPPI    C216968   4.693  10.755   5.000 -0.0025  0.2435  0.3488
 1155DPPI    C316969   4.513  11.080   4.851 -0.1481  0.0062 -0.0066
 1155DPPI   PO416970   4.340  10.905   5.379 -0.2185  0.1245 -0.1536
 1155DPPI   GL116971   4.575  10.880   5.764 -0.0236 -0.4157  0.3422
 1155DPPI   GL216972   4.426  11.094   5.827 -0.1771 -0.0649 -0.1019
 1155DPPI   C1A16973   4.737  10.608   6.101 -0.0158  0.1676  0.1368
 1155DPPI   C2A16974   4.998  10.618   6.506 -0.0865 -0.1887  0.0128
 1155DPPI   C3A16975   4.987  10.568   6.881 -0.3203 -0.2312  0.0550
 1155DPPI   C4A16976   4.951  10.546   7.200 -0.1971 -0.0368 -0.0206
 1155DPPI   C1B16977   4.427  11.190   6.171 -0.0536  0.0520 -0.3389
 1155DPPI   C2B16978   4.458  11.465   6.500 -0.3600 -0.0177 -0.1529
 1155DPPI   C3B16979   4.440  11.521   6.917  0.0796 -0.1232 -0.1377
 1155DPPI   C4B16980   4.088  11.480   7.269 -0.1224 -0.3657  0.0821
 1156DPPI    C116981   7.899  12.175   5.317  0.0000 -0.1409 -0.0503
 1156DPPI    C216982   8.267  12.292   5.423 -0.0321 -0.1230  0.0429
 1156DPPI    C316983   7.947  12.467   5.586 -0.0809 -0.3368  0.1802
 1156DPPI   PO416984   7.871  11.970   5.445 -0.2038  0.1615 -0.0360
 1156DPPI   GL116985   7.929  11.946   5.946 -0.1784 -0.0009 -0.1362
 1156DPPI   GL216986   7.906  12.217   6.015  0.2315  0.0193 -0.0973
 1156DPPI   C1A16987   7.688  11.806   6.339  0.0813 -0.4198 -0.2697
 1156DPPI   C2A16988   7.636  11.760   6.760  0.1582 -0.1569  0.0210
 1156DPPI   C3A16989   7.717  11.706   7.178  0.0942 -0.0919  0.1850
 1156DPPI   C4A16990   7.709  11.908   7.595  0.0658 -0.2216  0.2531
 1156DPPI   C1B16991   7.934  12.267   6.484 -0.0040  0.1655 -0.3560
 1156DPPI   C2B16992   7.907  12.392   6.818  0.0587  0.1532  0.0387
 1156DPPI   C3B16993   8.028  12.636   6.999 -0.2444  0.0243  0.0489
 1156DPPI   C4B16994   8.347  12.830   7.283  0.2947 -0.0897 -0.2183
 1157DPPI    C116995   3.824   6.222   5.024 -0.2223 -0.0094 -0.1665
 1157DPPI    C216996   3.976   6.083   4.681  0.0080  0.0730 -0.0996
 1157DPPI    C316997   3.720   6.390   4.677 -0.0693  0.0076 -0.2049
 1157DPPI   PO416998   4.088   6.328   5.261  0.5174  0.2323  0.3209
 1157DPPI   GL116999   4.242   6.437   5.687  0.0487 -0.2941  0.1337
 1157DPPI   GL217000   3.896   6.496   5.731 -0.2196  0.1341 -0.1203
 1157DPPI   C1A17001   4.352   6.092   5.867 -0.0987  0.2054  0.0381
 1157DPPI   C2A17002   4.230   6.038   6.289  0.2800  0.2651 -0.0988
 1157DPPI   C3A17003   4.305   5.974   6.682  0.2622 -0.0200 -0.0013
 1157DPPI   C4A17004   4.598   5.948   7.048  0.1110 -0.0049 -0.1316
 1157DPPI   C1B17005   4.077   6.500   6.221 -0.0890 -0.1640 -0.1864
 1157DPPI   C2B17006   4.191   6.424   6.638  0.1288 -0.2518  0.1571
 1157DPPI   C3B17007   4.310   6.359   7.032  0.1813 -0.0696 -0.2157
 1157DPPI   C4B17008   4.545   6.278   7.454  0.2252 -0.0167 -0.2309
 1158DPPI    C117009  13.801   2.825   5.433 -0.2523 -0.1563  0.0026
 1158DPPI    C217010  13.933   2.447   5.441 -0.1940 -0.1340  0.1140
 1158DPPI    C317011  13.855   2.624   5.091  0.0472 -0.1566  0.0468
 1158DPPI   PO417012  13.573   2.846   5.665 -0.2615 -0.2366  0.2165
 1158DPPI   GL117013  13.375   3.027   5.917  0.3020 -0.1852 -0.1508
 1158DPPI   GL217014  13.154   2.823   5.924  0.0304  0.1853 -0.0274
 1158DPPI   C1A17015  13.591   3.064   6.332 -0.0636  0.1565 -0.0301
 1158DPPI   C2A17016  13.582   3.194   6.810  0.0883 -0.0955  0.1343
 1158DPPI   C3A17017  13.550   3.296   7.225 -0.3855  0.0454 -0.3105
 1158DPPI   C4A17018  13.301   3.092   7.497 -0.0910 -0.0405  0.2621
 1158DPPI   C1B17019  13.123   2.471   6.051  0.1498 -0.0869  0.0699
 1158DPPI   C2B17020  13.090   2.275   6.510 -0.1584 -0.2404  0.0706
 1158DPPI   C3B17021  13.320   2.277   6.938 -0.3146  0.0365  0.2327
 1158DPPI   C4B17022  13.522   1.986   7.300  0.1252  0.0195  0.1424
 1159DPPI    C117023  13.690  15.585   5.831  0.0903 -0.0401  0.1733
 1159DPPI    C217024  13.695  15.636   5.434 -0.0728 -0.0790  0.1655
 1159DPPI    C317025  14.028  15.524   5.626  0.0369  0.0565  0.0558
 1159DPPI   PO417026  13.499  15.615   5.871  0.1119 -0.0162 -0.3431
 1159DPPI   GL117027  13.374  15.823   6.244  0.3445 -0.0181  0.0355
 1159DPPI   GL217028  13.686  15.831   6.329 -0.1857 -0.0791 -0.1381
 1159DPPI   C1A17029  13.305  15.718   6.645  0.1751 -0.2808 -0.1490
 1159DPPI   C2A17030  13.245  16.013   7.048  0.0804  0.3456  0.0584
 1159DPPI   C3A17031  13.243  16.096   7.508 -0.0503 -0.2252  0.0308
 1159DPPI   C4A17032  13.173  15.968   7.961 -0.0883  0.1224 -0.1497
 1159DPPI   C1B17033  13.751  15.887   6.808 -0.0142  0.3176 -0.0168
 1159DPPI   C2B17034  13.774  15.974   7.334 -0.1379 -0.5426  0.5715
 1159DPPI   C3B17035  13.674  15.787   7.814  0.0364 -0.2188 -0.0342
 1159DPPI   C4B17036  13.602  15.683   8.150  0.0594 -0.4401 -0.2765
 1160DPPI    C117037   9.771   8.178   5.153 -0.0242  0.0348 -0.1385
 1160DPPI    C217038  10.077   7.933   5.073 -0.1113 -0.1193 -0.0066
 1160DPPI    C317039   9.734   7.896   4.871 -0.1224 -0.1013  0.0090
 1160DPPI   PO417040   9.773   8.093   5.504 -0.1171 -0.1613 -0.2458
 1160DPPI   GL117041   9.785   7.788   5.921 -0.0129 -0.1136  0.1245
 1160DPPI   GL217042   9.660   7.506   5.893  0.0169  0.0397  0.1990
 1160DPPI   C1A17043   9.733   7.867   6.428 -0.2396  0.2721  0.3577
 1160DPPI   C2A17044   9.750   7.800   6.784 -0.1710 -0.2109  0.0585
 1160DPPI   C3A17045   9.719   7.991   7.118 -0.0204 -0.2049  0.1956
 1160DPPI   C4A17046   9.589   8.412   7.430 -0.0298  0.0805 -0.0160
 1160DPPI   C1B17047   9.646   7.376   6.379  0.1332  0.1559  0.1735
 1160DPPI   C2B17048   9.644   7.332   6.817 -0.1146 -0.0332  0.3455
 1160DPPI   C3B17049   9.507   7.468   7.140 -0.0935  0.0146  0.0974
 1160DPPI   C4B17050   9.165   7.449   7.439 -0.2831 -0.0013 -0.1144
 1161DPPI    C117051  13.144  16.381   5.804 -0.0297 -0.0383  0.1009
 1161DPPI    C217052  12.780  16.527   5.728  0.0496  0.0271 -0.1651
 1161DPPI    C317053  13.092  16.775   5.759  0.1136 -0.0500 -0.1920
 1161DPPI   PO417054  13.119  16.243   6.036 -0.1241 -0.0627 -0.2242
 1161DPPI   GL117055  13.396  16.312   6.315  0.3997 -0.0531 -0.1663
 1161DPPI   GL217056  13.176  16.569   6.390  0.2338  0.2916 -0.1555
 1161DPPI   C1A17057  13.439  16.346   6.744 -0.2488 -0.1461 -0.0767
 1161DPPI   C2A17058  13.525  16.437   7.243  0.2076 -0.0695 -0.1980
 1161DPPI   C3A17059  13.656  16.450   7.665  0.0835  0.1439 -0.0223
 1161DPPI   C4A17060  13.721  16.217   7.983  0.0385 -0.0015 -0.2451
 1161DPPI   C1B17061  12.982  16.523   6.794 -0.0785 -0.1311 -0.3141
 1161DPPI   C2B17062  13.051  16.498   7.251 -0.0206  0.1078 -0.1425
 1161DPPI   C3B17063  13.144  16.521   7.678 -0.3714  0.0127  0.2322
 1161DPPI   C4B17064  13.255  16.544   8.121 -0.1307 -0.2185 -0.0138
 1162DPPI    C117065  17.687   0.686   5.791  0.1267  0.1126 -0.1419
 1162DPPI    C217066  17.534   0.326   5.708 -0.0516  0.1150  0.1622
 1162DPPI    C317067  17.560   0.603   5.421 -0.2654 -0.0139  0.0155
 1162DPPI   PO417068  17.588   0.684   6.067  0.0947 -0.1603 -0.1496
 1162DPPI   GL117069  17.271   0.472   6.315 -0.2881  0.0137  0.0614
 1162DPPI   GL217070  17.246   0.832   6.409 -0.1315 -0.1830  0.2670
 1162DPPI   C1A17071  17.230   0.475   6.742 -0.0852  0.0708  0.0400
 1162DPPI   C2A17072  17.269   0.568   7.189 -0.0859 -0.0785 -0.0303
 1162DPPI   C3A17073  17.141   0.547   7.593  0.0275  0.0941  0.1408
 1162DPPI   C4A17074  17.104   0.267   7.969 -0.2112 -0.0866  0.0631
 1162DPPI   C1B17075  17.126   0.971   6.822 -0.1187 -0.1220 -0.0332
 1162DPPI   C2B17076  17.118   1.025   7.279 -0.0012 -0.0743  0.1030
 1162DPPI   C3B17077  17.322   1.184   7.679 -0.1074  0.0097 -0.3936
 1162DPPI   C4B17078  17.424   1.563   7.906 -0.0339  0.0998 -0.0013
 1163DPPI    C117079  10.415  14.507   6.070  0.2163  0.0091  0.1314
 1163DPPI    C217080  10.512  14.140   6.193  0.2872  0.0613  0.2323
 1163DPPI    C317081  10.128  14.249   6.174  0.2598 -0.0573  0.0868
 1163DPPI   PO417082  10.534  14.633   6.181 -0.2235  0.3672 -0.0034
 1163DPPI   GL117083  10.620  14.821   6.606 -0.5159  0.2371 -0.1903
 1163DPPI   GL217084  10.411  15.059   6.507  0.2606 -0.2069  0.1863
 1163DPPI   C1A17085  10.893  15.002   7.014  0.3499  0.2314  0.1356
 1163DPPI   C2A17086  11.188  14.971   7.310 -0.0570  0.1012 -0.1320
 1163DPPI   C3A17087  11.499  14.792   7.491 -0.2448  0.2105  0.1518
 1163DPPI   C4A17088  11.641  14.505   7.740 -0.0229  0.1440 -0.1604
 1163DPPI   C1B17089  10.418  14.966   7.055  0.1695 -0.4572 -0.1569
 1163DPPI   C2B17090  10.702  14.860   7.489 -0.3172  0.1054  0.3949
 1163DPPI   C3B17091  10.813  14.933   7.836  0.0703  0.3626 -0.3360
 1163DPPI   C4B17092  10.861  14.777   8.205 -0.1717 -0.1687 -0.0360
 1164DPPI    C117093  10.668   6.142   5.374  0.0979 -0.1205 -0.0705
 1164DPPI    C217094  10.648   6.302   5.008  0.1169  0.1384  0.0395
 1164DPPI    C317095  10.983   6.337   5.223  0.0811  0.0495  0.1102
 1164DPPI   PO417096  10.574   6.224   5.601  0.1500  0.1336  0.2041
 1164DPPI   GL117097  10.500   6.346   6.075  0.0726  0.1807 -0.0260
 1164DPPI   GL217098  10.363   6.622   6.023 -0.3163 -0.0124 -0.0194
 1164DPPI   C1A17099  10.520   6.409   6.491 -0.1097 -0.0655  0.2049
 1164DPPI   C2A17100  10.448   6.578   6.902 -0.0117  0.2411 -0.2627
 1164DPPI   C3A17101  10.239   6.713   7.265 -0.3432 -0.1575  0.2149
 1164DPPI   C4A17102  10.278   6.713   7.737 -0.0022  0.0351  0.0866
 1164DPPI   C1B17103  10.082   6.610   6.429  0.2389  0.2787 -0.3350
 1164DPPI   C2B17104   9.903   6.476   6.973  0.1369  0.0274  0.1666
 1164DPPI   C3B17105   9.763   6.540   7.394  0.1990  0.1691  0.0683
 1164DPPI   C4B17106   9.924   6.275   7.717  0.1177  0.3957 -0.2216
 1165DPPI    C117107   7.757   7.544   4.981 -0.2893 -0.0745  0.0459
 1165DPPI    C217108   7.484   7.396   4.729 -0.1067 -0.4709  0.0731
 1165DPPI    C317109   7.840   7.218   4.764  0.1911  0.0855 -0.0220
 1165DPPI   PO417110   7.643   7.610   5.259 -0.1428 -0.0795 -0.1532
 1165DPPI   GL117111   7.831   7.608   5.667 -0.0478  0.1397  0.0209
 1165DPPI   GL217112   7.500   7.778   5.850  0.0554 -0.0182  0.3202
 1165DPPI   C1A17113   8.069   7.633   6.109  0.0978 -0.0739 -0.2736
 1165DPPI   C2A17114   7.912   7.577   6.600  0.1386 -0.1196  0.0775
 1165DPPI   C3A17115   7.809   7.647   7.094  0.1113  0.0107 -0.0070
 1165DPPI   C4A17116   7.974   7.778   7.414  0.0957 -0.4406  0.0919
 1165DPPI   C1B17117   7.485   7.633   6.263 -0.1263  0.2652  0.2409
 1165DPPI   C2B17118   7.395   7.648   6.705  0.2751 -0.0480 -0.1191
 1165DPPI   C3B17119   7.329   7.533   7.080  0.2520  0.2222 -0.0797
 1165DPPI   C4B17120   7.141   7.256   7.361  0.0576  0.1168  0.3575
 1166DPPI    C117121   2.600   3.969   5.366  0.0028 -0.2199  0.1339
 1166DPPI    C217122   2.736   3.839   5.012  0.4064  0.2056  0.1236
 1166DPPI    C317123   2.368   3.994   5.041  0.1516 -0.3561  0.0155
 1166DPPI   PO417124   2.804   3.758   5.528 -0.0609 -0.0186 -0.0078
 1166DPPI   GL117125   2.694   3.826   5.924  0.1440 -0.5360 -0.1305
 1166DPPI   GL217126   2.431   3.759   5.841  0.0090  0.0018  0.4382
 1166DPPI   C1A17127   2.975   3.654   6.322  0.1694  0.1264  0.0852
 1166DPPI   C2A17128   2.948   3.577   6.721  0.2778  0.0092 -0.0421
 1166DPPI   C3A17129   2.906   3.528   7.171  0.0454 -0.2388 -0.2828
 1166DPPI   C4A17130   2.892   3.537   7.596 -0.0556 -0.4311 -0.0245
 1166DPPI   C1B17131   2.486   3.698   6.399 -0.0389  0.1361  0.0709
 1166DPPI   C2B17132   2.542   3.913   6.790  0.0882  0.1217  0.0650
 1166DPPI   C3B17133   2.703   4.206   6.964 -0.0060 -0.1286 -0.0423
 1166DPPI   C4B17134   2.819   4.351   7.352  0.0860  0.1377  0.3209
 1167DPPI    C117135   3.769  10.340   5.373 -0.0066  0.1580  0.2388
 1167DPPI    C217136   3.554  10.536   5.098  0.0319  0.0140  0.1039
 1167DPPI    C317137   3.863  10.716   5.277  0.1269  0.0447 -0.0895
 1167DPPI   PO417138   3.539  10.146   5.516  0.2119 -0.1884  0.4145
 1167DPPI   GL117139   3.423  10.233   5.975 -0.1359 -0.0312 -0.1763
 1167DPPI   GL217140   3.326  10.049   6.220 -0.1017 -0.3439 -0.0229
 1167DPPI   C1A17141   3.506  10.521   6.335  0.1958  0.1113 -0.0863
 1167DPPI   C2A17142   3.326  10.645   6.776 -0.0099 -0.1708  0.1109
 1167DPPI   C3A17143   3.522  10.681   7.182  0.1216  0.0788 -0.3393
 1167DPPI   C4A17144   3.658  10.320   7.511 -0.1982 -0.3536 -0.0417
 1167DPPI   C1B17145   3.285  10.163   6.598  0.1509 -0.1631  0.0821
 1167DPPI   C2B17146   3.152  10.302   7.099 -0.2314  0.0971 -0.3783
 1167DPPI   C3B17147   3.205  10.465   7.543  0.0670 -0.0431 -0.0893
 1167DPPI   C4B17148   3.230  10.465   7.913  0.1566 -0.0690  0.2960
 1168DPPI    C117149   5.592  11.537   5.314 -0.3130  0.0236  0.1252
 1168DPPI    C217150   5.630  11.159   5.190  0.0215  0.0582  0.1141
 1168DPPI    C317151   5.470  11.434   4.948  0.0129 -0.0231  0.0267
 1168DPPI   PO417152   5.614  11.537   5.644  0.0376 -0.1041 -0.2417
 1168DPPI   GL117153   5.882  11.777   5.906  0.0063  0.1177 -0.1081
 1168DPPI   GL217154   6.042  11.504   5.900 -0.0147  0.0254  0.1962
 1168DPPI   C1A17155   5.806  11.943   6.309  0.0969 -0.1173 -0.0627
 1168DPPI   C2A17156   5.770  12.004   6.804  0.1210  0.3214 -0.1430
 1168DPPI   C3A17157   5.710  11.674   7.142 -0.0412 -0.2598  0.1320
 1168DPPI   C4A17158   5.421  11.454   7.407  0.1922 -0.3642  0.3132
 1168DPPI   C1B17159   5.981  11.420   6.356 -0.1236 -0.0330  0.3398
 1168DPPI   C2B17160   5.715  11.461   6.664 -0.1412  0.0183  0.0497
 1168DPPI   C3B17161   5.359  11.683   6.774  0.0401  0.0718  0.1986
 1168DPPI   C4B17162   4.936  11.537   6.817 -0.1216  0.0400  0.2722
 1169DPPI    C117163  10.936  14.865   5.924 -0.0421 -0.3053 -0.1353
 1169DPPI    C217164  10.661  14.781   5.646 -0.0336 -0.3676 -0.1251
 1169DPPI    C317165  11.021  14.916   5.536 -0.1168 -0.1463 -0.1314
 1169DPPI   PO417166  10.787  15.042   6.151  0.3239 -0.1437  0.0411
 1169DPPI   GL117167  10.859  15.301   6.550  0.0740  0.1331  0.0975
 1169DPPI   GL217168  11.008  15.672   6.620 -0.4641  0.3166 -0.0219
 1169DPPI   C1A17169  10.653  15.407   7.039  0.1020  0.3560  0.2698
 1169DPPI   C2A17170  10.329  15.318   7.406 -0.0866 -0.2176 -0.0350
 1169DPPI   C3A17171  10.286  15.019   7.703  0.1526 -0.2209  0.0193
 1169DPPI   C4A17172  10.354  15.102   8.196 -0.1699 -0.0409  0.1003
 1169DPPI   C1B17173  10.783  15.889   6.926  0.3558 -0.0903  0.0331
 1169DPPI   C2B17174  10.594  15.829   7.265  0.1810 -0.0616 -0.0305
 1169DPPI   C3B17175  10.805  15.856   7.670 -0.1625  0.0432  0.1081
 1169DPPI   C4B17176  10.727  15.854   8.111  0.1319  0.0355  0.1554
 1170DPPI    C117177   1.079   1.412   5.776 -0.0059 -0.0410 -0.3914
 1170DPPI    C217178   1.433   1.449   5.959 -0.1150 -0.3141 -0.1163
 1170DPPI    C317179   1.356   1.660   5.628  0.1574  0.0442  0.0422
 1170DPPI   PO417180   0.938   1.409   5.972  0.2946 -0.2399 -0.2748
 1170DPPI   GL117181   1.092   1.799   6.304 -0.1660 -0.2782  0.0373
 1170DPPI   GL217182   1.172   1.995   6.034  0.1079 -0.1894 -0.0211
 1170DPPI   C1A17183   1.101   2.180   6.528 -0.1139  0.0765 -0.1341
 1170DPPI   C2A17184   1.086   2.623   6.755  0.1480 -0.0690  0.1753
 1170DPPI   C3A17185   1.119   2.700   7.180  0.1583  0.1114 -0.1608
 1170DPPI   C4A17186   1.039   2.960   7.540  0.0993 -0.1187  0.1316
 1170DPPI   C1B17187   0.861   2.329   6.111  0.3481 -0.2556  0.0719
 1170DPPI   C2B17188   0.738   2.536   6.472  0.3632  0.3925 -0.2214
 1170DPPI   C3B17189   0.573   2.848   6.799 -0.1050  0.2325  0.1630
 1170DPPI   C4B17190   0.606   2.964   7.174  0.0111 -0.2834 -0.1397
 1171DPPI    C117191  10.217   5.549   4.975 -0.1042 -0.1233  0.3367
 1171DPPI    C217192  10.018   5.248   4.801 -0.0522 -0.0501  0.1484
 1171DPPI    C317193   9.985   5.620   4.657  0.2536 -0.0436  0.0881
 1171DPPI   PO417194  10.148   5.424   5.245  0.2994 -0.2838 -0.0298
 1171DPPI   GL117195  10.158   5.326   5.672 -0.1182 -0.0627 -0.0169
 1171DPPI   GL217196  10.029   5.499   5.916  0.0871  0.2585  0.0908
 1171DPPI   C1A17197  10.488   5.345   5.953  0.1637 -0.0784  0.1105
 1171DPPI   C2A17198  10.500   5.375   6.443  0.0843 -0.2356 -0.1266
 1171DPPI   C3A17199  10.433   5.345   6.853 -0.2040  0.4814 -0.0538
 1171DPPI   C4A17200  10.523   5.505   7.289  0.1422  0.1313  0.0309
 1171DPPI   C1B17201  10.074   5.614   6.299  0.2144  0.0269 -0.1308
 1171DPPI   C2B17202   9.959   5.587   6.643  0.0886 -0.1579  0.4436
 1171DPPI   C3B17203   9.999   5.418   7.057  0.0622 -0.3940 -0.0652
 1171DPPI   C4B17204   9.956   5.146   7.506  0.0855  0.1538  0.0817
 1172DPPI    C117205   1.158   0.437   5.787  0.2279  0.0845  0.1100
 1172DPPI    C217206   0.950   0.097   5.754  0.1863  0.1294 -0.1040
 1172DPPI    C317207   0.796   0.439   5.617  0.2613  0.2216  0.0398
 1172DPPI   PO417208   1.245   0.406   6.002 -0.0973 -0.3250  0.0682
 1172DPPI   GL117209   1.446   0.648   6.260 -0.1540  0.0622 -0.1341
 1172DPPI   GL217210   1.483   1.017   6.312 -0.0410  0.3112 -0.2046
 1172DPPI   C1A17211   1.814   0.685   6.590 -0.0353 -0.3038 -0.3511
 1172DPPI   C2A17212   1.909   0.428   6.974  0.0994 -0.3018  0.0422
 1172DPPI   C3A17213   1.919   0.192   7.385 -0.5968  0.1090 -0.1079
 1172DPPI   C4A17214   1.953   0.222   7.891 -0.1962 -0.2008 -0.0211
 1172DPPI   C1B17215   1.268   0.850   6.720  0.0382 -0.0329 -0.2303
 1172DPPI   C2B17216   1.020   0.821   7.043  0.1161 -0.1768 -0.1633
 1172DPPI   C3B17217   1.176   0.825   7.455 -0.0897  0.1858  0.1614
 1172DPPI   C4B17218   1.335   0.674   7.769 -0.0981 -0.0778  0.2632
 1173DPPI    C117219  14.022   5.570   4.932 -0.0015 -0.0561  0.1194
 1173DPPI    C217220  13.990   5.622   4.537  0.1135  0.1448  0.1349
 1173DPPI    C317221  14.351   5.572   4.703  0.0595 -0.0133  0.2067
 1173DPPI   PO417222  13.769   5.296   4.925 -0.0106 -0.3617 -0.2713
 1173DPPI   GL117223  13.775   4.962   5.211 -0.1224 -0.1950 -0.1095
 1173DPPI   GL217224  13.543   5.144   5.390  0.0068 -0.1070  0.2413
 1173DPPI   C1A17225  13.964   4.952   5.701  0.1392 -0.1741  0.2802
 1173DPPI   C2A17226  14.151   5.072   6.097 -0.0241  0.1431  0.1424
 1173DPPI   C3A17227  14.407   5.326   6.178 -0.0164 -0.1569  0.0317
 1173DPPI   C4A17228  14.234   5.744   6.149 -0.1780 -0.1187  0.0247
 1173DPPI   C1B17229  13.488   4.929   5.803 -0.0677  0.1903  0.2024
 1173DPPI   C2B17230  13.730   4.770   6.155  0.0043 -0.0414  0.0624
 1173DPPI   C3B17231  13.896   4.935   6.473  0.1211 -0.2976 -0.1164
 1173DPPI   C4B17232  14.164   4.857   6.876  0.1177 -0.1545 -0.2932
 1174DPPI    C117233   6.854   3.275   4.886  0.0329  0.0393  0.1420
 1174DPPI    C217234   6.545   3.500   4.771 -0.0155 -0.1530 -0.1138
 1174DPPI    C317235   6.892   3.524   4.575  0.0956 -0.0288  0.0948
 1174DPPI   PO417236   6.736   3.138   5.181 -0.0331 -0.1963 -0.0730
 1174DPPI   GL117237   6.503   3.104   5.541 -0.0983  0.2629  0.2008
 1174DPPI   GL217238   6.638   3.402   5.618  0.1694  0.0224 -0.2499
 1174DPPI   C1A17239   6.637   2.836   5.914 -0.2062 -0.3749 -0.2050
 1174DPPI   C2A17240   6.644   2.914   6.353  0.1416  0.0504  0.3950
 1174DPPI   C3A17241   6.763   2.703   6.752  0.2495 -0.0141  0.2474
 1174DPPI   C4A17242   6.715   2.916   7.206 -0.0314  0.0843 -0.0266
 1174DPPI   C1B17243   6.563   3.384   6.002  0.1173  0.3087  0.0055
 1174DPPI   C2B17244   6.343   3.317   6.323  0.0980 -0.1306  0.1245
 1174DPPI   C3B17245   6.355   3.117   6.709  0.1493  0.2049  0.1400
 1174DPPI   C4B17246   6.287   3.070   7.163  0.1840 -0.5140 -0.4184
 1175DPPI    C117247  17.655   7.053   5.172  0.0830 -0.2383 -0.0049
 1175DPPI    C217248  17.272   6.944   5.139  0.0208 -0.0408  0.0509
 1175DPPI    C317249  17.545   6.791   4.891 -0.0911 -0.1939  0.0205
 1175DPPI   PO417250  17.845   7.040   5.479  0.0238  0.1809  0.0454
 1175DPPI   GL117251  17.725   6.865   5.858  0.1629  0.0611  0.1285
 1175DPPI   GL217252  17.547   6.592   5.979  0.0027  0.0193  0.0239
 1175DPPI   C1A17253  17.889   7.041   6.285  0.0957 -0.0759 -0.0494
 1175DPPI   C2A17254  17.954   7.105   6.677 -0.0652  0.0237 -0.1110
 1175DPPI   C3A17255  18.108   7.211   7.054 -0.3137  0.0215 -0.0502
 1175DPPI   C4A17256  18.052   7.339   7.498  0.0548 -0.0958 -0.0262
 1175DPPI   C1B17257  17.701   6.588   6.351  0.1906  0.2301 -0.0458
 1175DPPI   C2B17258  17.696   6.696   6.671 -0.0688  0.2074 -0.3542
 1175DPPI   C3B17259  17.718   6.640   7.137 -0.0872 -0.1172  0.0228
 1175DPPI   C4B17260  17.596   6.464   7.651  0.1131  0.0011 -0.0199
 1176DPPI    C117261  13.314  10.523   5.040  0.0551 -0.1256 -0.0709
 1176DPPI    C217262  12.989  10.492   5.271  0.1787 -0.0064  0.1217
 1176DPPI    C317263  12.991  10.328   4.906 -0.0695 -0.0729  0.1482
 1176DPPI   PO417264  13.536  10.486   5.200 -0.0424 -0.0522  0.4227
 1176DPPI   GL117265  13.460  10.232   5.521 -0.2617  0.0077  0.2594
 1176DPPI   GL217266  13.316  10.017   5.351  0.1889 -0.1146 -0.0544
 1176DPPI   C1A17267  13.707   9.859   5.716  0.1266 -0.0638 -0.0356
 1176DPPI   C2A17268  13.492   9.429   5.679 -0.2592 -0.1560  0.2795
 1176DPPI   C3A17269  13.748   9.020   5.758 -0.0873 -0.0923 -0.0746
 1176DPPI   C4A17270  14.138   9.052   5.966  0.0875 -0.2206  0.0423
 1176DPPI   C1B17271  12.937  10.263   5.653  0.0230  0.1944 -0.0622
 1176DPPI   C2B17272  12.732  10.350   6.043  0.0071  0.0320  0.3742
 1176DPPI   C3B17273  12.517  10.104   6.275  0.0380 -0.1425 -0.0659
 1176DPPI   C4B17274  12.208  10.087   6.446 -0.2844  0.0207  0.2235
 1177DPPI    C117275  16.636   3.230   5.171  0.1795 -0.2028  0.1211
 1177DPPI    C217276  16.694   3.070   4.809 -0.0831  0.1609 -0.0885
 1177DPPI    C317277  16.966   3.318   4.964 -0.0197  0.0866 -0.0802
 1177DPPI   PO417278  16.586   3.042   5.362 -0.2334  0.0473 -0.2933
 1177DPPI   GL117279  16.528   3.032   5.800  0.0758 -0.2592 -0.1143
 1177DPPI   GL217280  16.212   3.213   5.733 -0.1815  0.1573 -0.0666
 1177DPPI   C1A17281  16.609   3.051   6.285  0.2620  0.1697  0.2128
 1177DPPI   C2A17282  16.488   3.057   6.724  0.2332 -0.0605 -0.0150
 1177DPPI   C3A17283  16.385   3.161   7.142  0.0047 -0.0699 -0.2451
 1177DPPI   C4A17284  16.177   3.229   7.522  0.4036 -0.0445  0.1255
 1177DPPI   C1B17285  16.333   3.417   6.057 -0.0322 -0.1059  0.0496
 1177DPPI   C2B17286  16.390   3.519   6.528 -0.1288 -0.3978 -0.0682
 1177DPPI   C3B17287  16.384   3.636   7.055 -0.3793 -0.2030 -0.1372
 1177DPPI   C4B17288  16.612   3.842   7.321 -0.1770  0.2028 -0.1049
 1178DPPI    C117289   2.364  16.065   5.562  0.1230  0.0262 -0.0318
 1178DPPI    C217290   2.643  15.885   5.339  0.0943 -0.0801  0.0175
 1178DPPI    C317291   2.589  16.280   5.311  0.1654 -0.0770 -0.0831
 1178DPPI   PO417292   2.412  15.908   5.770 -0.0289  0.2016  0.0612
 1178DPPI   GL117293   2.546  16.044   6.243 -0.2073  0.1246 -0.0583
 1178DPPI   GL217294   2.290  16.320   6.349 -0.4122  0.1539 -0.0351
 1178DPPI   C1A17295   2.611  15.855   6.680  0.5087 -0.0153 -0.3048
 1178DPPI   C2A17296   2.555  15.980   7.109 -0.1821 -0.3767 -0.0942
 1178DPPI   C3A17297   2.727  16.080   7.421 -0.0072  0.2683  0.0117
 1178DPPI   C4A17298   2.681  16.226   7.874 -0.1850  0.2679  0.0228
 1178DPPI   C1B17299   2.402  16.307   6.757  0.1771 -0.0167 -0.1178
 1178DPPI   C2B17300   2.320  16.450   7.120 -0.0395 -0.0712  0.0692
 1178DPPI   C3B17301   2.227  16.313   7.640 -0.0722 -0.1463  0.2661
 1178DPPI   C4B17302   1.906  16.294   7.918 -0.1045 -0.2777  0.0991
 1179DPPI    C117303   3.988  16.453   5.454 -0.2452 -0.2295  0.0527
 1179DPPI    C217304   3.869  16.106   5.295  0.0968 -0.1906 -0.3019
 1179DPPI    C317305   3.945  16.419   5.058 -0.1424  0.1098  0.0098
 1179DPPI   PO417306   3.779  16.511   5.607 -0.0324  0.0169  0.2321
 1179DPPI   GL117307   3.690  16.218   6.033 -0.1337  0.2016  0.3904
 1179DPPI   GL217308   3.911  16.069   5.913  0.0986 -0.0446  0.4103
 1179DPPI   C1A17309   3.454  16.222   6.413 -0.2856  0.0797 -0.3542
 1179DPPI   C2A17310   3.522  16.309   6.826 -0.0558 -0.0004  0.3557
 1179DPPI   C3A17311   3.567  15.936   7.097 -0.0921 -0.0521 -0.0416
 1179DPPI   C4A17312   3.698  15.627   6.956 -0.1373 -0.0409  0.0697
 1179DPPI   C1B17313   4.236  16.170   6.291  0.1666  0.1154 -0.2821
 1179DPPI   C2B17314   4.440  16.067   6.695  0.0582 -0.0714  0.3358
 1179DPPI   C3B17315   4.579  15.945   7.087 -0.0405 -0.1550 -0.2247
 1179DPPI   C4B17316   4.692  15.718   7.517 -0.1480  0.1067  0.0780
 1180DPPI    C117317  18.156  13.317   5.649 -0.1821 -0.0595 -0.1976
 1180DPPI    C217318  18.075  12.998   5.876  0.1686 -0.1209 -0.1533
 1180DPPI    C317319  18.046  12.972   5.478 -0.2284 -0.0779 -0.1308
 1180DPPI   PO417320  17.931  13.583   5.708 -0.3014 -0.1324 -0.2232
 1180DPPI   GL117321  17.727  13.727   6.153  0.1367 -0.1679  0.2829
 1180DPPI   GL217322  18.047  13.645   6.241 -0.0506 -0.1208  0.1266
 1180DPPI   C1A17323  17.716  13.824   6.669 -0.1621  0.1175  0.1806
 1180DPPI   C2A17324  17.790  13.677   6.974  0.0809 -0.1353 -0.2440
 1180DPPI   C3A17325  17.905  13.315   7.112 -0.0489  0.0010  0.0879
 1180DPPI   C4A17326  17.943  13.217   7.543 -0.1186  0.2274  0.0498
 1180DPPI   C1B17327  18.167  13.546   6.639 -0.3093  0.2493 -0.0127
 1180DPPI   C2B17328  18.361  13.307   7.038  0.0136  0.1063 -0.0802
 1180DPPI   C3B17329  18.392  13.355   7.489 -0.2010 -0.3098  0.5045
 1180DPPI   C4B17330  18.269  13.598   7.814 -0.0915 -0.1400  0.0720
 1181DPPI    C117331   0.960   6.489   5.227 -0.1970  0.1013  0.1317
 1181DPPI    C217332   1.003   6.137   5.412 -0.2806  0.0459  0.0464
 1181DPPI    C317333   0.782   6.163   5.080 -0.1668  0.1531 -0.0219
 1181DPPI   PO417334   0.924   6.662   5.547 -0.1646  0.2945 -0.0921
 1181DPPI   GL117335   1.063   6.602   5.949  0.0142  0.2115  0.1035
 1181DPPI   GL217336   0.707   6.618   6.048 -0.1889  0.2453  0.0420
 1181DPPI   C1A17337   1.160   6.878   6.245 -0.0224  0.3864  0.0574
 1181DPPI   C2A17338   1.416   7.054   6.621  0.1264 -0.2426  0.0738
 1181DPPI   C3A17339   1.447   7.207   7.020  0.3317  0.3151  0.2145
 1181DPPI   C4A17340   1.329   6.985   7.397 -0.2227 -0.4567 -0.1241
 1181DPPI   C1B17341   0.853   6.550   6.551 -0.0720 -0.1776 -0.1107
 1181DPPI   C2B17342   1.121   6.731   6.894  0.0287 -0.0823  0.2459
 1181DPPI   C3B17343   1.034   6.627   7.347 -0.2060  0.3762  0.2385
 1181DPPI   C4B17344   1.049   6.764   7.812 -0.1506 -0.4727  0.1546
 1182DPPI    C117345  18.344  17.142   5.651 -0.0297  0.2476 -0.1902
 1182DPPI    C217346  18.136  16.936   5.379 -0.0382  0.0321 -0.0242
 1182DPPI    C317347  18.481  16.791   5.518 -0.0778  0.0970  0.1447
 1182DPPI   PO417348  18.286  17.215   5.877  0.1412  0.1662 -0.0621
 1182DPPI   GL117349  18.436  17.193   6.211  0.4664  0.1685  0.0830
 1182DPPI   GL217350  18.753  17.255   6.443 -0.0062  0.0299 -0.1360
 1182DPPI   C1A17351  18.263  17.338   6.658  0.1521 -0.1417 -0.1757
 1182DPPI   C2A17352  18.284  17.382   7.059  0.0538 -0.0871 -0.0238
 1182DPPI   C3A17353  18.202  17.194   7.368  0.0148 -0.0079 -0.0018
 1182DPPI   C4A17354  17.941  16.982   7.625  0.2393 -0.1459 -0.3345
 1182DPPI   C1B17355  18.904  17.347   6.828  0.0007  0.2823 -0.0042
 1182DPPI   C2B17356  19.172  17.526   7.167 -0.1287  0.2716  0.2176
 1182DPPI   C3B17357  19.431  17.411   7.496 -0.1782 -0.2139 -0.2088
 1182DPPI   C4B17358  19.672  17.126   7.649 -0.1142  0.4659 -0.2619
 1183DPPI    C117359   6.343  15.188   5.623 -0.1658  0.1188  0.1334
 1183DPPI    C217360   6.380  15.550   5.458  0.2280 -0.0386 -0.1410
 1183DPPI    C317361   6.202  15.255   5.255 -0.0450 -0.0164  0.0609
 1183DPPI   PO417362   6.237  15.158   5.855 -0.3501  0.0780 -0.1419
 1183DPPI   GL117363   6.320  15.374   6.164  0.2718  0.2974 -0.1469
 1183DPPI   GL217364   6.604  15.518   6.140 -0.1315  0.1106 -0.1877
 1183DPPI   C1A17365   6.352  15.229   6.573  0.0430  0.1398 -0.1420
 1183DPPI   C2A17366   6.221  15.168   7.025 -0.2474  0.1290 -0.0804
 1183DPPI   C3A17367   5.882  15.357   7.335 -0.2167  0.1196 -0.1870
 1183DPPI   C4A17368   5.867  15.335   7.764  0.1219 -0.3071 -0.2999
 1183DPPI   C1B17369   6.672  15.739   6.540 -0.0619  0.0514 -0.2891
 1183DPPI   C2B17370   6.531  15.805   6.986  0.1553 -0.3745 -0.0977
 1183DPPI   C3B17371   6.590  15.882   7.489  0.0136  0.2793 -0.0807
 1183DPPI   C4B17372   6.296  15.621   7.698  0.0273 -0.2591  0.0961
 1184DPPI    C117373   1.269  15.019   5.786  0.0844 -0.0270 -0.0105
 1184DPPI    C217374   1.366  14.657   5.646 -0.0059 -0.0418 -0.0358
 1184DPPI    C317375   0.995  14.798   5.596 -0.0277 -0.0296  0.1521
 1184DPPI   PO417376   1.429  15.021   6.010 -0.1554 -0.0068  0.0206
 1184DPPI   GL117377   1.515  14.900   6.374  0.2258  0.1970  0.3617
 1184DPPI   GL217378   1.278  14.573   6.243  0.0526  0.0826 -0.2151
 1184DPPI   C1A17379   1.619  14.700   6.708 -0.1220 -0.0370  0.1895
 1184DPPI   C2A17380   1.644  14.812   7.230 -0.0433 -0.2018  0.4142
 1184DPPI   C3A17381   1.795  14.918   7.684  0.1114  0.0039  0.2343
 1184DPPI   C4A17382   1.651  14.771   8.064 -0.1006 -0.3212  0.1354
 1184DPPI   C1B17383   1.203  14.447   6.634  0.0339 -0.1759 -0.4570
 1184DPPI   C2B17384   1.232  14.444   7.077 -0.2018 -0.0384 -0.0592
 1184DPPI   C3B17385   1.430  14.295   7.421  0.2067 -0.0990  0.4628
 1184DPPI   C4B17386   1.652  14.282   7.824 -0.0492  0.1435 -0.3528
 1185DPPI    C117387  10.619  16.896   5.376 -0.0941 -0.0065  0.1255
 1185DPPI    C217388  10.924  16.641   5.417  0.0418  0.1099 -0.1346
 1185DPPI    C317389  10.893  16.863   5.086 -0.1939  0.2749 -0.0046
 1185DPPI   PO417390  10.526  17.052   5.588  0.1218 -0.1699  0.1677
 1185DPPI   GL117391  10.324  17.063   6.027 -0.1728  0.1608 -0.1989
 1185DPPI   GL217392  10.459  17.015   6.254 -0.3457 -0.3262  0.0704
 1185DPPI   C1A17393   9.946  16.887   6.336 -0.0029 -0.0485 -0.2584
 1185DPPI   C2A17394   9.710  17.003   6.716  0.0213 -0.0568  0.0165
 1185DPPI   C3A17395   9.666  16.828   7.116 -0.0470  0.0912  0.1313
 1185DPPI   C4A17396   9.780  16.772   7.428 -0.0413  0.0314 -0.2691
 1185DPPI   C1B17397  10.394  17.121   6.595 -0.1121 -0.2180 -0.1787
 1185DPPI   C2B17398  10.558  17.211   7.020 -0.0446  0.1536 -0.3010
 1185DPPI   C3B17399  10.511  17.364   7.505  0.1457 -0.2265  0.2530
 1185DPPI   C4B17400  10.506  17.327   8.039 -0.1232 -0.2108 -0.0422
 1186DPPI    C117401   2.018  16.768   5.804  0.1390  0.0772  0.2094
 1186DPPI    C217402   2.148  16.515   5.523 -0.2387  0.0265  0.0741
 1186DPPI    C317403   2.061  16.894   5.427 -0.3759  0.0071  0.1197
 1186DPPI   PO417404   2.210  16.816   6.029  0.4992  0.0509 -0.1507
 1186DPPI   GL117405   2.068  16.904   6.394  0.0201 -0.1551 -0.2659
 1186DPPI   GL217406   2.410  16.940   6.476  0.2360  0.1049  0.0128
 1186DPPI   C1A17407   1.792  16.810   6.702 -0.0672 -0.1149  0.3109
 1186DPPI   C2A17408   1.585  16.937   7.044  0.1793 -0.1656  0.0742
 1186DPPI   C3A17409   1.694  17.101   7.499  0.0779 -0.0543  0.1243
 1186DPPI   C4A17410   1.666  17.205   7.876 -0.1326  0.2530 -0.0377
 1186DPPI   C1B17411   2.330  16.889   6.958  0.1060  0.4373  0.1002
 1186DPPI   C2B17412   2.100  16.857   7.393  0.1440 -0.0336 -0.0823
 1186DPPI   C3B17413   2.166  16.811   7.844  0.1061 -0.0325  0.1951
 1186DPPI   C4B17414   2.412  16.664   8.126 -0.3035 -0.1020 -0.0553
 1187PYPI    C117415   3.170  11.547   5.021  0.1323 -0.0984 -0.0405
 1187PYPI    C217416   2.771  11.521   5.017  0.1377 -0.1842 -0.0202
 1187PYPI    C317417   2.958  11.751   4.749  0.0704 -0.0857  0.0171
 1187PYPI   PO417418   3.159  11.468   5.365 -0.2446 -0.1421 -0.0540
 1187PYPI   GL117419   3.408  11.363   5.725  0.1776  0.0348 -0.0379
 1187PYPI   GL217420   3.085  11.337   5.873 -0.0059 -0.0997 -0.1475
 1187PYPI   C1A17421   3.547  11.359   6.109  0.2694  0.2702  0.3236
 1187PYPI   C2A17422   3.776  11.458   6.409 -0.0890 -0.0025  0.2434
 1187PYPI   D3A17423   3.962  11.394   6.682 -0.1937 -0.0340 -0.5394
 1187PYPI   C4A17424   4.244  11.074   6.885  0.1332 -0.0061  0.0152
 1187PYPI   C1B17425   2.873  11.173   6.314 -0.0485 -0.2166  0.2776
 1187PYPI   C2B17426   2.597  10.890   6.579 -0.0625 -0.1826 -0.1514
 1187PYPI   C3B17427   2.422  11.063   6.921 -0.0392  0.0549  0.0176
 1187PYPI   C4B17428   2.283  11.126   7.342 -0.1097  0.2671 -0.0466
 1188PYPI    C117429  10.864  15.838   5.789 -0.0454  0.1253  0.2462
 1188PYPI    C217430  10.755  16.047   5.465  0.2196  0.2715  0.2482
 1188PYPI    C317431  10.502  16.008   5.773 -0.0981 -0.0085 -0.0402
 1188PYPI   PO417432  11.156  15.870   5.787  0.2776 -0.2511  0.1626
 1188PYPI   GL117433  11.306  16.132   6.077 -0.2300  0.1153  0.0144
 1188PYPI   GL217434  11.400  15.840   6.267  0.1098  0.1634 -0.1965
 1188PYPI   C1A17435  11.106  16.430   6.396  0.1138  0.0995  0.2804
 1188PYPI   C2A17436  10.857  16.784   6.623 -0.1407  0.3311  0.0119
 1188PYPI   D3A17437  10.723  16.756   6.997  0.1722  0.0678 -0.1481
 1188PYPI   C4A17438  10.947  16.924   7.359  0.0532  0.0763 -0.2178
 1188PYPI   C1B17439  11.311  16.063   6.625 -0.2766 -0.0253 -0.1616
 1188PYPI   C2B17440  11.252  15.996   7.082 -0.0570  0.2922 -0.0973
 1188PYPI   C3B17441  11.222  16.014   7.523 -0.0807 -0.2042 -0.2518
 1188PYPI   C4B17442  11.305  15.861   7.863 -0.1849 -0.2048  0.3752
 1189PYPI    C117443   0.330   9.021   5.131  0.0915 -0.0532 -0.0083
 1189PYPI    C217444   0.484   9.148   4.785 -0.0775 -0.2369 -0.1529
 1189PYPI    C317445   0.096   9.204   4.864  0.0074  0.0115  0.1084
 1189PYPI   PO417446   0.508   9.093   5.350  0.1008  0.0264  0.1165
 1189PYPI   GL117447   0.239   9.174   5.780 -0.1522  0.1059 -0.0687
 1189PYPI   GL217448   0.021   8.904   5.906 -0.1138 -0.3630  0.0657
 1189PYPI   C1A17449   0.258   9.261   6.256 -0.1323 -0.2842  0.0264
 1189PYPI   C2A17450   0.160   9.206   6.645 -0.0589 -0.2245  0.2482
 1189PYPI   D3A17451   0.264   9.042   6.925 -0.2764  0.3312 -0.4571
 1189PYPI   C4A17452   0.196   9.261   7.195 -0.1271  0.1068 -0.0301
 1189PYPI   C1B17453  -0.232   9.080   6.249 -0.1591  0.4115 -0.0350
 1189PYPI   C2B17454  -0.362   9.185   6.685  0.1337  0.0471  0.3223
 1189PYPI   C3B17455  -0.361   9.046   7.119  0.1741 -0.0292 -0.0440
 1189PYPI   C4B17456   0.013   8.772   7.314  0.0062  0.0442  0.2357
 1190PYPI    C117457  16.010   9.972   5.327 -0.0266 -0.0641  0.2187
 1190PYPI    C217458  15.966   9.577   5.287 -0.0150 -0.0413 -0.0335
 1190PYPI    C317459  15.779   9.770   5.583  0.0239 -0.2429  0.1245
 1190PYPI   PO417460  16.394   9.928   5.321  0.0555 -0.1031 -0.1967
 1190PYPI   GL117461  16.516  10.161   5.653  0.0350  0.0198 -0.0817
 1190PYPI   GL217462  16.340  10.401   5.535 -0.1759 -0.1423 -0.1992
 1190PYPI   C1A17463  16.416   9.991   6.019  0.1648 -0.1249  0.0635
 1190PYPI   C2A17464  16.470   9.949   6.460 -0.2991 -0.3726  0.0707
 1190PYPI   D3A17465  16.575  10.050   6.835  0.2867 -0.0965 -0.2634
 1190PYPI   C4A17466  16.536  10.527   6.816 -0.3553 -0.0857  0.1497
 1190PYPI   C1B17467  16.033  10.244   5.754  0.1109 -0.0692 -0.4178
 1190PYPI   C2B17468  15.899  10.085   6.075 -0.2445  0.0271 -0.0034
 1190PYPI   C3B17469  15.932   9.871   6.449  0.1474  0.0490 -0.1368
 1190PYPI   C4B17470  16.152   9.833   6.851 -0.3249  0.2666  0.0904
 1191PYPI    C117471  12.882   6.988   5.502  0.0489 -0.1887  0.0935
 1191PYPI    C217472  12.527   7.162   5.442  0.1495 -0.0263 -0.0434
 1191PYPI    C317473  12.557   6.763   5.448 -0.0584 -0.0413  0.1180
 1191PYPI   PO417474  12.944   7.035   5.712 -0.0934 -0.1328 -0.0479
 1191PYPI   GL117475  12.696   7.076   6.035  0.2122 -0.0862  0.0861
 1191PYPI   GL217476  12.490   6.786   5.931 -0.3954  0.0934 -0.0294
 1191PYPI   C1A17477  12.631   7.130   6.509  0.0768 -0.2439  0.0482
 1191PYPI   C2A17478  12.713   7.093   7.061  0.0902  0.0167 -0.0551
 1191PYPI   D3A17479  13.013   6.945   7.284 -0.0533  0.1655  0.0518
 1191PYPI   C4A17480  13.282   7.054   7.506  0.2545  0.2901 -0.0245
 1191PYPI   C1B17481  12.674   6.639   6.460 -0.1035 -0.1433  0.1450
 1191PYPI   C2B17482  12.956   6.594   6.771 -0.2389  0.0278 -0.2087
 1191PYPI   C3B17483  13.199   6.426   7.030  0.2620 -0.2332  0.0180
 1191PYPI   C4B17484  13.383   6.545   7.403  0.0226 -0.0914 -0.1846
 1192PYPI    C117485   1.723   0.126   5.471 -0.0816 -0.0832  0.4617
 1192PYPI    C217486   1.504  -0.187   5.353 -0.0842  0.1106 -0.0765
 1192PYPI    C317487   1.330   0.167   5.412 -0.0323  0.0867  0.2359
 1192PYPI   PO417488   1.839   0.084   5.742 -0.0821  0.0029 -0.1976
 1192PYPI   GL117489   1.775   0.318   6.065  0.1824 -0.3129 -0.1275
 1192PYPI   GL217490   2.004   0.212   6.185  0.2098 -0.2711 -0.0084
 1192PYPI   C1A17491   1.626   0.175   6.557 -0.2003 -0.1335  0.2410
 1192PYPI   C2A17492   1.599  -0.039   7.057 -0.0914  0.0098  0.2597
 1192PYPI   D3A17493   1.560  -0.262   7.373 -0.3077  0.1285 -0.2179
 1192PYPI   C4A17494   1.790  -0.271   7.789  0.2826  0.1232 -0.0030
 1192PYPI   C1B17495   2.165   0.348   6.528 -0.3986  0.0069 -0.2213
 1192PYPI   C2B17496   2.621   0.272   6.747 -0.2592  0.0469 -0.1217
 1192PYPI   C3B17497   2.933  -0.050   6.984  0.2660 -0.3358 -0.0287
 1192PYPI   C4B17498   3.045  -0.070   7.259 -0.2327  0.3921  0.0955
 1193PYPI    C117499   0.096   0.394   6.059  0.0450  0.0630 -0.2263
 1193PYPI    C217500   0.320   0.230   5.772  0.0140  0.0947 -0.2689
 1193PYPI    C317501  -0.031   0.397   5.679 -0.0781 -0.0519 -0.1867
 1193PYPI   PO417502   0.160   0.240   6.337 -0.0367  0.0430  0.1701
 1193PYPI   GL117503   0.239   0.138   6.723  0.0204 -0.0406  0.1210
 1193PYPI   GL217504   0.534   0.311   6.637  0.1653 -0.0402  0.1008
 1193PYPI   C1A17505   0.282   0.222   7.145  0.0064 -0.0056 -0.1059
 1193PYPI   C2A17506   0.390   0.391   7.523 -0.1720  0.0822  0.1348
 1193PYPI   D3A17507   0.369   0.470   8.024 -0.2623  0.0720 -0.3482
 1193PYPI   C4A17508   0.516   0.677   8.445 -0.0149 -0.1303  0.0864
 1193PYPI   C1B17509   0.794   0.319   7.125  0.2828  0.1974  0.1496
 1193PYPI   C2B17510   0.991   0.416   7.538  0.1109 -0.0779  0.1783
 1193PYPI   C3B17511   0.905   0.435   7.924  0.0334  0.3143 -0.1283
 1193PYPI   C4B17512   1.045   0.677   8.354 -0.0650 -0.2023 -0.0793
 1194PYPI    C117513  12.176   7.907   5.396 -0.2334 -0.1236  0.0660
 1194PYPI    C217514  12.146   7.709   5.050 -0.2663 -0.0036 -0.0004
 1194PYPI    C317515  12.058   8.099   5.065 -0.2004  0.0067  0.1292
 1194PYPI   PO417516  12.302   7.652   5.531  0.1603 -0.1494 -0.1631
 1194PYPI   GL117517  12.261   7.300   5.903 -0.3685  0.0499  0.0496
 1194PYPI   GL217518  11.936   7.383   5.871 -0.4141  0.2438 -0.1545
 1194PYPI   C1A17519  12.161   7.218   6.312  0.3673 -0.1581  0.3757
 1194PYPI   C2A17520  12.174   7.170   6.747 -0.0289 -0.1301 -0.2014
 1194PYPI   D3A17521  12.199   7.060   7.227 -0.1132  0.1246  0.0172
 1194PYPI   C4A17522  12.442   7.007   7.604 -0.3397 -0.1288  0.2242
 1194PYPI   C1B17523  11.965   7.677   6.158  0.0592  0.2522  0.2287
 1194PYPI   C2B17524  12.129   7.740   6.505 -0.1774 -0.3138  0.0408
 1194PYPI   C3B17525  12.146   7.862   6.851  0.1381  0.2593 -0.2538
 1194PYPI   C4B17526  12.057   7.818   7.260 -0.2939  0.1799  0.0020
 1195PYPI    C117527   6.881   6.374   5.442 -0.2480  0.0850 -0.0301
 1195PYPI    C217528   6.849   6.023   5.630 -0.1144  0.0266 -0.1146
 1195PYPI    C317529   7.085   6.057   5.310 -0.0115  0.2301 -0.0191
 1195PYPI   PO417530   6.701   6.474   5.392 -0.0304 -0.1469  0.0898
 1195PYPI   GL117531   6.546   6.536   5.870 -0.0969  0.2020 -0.0497
 1195PYPI   GL217532   6.503   6.223   5.926  0.0476 -0.1087 -0.0927
 1195PYPI   C1A17533   6.736   6.494   6.263  0.2015 -0.2514  0.0454
 1195PYPI   C2A17534   7.012   6.778   6.566 -0.0293 -0.0673  0.0327
 1195PYPI   D3A17535   7.205   7.006   6.939 -0.4071 -0.2184 -0.2147
 1195PYPI   C4A17536   7.258   6.756   7.301 -0.0297 -0.1042  0.3391
 1195PYPI   C1B17537   6.254   6.376   6.256  0.1171  0.1314  0.2435
 1195PYPI   C2B17538   6.154   6.279   6.636  0.0890  0.3756 -0.0755
 1195PYPI   C3B17539   5.961   6.370   7.044 -0.0581  0.0320  0.0032
 1195PYPI   C4B17540   5.744   6.373   7.306 -0.1073  0.3476 -0.1839
 1196PYPI    C117541   2.897   2.546   5.555  0.1239 -0.1423 -0.1926
 1196PYPI    C217542   3.023   2.884   5.381  0.1642 -0.0896 -0.0617
 1196PYPI    C317543   2.634   2.791   5.379  0.1066  0.1311  0.2016
 1196PYPI   PO417544   2.997   2.469   5.766 -0.0267  0.1665 -0.0311
 1196PYPI   GL117545   3.135   2.641   6.170 -0.0228 -0.0977  0.2407
 1196PYPI   GL217546   3.391   2.444   6.254 -0.1994  0.0062 -0.4690
 1196PYPI   C1A17547   3.089   2.752   6.610  0.3226  0.0122  0.1949
 1196PYPI   C2A17548   2.958   2.529   6.891 -0.2342  0.0036 -0.1098
 1196PYPI   D3A17549   2.767   2.382   7.216 -0.2194 -0.0059 -0.2178
 1196PYPI   C4A17550   2.953   2.202   7.609 -0.3357 -0.0762  0.0656
 1196PYPI   C1B17551   3.404   2.234   6.725 -0.1468  0.4084 -0.5819
 1196PYPI   C2B17552   3.387   1.843   7.002  0.1411 -0.1594  0.0985
 1196PYPI   C3B17553   3.371   1.752   7.500  0.1776  0.0538  0.2017
 1196PYPI   C4B17554   3.303   2.017   7.898  0.0595 -0.1032  0.2888
 1197PYPI    C117555   3.481   6.148   5.407 -0.3319 -0.0824 -0.1282
 1197PYPI    C217556   3.844   6.008   5.498 -0.3312  0.0880  0.1434
 1197PYPI    C317557   3.636   5.844   5.199 -0.0979 -0.1158  0.0892
 1197PYPI   PO417558   3.408   6.107   5.685 -0.0488  0.0152 -0.0854
 1197PYPI   GL117559   3.187   6.248   6.031  0.0785  0.0110  0.2162
 1197PYPI   GL217560   3.258   6.494   6.038 -0.0948 -0.3079 -0.2238
 1197PYPI   C1A17561   3.159   6.053   6.402 -0.2661 -0.1793 -0.2411
 1197PYPI   C2A17562   3.120   5.999   6.781 -0.1126  0.2003 -0.2155
 1197PYPI   D3A17563   3.186   6.091   7.164 -0.0714  0.1849  0.1380
 1197PYPI   C4A17564   3.507   6.094   7.561  0.3591 -0.2835 -0.0723
 1197PYPI   C1B17565   3.355   6.524   6.409 -0.0895  0.0274 -0.0402
 1197PYPI   C2B17566   3.245   6.500   6.787 -0.3447  0.0715 -0.1692
 1197PYPI   C3B17567   3.506   6.481   7.190  0.1370  0.0825  0.1193
 1197PYPI   C4B17568   3.309   6.590   7.564  0.3077  0.1862 -0.0544
 1198PYPI    C117569   6.019  14.803   5.294 -0.0863  0.2249 -0.0432
 1198PYPI    C217570   5.795  14.869   4.969 -0.1781  0.1088 -0.0040
 1198PYPI    C317571   6.075  14.584   4.963  0.0191  0.3016 -0.0767
 1198PYPI   PO417572   5.892  14.897   5.479 -0.0573 -0.2358 -0.1917
 1198PYPI   GL117573   5.810  14.929   5.884 -0.0360  0.4862 -0.2167
 1198PYPI   GL217574   5.960  14.782   6.070 -0.1748  0.3039 -0.3712
 1198PYPI   C1A17575   5.447  14.751   6.069 -0.2073  0.1470 -0.1685
 1198PYPI   C2A17576   5.354  14.761   6.528  0.1467 -0.2840  0.2157
 1198PYPI   D3A17577   5.148  14.662   6.847  0.1243 -0.0802 -0.0002
 1198PYPI   C4A17578   5.031  14.294   7.163 -0.4686 -0.0820  0.0535
 1198PYPI   C1B17579   5.942  14.726   6.338  0.1744  0.0119 -0.0607
 1198PYPI   C2B17580   5.782  14.746   6.841 -0.0315 -0.2298  0.2972
 1198PYPI   C3B17581   5.711  14.854   7.342 -0.1360  0.1688  0.2483
 1198PYPI   C4B17582   5.521  14.608   7.648 -0.1625  0.0007 -0.1529
 1199PYPI    C117583  16.203  13.619   5.228 -0.0985 -0.0019  0.0691
 1199PYPI    C217584  16.034  13.750   4.890 -0.1968  0.0056  0.1206
 1199PYPI    C317585  16.000  13.365   4.995 -0.0783 -0.0193  0.0705
 1199PYPI   PO417586  16.274  13.705   5.492  0.2308 -0.0002 -0.0443
 1199PYPI   GL117587  16.367  13.520   5.843 -0.1645 -0.1151 -0.1083
 1199PYPI   GL217588  16.694  13.724   5.747  0.0106 -0.0973 -0.0571
 1199PYPI   C1A17589  16.373  13.736   6.215 -0.2281  0.0975  0.3153
 1199PYPI   C2A17590  16.362  13.788   6.636  0.1703 -0.2839  0.2755
 1199PYPI   D3A17591  16.432  13.907   7.068  0.3020  0.2480  0.0381
 1199PYPI   C4A17592  16.379  13.741   7.485  0.1144  0.1926  0.1221
 1199PYPI   C1B17593  16.872  13.728   6.219  0.1105 -0.1503  0.0840
 1199PYPI   C2B17594  16.896  13.598   6.553  0.0240 -0.1298  0.0127
 1199PYPI   C3B17595  16.745  13.451   6.929 -0.2252  0.0399  0.1033
 1199PYPI   C4B17596  16.461  13.312   7.281 -0.0343  0.2846  0.2871
 1200PYPI    C117597   7.323  11.596   5.471 -0.2462  0.1058  0.0118
 1200PYPI    C217598   7.289  11.392   5.128  0.0698  0.2244 -0.0938
 1200PYPI    C317599   7.635  11.572   5.221 -0.0010  0.1649  0.3052
 1200PYPI   PO417600   7.042  11.719   5.412  0.2210  0.2658 -0.2506
 1200PYPI   GL117601   6.918  11.950   5.812  0.1540 -0.0339  0.2191
 1200PYPI   GL217602   7.055  11.531   5.974 -0.1547  0.0769  0.1964
 1200PYPI   C1A17603   7.290  12.011   6.076  0.0946 -0.0834 -0.0540
 1200PYPI   C2A17604   7.375  12.159   6.548  0.2401  0.1752 -0.2508
 1200PYPI   D3A17605   7.464  12.212   6.955 -0.1117 -0.2136 -0.2617
 1200PYPI   C4A17606   7.397  12.287   7.429 -0.3926  0.1001  0.1055
 1200PYPI   C1B17607   7.214  11.576   6.462 -0.1729  0.1296 -0.0828
 1200PYPI   C2B17608   7.151  11.573   6.922 -0.1229 -0.0076  0.0370
 1200PYPI   C3B17609   7.254  11.805   7.303  0.0034  0.1157 -0.0269
 1200PYPI   C4B17610   6.926  11.878   7.661  0.3849 -0.0523 -0.1071
 1201PYPI    C117611  15.531   9.709   5.094 -0.1570  0.2236 -0.0198
 1201PYPI    C217612  15.272   9.904   4.860 -0.0448  0.1499 -0.2072
 1201PYPI    C317613  15.502   9.615   4.707 -0.0420  0.0308  0.0172
 1201PYPI   PO417614  15.336   9.652   5.273 -0.1261 -0.0420 -0.0775
 1201PYPI   GL117615  15.245   9.697   5.690  0.0776 -0.0692  0.0780
 1201PYPI   GL217616  15.440   9.955   5.943  0.3179  0.0204  0.2044
 1201PYPI   C1A17617  14.983   9.764   6.104  0.1138 -0.0836  0.0287
 1201PYPI   C2A17618  14.829   9.487   6.382  0.2052 -0.0584 -0.2914
 1201PYPI   D3A17619  14.997   9.442   6.840  0.3744  0.0184  0.1211
 1201PYPI   C4A17620  15.205   9.603   7.224  0.4320 -0.4667  0.0331
 1201PYPI   C1B17621  15.407  10.044   6.319  0.0877 -0.2812 -0.1735
 1201PYPI   C2B17622  15.399  10.361   6.681 -0.0717 -0.1077 -0.1550
 1201PYPI   C3B17623  15.456  10.460   7.082  0.0252 -0.0794 -0.1292
 1201PYPI   C4B17624  15.786  10.449   7.355  0.0951 -0.3473  0.3004
 1202PYPI    C117625   1.926  10.129   5.376 -0.0606  0.2692  0.2007
 1202PYPI    C217626   1.851  10.412   5.103 -0.0386  0.0140 -0.0758
 1202PYPI    C317627   2.214  10.244   5.123 -0.0750 -0.0528  0.0321
 1202PYPI   PO417628   1.723  10.187   5.557  0.0367  0.3304 -0.2212
 1202PYPI   GL117629   1.790  10.041   5.907  0.0315  0.0331 -0.1059
 1202PYPI   GL217630   2.032   9.903   5.890  0.1535  0.0043  0.3841
 1202PYPI   C1A17631   1.907  10.163   6.295  0.2248 -0.2126 -0.0653
 1202PYPI   C2A17632   1.886  10.106   6.702  0.3070  0.1526 -0.2362
 1202PYPI   D3A17633   2.035   9.883   7.044 -0.1457 -0.1348 -0.2245
 1202PYPI   C4A17634   2.173  10.150   7.532  0.1937 -0.0789  0.0192
 1202PYPI   C1B17635   2.152   9.723   6.285  0.0010  0.1526 -0.1206
 1202PYPI   C2B17636   2.058   9.502   6.720 -0.0591  0.1573  0.0020
 1202PYPI   C3B17637   2.075   9.232   7.044  0.0159 -0.0990 -0.0844
 1202PYPI   C4B17638   1.880   9.129   7.401  0.0848 -0.0393 -0.3701
 1203PYPI    C117639   2.907   7.391   5.236  0.0049 -0.2073 -0.1733
 1203PYPI    C217640   2.934   7.639   4.924  0.0144  0.2197  0.1578
 1203PYPI    C317641   2.607   7.415   4.973  0.0383  0.1031 -0.1867
 1203PYPI   PO417642   3.030   7.541   5.432  0.1326 -0.2504 -0.0879
 1203PYPI   GL117643   3.367   7.527   5.699  0.0354  0.0414 -0.0777
 1203PYPI   GL217644   3.362   7.849   5.687  0.0917 -0.0758 -0.0800
 1203PYPI   C1A17645   3.425   7.693   6.189 -0.1518  0.1093 -0.2244
 1203PYPI   C2A17646   3.538   7.639   6.606  0.1087  0.1467  0.0267
 1203PYPI   D3A17647   3.488   7.651   6.974 -0.1244 -0.1009  0.3367
 1203PYPI   C4A17648   3.526   7.552   7.340 -0.3342  0.0304 -0.1567
 1203PYPI   C1B17649   3.079   7.950   5.987  0.0302  0.0334  0.0017
 1203PYPI   C2B17650   3.046   8.102   6.411  0.1873  0.0542  0.1535
 1203PYPI   C3B17651   2.748   8.302   6.642 -0.1148  0.2936 -0.0511
 1203PYPI   C4B17652   2.550   8.314   7.094  0.1691 -0.2498  0.1152
 1204PYPI    C117653  18.312   9.933   5.389 -0.0712  0.0979 -0.0195
 1204PYPI    C217654  18.044  10.014   5.102 -0.0139  0.0926 -0.0748
 1204PYPI    C317655  18.421   9.921   5.004 -0.0254 -0.0320 -0.0029
 1204PYPI   PO417656  18.280  10.180   5.528  0.3459  0.2779  0.1033
 1204PYPI   GL117657  18.275  10.388   5.952 -0.3120 -0.1160  0.1994
 1204PYPI   GL217658  18.431  10.124   6.135 -0.4100  0.0880 -0.1661
 1204PYPI   C1A17659  17.947  10.189   6.226  0.0853 -0.1182  0.3939
 1204PYPI   C2A17660  17.813   9.946   6.580  0.2312  0.3295 -0.1740
 1204PYPI   D3A17661  17.755   9.870   7.000  0.0347 -0.0861 -0.2460
 1204PYPI   C4A17662  17.709  10.038   7.440  0.0983  0.0966 -0.1150
 1204PYPI   C1B17663  18.315  10.269   6.514 -0.1706  0.2703  0.2153
 1204PYPI   C2B17664  18.303  10.190   6.851 -0.2428  0.0941  0.1838
 1204PYPI   C3B17665  18.321  10.129   7.329  0.0771 -0.0088  0.0734
 1204PYPI   C4B17666  18.247  10.368   7.600 -0.0291  0.0834  0.2302
 1205PYPI    C117667  14.661  14.146   5.859  0.1027 -0.0576 -0.0715
 1205PYPI    C217668  14.355  14.144   5.602  0.0421  0.0542 -0.0007
 1205PYPI    C317669  14.595  14.463   5.625  0.1522 -0.0251 -0.0418
 1205PYPI   PO417670  14.661  14.150   6.108  0.0792 -0.1619 -0.2746
 1205PYPI   GL117671  14.871  14.419   6.371  0.0996 -0.0698  0.0990
 1205PYPI   GL217672  15.108  14.530   6.500 -0.0683 -0.0911  0.2448
 1205PYPI   C1A17673  14.769  14.087   6.718  0.0038 -0.3002  0.0683
 1205PYPI   C2A17674  14.983  13.677   6.940 -0.2426  0.2753  0.2863
 1205PYPI   D3A17675  15.144  13.695   7.319  0.1907 -0.2270 -0.0936
 1205PYPI   C4A17676  15.556  13.685   7.530 -0.0388  0.2231  0.1669
 1205PYPI   C1B17677  15.160  14.477   6.986 -0.1836 -0.4992  0.0020
 1205PYPI   C2B17678  14.912  14.128   7.162 -0.3194 -0.3866 -0.2364
 1205PYPI   C3B17679  14.676  13.948   7.526  0.0701 -0.0082 -0.0266
 1205PYPI   C4B17680  14.490  14.021   8.007  0.2997 -0.0192  0.3928
 1206PYPI    C117681   0.520  14.762   5.670  0.0552  0.0015 -0.0136
 1206PYPI    C217682   0.201  14.599   5.492  0.1380 -0.5356  0.3054
 1206PYPI    C317683   0.567  14.536   5.343  0.1097  0.0694 -0.0528
 1206PYPI   PO417684   0.487  14.776   6.057 -0.0950  0.2870 -0.0872
 1206PYPI   GL117685   0.494  14.963   6.505  0.0735  0.1136  0.2129
 1206PYPI   GL217686   0.182  14.855   6.468 -0.0190  0.0177  0.2342
 1206PYPI   C1A17687   0.653  15.117   6.877  0.0036  0.1542  0.0944
 1206PYPI   C2A17688   0.800  15.093   7.308  0.2827  0.1205 -0.1788
 1206PYPI   D3A17689   0.926  15.120   7.729 -0.1051 -0.1123  0.0528
 1206PYPI   C4A17690   0.674  15.179   8.169 -0.1158  0.0422 -0.1052
 1206PYPI   C1B17691   0.175  14.877   6.883  0.4267  0.0443  0.2264
 1206PYPI   C2B17692   0.304  15.096   7.245 -0.0056  0.2151 -0.3507
 1206PYPI   C3B17693   0.326  15.059   7.651 -0.2196 -0.3330 -0.0161
 1206PYPI   C4B17694   0.138  15.167   8.089 -0.0473 -0.3032  0.0236
 1207PYPI    C117695   6.272   7.990   5.029  0.3350 -0.2282  0.0925
 1207PYPI    C217696   6.194   7.675   4.795 -0.0726 -0.2137  0.2009
 1207PYPI    C317697   6.369   8.000   4.641 -0.0832 -0.3104 -0.0193
 1207PYPI   PO417698   6.081   8.164   5.175  0.0413  0.0444  0.0026
 1207PYPI   GL117699   6.172   8.262   5.554 -0.0984  0.0053 -0.1233
 1207PYPI   GL217700   6.394   7.937   5.545 -0.2012  0.1121  0.1240
 1207PYPI   C1A17701   6.345   8.406   5.892  0.0141 -0.1812  0.0822
 1207PYPI   C2A17702   6.435   8.148   6.231  0.0579 -0.1831 -0.1580
 1207PYPI   D3A17703   6.566   8.075   6.534 -0.1964 -0.0725  0.1200
 1207PYPI   C4A17704   6.487   8.014   6.949 -0.1120 -0.0868 -0.1981
 1207PYPI   C1B17705   6.456   7.615   5.847 -0.0375  0.2026  0.0161
 1207PYPI   C2B17706   6.207   7.528   6.235 -0.4769  0.1532  0.2151
 1207PYPI   C3B17707   6.248   7.636   6.632 -0.0963  0.2251  0.0569
 1207PYPI   C4B17708   6.351   7.505   7.074  0.0613  0.1349  0.0276
 1208PYPI    C117709   9.112  10.278   5.169  0.2398  0.1218  0.0358
 1208PYPI    C217710   9.410  10.458   4.974  0.2022 -0.1192 -0.2505
 1208PYPI    C317711   9.032  10.505   4.850  0.1347  0.0526  0.0121
 1208PYPI   PO417712   9.240  10.108   5.394  0.3254 -0.0885 -0.2301
 1208PYPI   GL117713   9.221  10.257   5.836 -0.4007  0.0303  0.4032
 1208PYPI   GL217714   8.969   9.951   5.755  0.0453 -0.0107 -0.4258
 1208PYPI   C1A17715   9.182  10.312   6.214  0.0813 -0.0658 -0.1263
 1208PYPI   C2A17716   8.983  10.103   6.512  0.0334  0.1170 -0.2472
 1208PYPI   D3A17717   8.799   9.737   6.703  0.0835 -0.1215  0.3806
 1208PYPI   C4A17718   8.848   9.853   7.183  0.0893  0.0656 -0.2667
 1208PYPI   C1B17719   8.902   9.712   6.196  0.1148 -0.1131  0.0316
 1208PYPI   C2B17720   8.920   9.390   6.413  0.2480 -0.1637 -0.0052
 1208PYPI   C3B17721   8.882   9.106   6.814 -0.2116 -0.0086  0.2939
 1208PYPI   C4B17722   8.623   8.936   6.995 -0.0436  0.1154 -0.0238
 1209PYPI    C117723  13.989   6.111   5.172  0.0470  0.0102  0.0757
 1209PYPI    C217724  14.338   6.221   5.010 -0.1170  0.2951 -0.0951
 1209PYPI    C317725  14.056   6.053   4.782 -0.0765  0.0187  0.0527
 1209PYPI   PO417726  14.120   6.004   5.392  0.1023 -0.0671 -0.2001
 1209PYPI   GL117727  14.353   6.218   5.751  0.0083 -0.0530 -0.1380
 1209PYPI   GL217728  14.579   6.007   5.852  0.0238  0.1456 -0.1009
 1209PYPI   C1A17729  14.125   6.277   6.195  0.2534 -0.1296 -0.2210
 1209PYPI   C2A17730  14.202   6.288   6.626  0.2107  0.1205  0.4418
 1209PYPI   D3A17731  14.413   6.122   7.029 -0.0941 -0.0616 -0.0310
 1209PYPI   C4A17732  14.311   6.128   7.451  0.0271 -0.1242  0.0098
 1209PYPI   C1B17733  14.926   6.121   5.992 -0.0610  0.2033 -0.4119
 1209PYPI   C2B17734  15.213   6.150   6.285  0.0412 -0.0640  0.0068
 1209PYPI   C3B17735  15.349   6.214   6.619 -0.1407 -0.3123 -0.0317
 1209PYPI   C4B17736  15.372   6.358   6.912 -0.1767  0.2153  0.0895
 1210PYPI    C117737   2.188   4.872   5.025 -0.3885 -0.0388 -0.3180
 1210PYPI    C217738   2.489   5.108   4.910 -0.1216 -0.0976  0.2297
 1210PYPI    C317739   2.458   4.738   4.764 -0.0100 -0.0428  0.0650
 1210PYPI   PO417740   2.178   4.963   5.379 -0.2924 -0.1655  0.2649
 1210PYPI   GL117741   2.379   4.811   5.701  0.1073 -0.0056  0.2207
 1210PYPI   GL217742   2.789   4.833   5.786 -0.0082 -0.2631 -0.0139
 1210PYPI   C1A17743   2.345   4.708   6.105 -0.0201 -0.2540 -0.3318
 1210PYPI   C2A17744   2.120   4.676   6.511 -0.2045  0.1548  0.3034
 1210PYPI   D3A17745   1.901   4.775   6.955 -0.0073 -0.3261 -0.0420
 1210PYPI   C4A17746   1.983   4.881   7.330  0.1108 -0.3223 -0.0353
 1210PYPI   C1B17747   2.848   4.852   6.181  0.0299  0.2990 -0.0167
 1210PYPI   C2B17748   2.629   4.624   6.561  0.1161  0.1987 -0.1511
 1210PYPI   C3B17749   2.533   4.697   6.963 -0.3869  0.3329  0.3003
 1210PYPI   C4B17750   2.705   4.835   7.302 -0.1015  0.0223 -0.1020
 1211PYPI    C117751   2.984  16.486   5.799 -0.1244 -0.1488 -0.2140
 1211PYPI    C217752   3.047  16.171   6.037  0.2388 -0.0011 -0.1083
 1211PYPI    C317753   2.914  16.116   5.664 -0.1133 -0.2488  0.0488
 1211PYPI   PO417754   3.254  16.609   5.791  0.1894  0.2512  0.0868
 1211PYPI   GL117755   3.594  16.751   6.024  0.3247 -0.1265 -0.3134
 1211PYPI   GL217756   3.711  17.018   6.167 -0.0503  0.1013 -0.1321
 1211PYPI   C1A17757   3.849  16.569   6.375  0.1272  0.0966  0.0467
 1211PYPI   C2A17758   4.150  16.525   6.641  0.0587  0.0037 -0.2111
 1211PYPI   D3A17759   4.298  16.411   7.058 -0.1872  0.2579  0.1402
 1211PYPI   C4A17760   4.305  16.814   7.218 -0.0469 -0.2235 -0.0330
 1211PYPI   C1B17761   3.484  17.219   6.491 -0.2643 -0.1530  0.0816
 1211PYPI   C2B17762   3.474  17.242   6.950 -0.0485 -0.1414  0.0205
 1211PYPI   C3B17763   3.709  17.173   7.245  0.0652 -0.1401  0.3058
 1211PYPI   C4B17764   3.951  16.996   7.603 -0.0911  0.3094 -0.1074
 1212PYPI    C117765  11.051   7.420   5.864  0.0491 -0.1677  0.0401
 1212PYPI    C217766  10.907   7.555   5.516  0.1085  0.1227  0.1252
 1212PYPI    C317767  10.771   7.705   5.861 -0.0932 -0.3031  0.2382
 1212PYPI   PO417768  11.079   7.202   5.866  0.0433 -0.1299 -0.1676
 1212PYPI   GL117769  11.043   6.940   6.131  0.1464 -0.1278  0.0303
 1212PYPI   GL217770  10.909   6.687   6.209  0.1513 -0.0201  0.2013
 1212PYPI   C1A17771  11.221   7.102   6.475  0.2497 -0.2314 -0.1679
 1212PYPI   C2A17772  11.326   7.030   6.851  0.1676  0.0346  0.1833
 1212PYPI   D3A17773  11.696   6.961   7.071 -0.1170 -0.0584 -0.1009
 1212PYPI   C4A17774  11.768   6.950   7.520  0.2551 -0.2087 -0.1119
 1212PYPI   C1B17775  10.887   6.688   6.591 -0.0265 -0.3739  0.2169
 1212PYPI   C2B17776  10.960   6.688   6.955 -0.0708  0.2875  0.0412
 1212PYPI   C3B17777  11.184   6.874   7.302 -0.0906  0.1202  0.0100
 1212PYPI   C4B17778  11.275   6.923   7.753  0.0346 -0.2561 -0.1273
 1213PYPI    C117779  12.989  11.723   5.015 -0.1352  0.2618 -0.3761
 1213PYPI    C217780  13.355  11.779   4.863 -0.0105  0.3927 -0.0375
 1213PYPI    C317781  13.034  11.927   4.674  0.1123  0.3104 -0.3159
 1213PYPI   PO417782  12.962  11.554   5.256 -0.0147  0.2662 -0.0325
 1213PYPI   GL117783  12.673  11.300   5.621 -0.0594 -0.2766 -0.0663
 1213PYPI   GL217784  12.793  11.003   5.620 -0.0132  0.3033  0.2335
 1213PYPI   C1A17785  12.869  11.422   6.023  0.0283  0.1977  0.2762
 1213PYPI   C2A17786  13.093  11.203   6.351  0.2097  0.1773 -0.0929
 1213PYPI   D3A17787  13.224  10.891   6.770 -0.0487 -0.1451 -0.1701
 1213PYPI   C4A17788  13.238  10.924   7.282  0.0090 -0.0177  0.1921
 1213PYPI   C1B17789  12.844  10.903   6.049  0.0661 -0.2325 -0.2725
 1213PYPI   C2B17790  12.939  10.699   6.460 -0.2688  0.0326 -0.1838
 1213PYPI   C3B17791  13.042  10.415   6.875  0.0444  0.1937  0.0899
 1213PYPI   C4B17792  13.405  10.431   7.078 -0.1145  0.2093  0.2731
 1214ERGO   ROH17793   4.134  12.910   6.114  0.0794  0.2203  0.0146
 1214ERGO    R117794   4.112  12.820   6.381 -0.0102  0.2708  0.0261
 1214ERGO    R217795   4.332  12.779   6.544 -0.0396  0.0383  0.0251
 1214ERGO    R317796   4.198  12.946   6.711  0.1508  0.2125  0.0041
 1214ERGO    R417797   4.349  12.769   6.889 -0.1626 -0.0103  0.0292
 1214ERGO    R517798   4.135  12.808   6.896 -0.1029  0.2938 -0.0282
 1214ERGO    C117799   4.233  12.921   7.247 -0.0554  0.1248  0.0119
 1214ERGO    C217800   4.109  12.898   7.636  0.1152 -0.4175  0.0581
 1215ERGO   ROH17801  12.917  17.827   6.455 -0.0590  0.0445  0.1403
 1215ERGO    R117802  12.860  17.983   6.684 -0.1725 -0.0703  0.1906
 1215ERGO    R217803  12.647  17.928   6.852 -0.0938 -0.3183  0.2083
 1215ERGO    R317804  12.841  17.927   7.044 -0.0642 -0.1834  0.1806
 1215ERGO    R417805  12.589  17.964   7.191 -0.0772 -0.3629  0.2163
 1215ERGO    R517806  12.767  18.090   7.203 -0.1617 -0.2343  0.1923
 1215ERGO    C117807  12.737  17.984   7.568 -0.0399 -0.2625  0.1950
 1215ERGO    C217808  12.688  18.118   7.779  0.1398  0.1026 -0.1711
 1216ERGO   ROH17809   1.097  11.344   5.907 -0.0599  0.2665  0.2118
 1216ERGO    R117810   0.937  11.305   6.137 -0.0811  0.0885  0.1691
 1216ERGO    R217811   1.031  11.176   6.363 -0.0443  0.0669  0.1456
 1216ERGO    R317812   0.949  11.404   6.487 -0.2074 -0.0232  0.2050
 1216ERGO    R417813   1.030  11.226   6.705 -0.0879 -0.0206  0.1579
 1216ERGO    R517814   0.839  11.328   6.685 -0.1574 -0.1509  0.1822
 1216ERGO    C117815   0.953  11.469   7.020 -0.2663 -0.1562  0.2208
 1216ERGO    C217816   1.132  11.488   7.377  0.2657 -0.1134 -0.1611
 1217ERGO   ROH17817  12.897  16.034   6.428 -0.1050 -0.1299 -0.0506
 1217ERGO    R117818  12.866  15.994   6.707 -0.1443 -0.1256 -0.0545
 1217ERGO    R217819  12.646  15.865   6.815 -0.1064 -0.2212 -0.0928
 1217ERGO    R317820  12.835  15.708   6.930 -0.0571 -0.1250 -0.0410
 1217ERGO    R417821  12.611  15.703   7.118 -0.1224 -0.2653 -0.1179
 1217ERGO    R517822  12.817  15.755   7.164 -0.1649 -0.1528 -0.0422
 1217ERGO    C117823  12.769  15.462   7.403 -0.0853 -0.2007 -0.0838
 1217ERGO    C217824  12.768  15.181   7.545 -0.1160 -0.1119 -0.0079
 1218ERGO   ROH17825   4.943  14.744   5.881  0.0112 -0.2880 -0.2500
 1218ERGO    R117826   4.824  14.805   6.131  0.2538 -0.0664 -0.1838
 1218ERGO    R217827   4.660  14.627   6.264 -0.0492  0.2482 -0.1228
 1218ERGO    R317828   4.835  14.669   6.468  0.1463 -0.1258 -0.2033
 1218ERGO    R417829   4.579  14.611   6.600  0.0354  0.5366 -0.0862
 1218ERGO    R517830   4.706  14.785   6.634  0.4879  0.2442 -0.1801
 1218ERGO    C117831   4.696  14.642   6.987  0.2681  0.3534 -0.1404
 1218ERGO    C217832   4.701  14.673   7.309  0.1845 -0.1185  0.0094
 1219ERGO   ROH17833   1.216  17.225   6.184 -0.1475 -0.0891 -0.0068
 1219ERGO    R117834   1.126  17.040   6.379 -0.1678 -0.0548  0.0173
 1219ERGO    R217835   1.207  16.776   6.382 -0.1053 -0.0393  0.1191
 1219ERGO    R317836   1.278  16.835   6.638 -0.2009  0.0561  0.1238
 1219ERGO    R417837   1.235  16.544   6.637  0.0663  0.0216  0.1567
 1219ERGO    R517838   1.143  16.689   6.772 -0.0867 -0.0482  0.1210
 1219ERGO    C117839   1.318  16.464   7.025  0.0766  0.1466  0.1830
 1219ERGO    C217840   1.242  16.339   7.295  0.2436 -0.0990  0.0492
 1220ERGO   ROH17841  11.283   6.627   5.829  0.0075  0.2275  0.0136
 1220ERGO    R117842  11.305   6.527   6.093 -0.0602  0.2075  0.0121
 1220ERGO    R217843  11.549   6.493   6.220 -0.0712 -0.0972 -0.0399
 1220ERGO    R317844  11.434   6.648   6.411  0.1651  0.0577 -0.0207
 1220ERGO    R417845  11.551   6.423   6.558 -0.1204 -0.1063 -0.0414
 1220ERGO    R517846  11.345   6.492   6.569 -0.0278  0.1758 -0.0115
 1220ERGO    C117847  11.446   6.529   6.935  0.0727  0.0338 -0.0242
 1220ERGO    C217848  11.652   6.454   7.151  0.3369  0.2329 -0.4064
 1221ERGO   ROH17849   6.467  14.371   6.085 -0.2666 -0.0791  0.0162
 1221ERGO    R117850   6.363  14.418   6.345 -0.1378 -0.0514  0.0637
 1221ERGO    R217851   6.124  14.308   6.431 -0.1418  0.0342  0.1616
 1221ERGO    R317852   6.278  14.216   6.635 -0.0879 -0.0321  0.0918
 1221ERGO    R417853   6.005  14.211   6.740 -0.0641 -0.0982  0.1511
 1221ERGO    R517854   6.177  14.308   6.832 -0.0526 -0.1183  0.1507
 1221ERGO    C117855   6.080  14.069   7.112  0.0318 -0.2376  0.0795
 1221ERGO    C217856   6.139  13.917   7.346  0.0003  0.0869  0.2791
 1222ERGO   ROH17857   9.281  13.397   6.349 -0.0606 -0.5365 -0.0432
 1222ERGO    R117858   9.302  13.303   6.615 -0.1940 -0.3232  0.0455
 1222ERGO    R217859   9.372  13.468   6.825 -0.0557 -0.2035 -0.0889
 1222ERGO    R317860   9.141  13.374   6.934 -0.1700  0.1266 -0.0364
 1222ERGO    R417861   9.303  13.458   7.164 -0.0517  0.0068 -0.0808
 1222ERGO    R517862   9.210  13.263   7.134 -0.3006  0.1114 -0.0013
 1222ERGO    C117863   9.045  13.364   7.463 -0.1568  0.4391 -0.0267
 1222ERGO    C217864   8.909  13.504   7.724  0.0972 -0.2559 -0.0531
 1223ERGO   ROH17865  13.942  12.010   6.070 -0.0887  0.0973 -0.0382
 1223ERGO    R117866  13.937  12.007   6.353  0.0107  0.1857 -0.0339
 1223ERGO    R217867  13.960  12.236   6.505 -0.1697  0.2638 -0.1167
 1223ERGO    R317868  13.727  12.148   6.616 -0.0457  0.0628 -0.0131
 1223ERGO    R417869  13.858  12.302   6.829 -0.0789  0.1643 -0.0681
 1223ERGO    R517870  13.786  12.096   6.842  0.1009  0.1029 -0.0418
 1223ERGO    C117871  13.581  12.257   7.121  0.0904 -0.0823  0.0575
 1223ERGO    C217872  13.576  12.270   7.495 -0.4520 -0.1443 -0.0635
 1224ERGO   ROH17873   1.542  10.509   5.952  0.0069  0.0085 -0.0055
 1224ERGO    R117874   1.408  10.445   6.193 -0.0301 -0.1877 -0.0761
 1224ERGO    R217875   1.392  10.187   6.292  0.3674 -0.2051 -0.0435
 1224ERGO    R317876   1.496  10.301   6.515  0.0346  0.0237  0.0023
 1224ERGO    R417877   1.344  10.071   6.613  0.4363 -0.2778 -0.0590
 1224ERGO    R517878   1.324  10.277   6.680 -0.0066 -0.3043 -0.0817
 1224ERGO    C117879   1.414  10.110   7.011  0.1640 -0.1052 -0.0251
 1224ERGO    C217880   1.526  10.022   7.289  0.0348  0.1776  0.2000
 1225ERGO   ROH17881   4.672   7.147   6.026 -0.2961 -0.2687  0.0229
 1225ERGO    R117882   4.825   7.057   6.246 -0.2079 -0.1374  0.0160
 1225ERGO    R217883   4.878   7.216   6.466 -0.2288 -0.0498 -0.0440
 1225ERGO    R317884   4.771   7.007   6.603 -0.1066 -0.0569  0.0433
 1225ERGO    R417885   4.958   7.132   6.791 -0.3825  0.3026  0.0894
 1225ERGO    R517886   4.953   6.922   6.733 -0.1089  0.2454  0.2543
 1225ERGO    C117887   4.904   6.887   7.110 -0.3573  0.5010  0.2490
 1225ERGO    C217888   4.829   6.746   7.383  0.1368  0.1045  0.0704
 1226ERGO   ROH17889   5.235   8.131   6.048  0.2428 -0.1696  0.0481
 1226ERGO    R117890   5.233   8.042   6.317  0.2873 -0.1411  0.0599
 1226ERGO    R217891   5.464   8.006   6.464  0.3079  0.0353  0.0843
 1226ERGO    R317892   5.339   8.172   6.640  0.1781 -0.0269  0.0489
 1226ERGO    R417893   5.514   8.004   6.806  0.1985  0.0535  0.0992
 1226ERGO    R517894   5.300   8.034   6.832  0.1801 -0.0450  0.0322
 1226ERGO    C117895   5.426   8.159   7.170  0.0129  0.0058  0.0746
 1226ERGO    C217896   5.485   8.386   7.557 -0.1283  0.2265 -0.0472
 1227ERGO   ROH17897   0.192   6.830   5.945 -0.3416 -0.1093 -0.0094
 1227ERGO    R117898   0.139   6.776   6.218 -0.0460  0.0925  0.0912
 1227ERGO    R217899   0.165   6.524   6.327 -0.3134  0.0941  0.1475
 1227ERGO    R317900   0.327   6.652   6.504  0.1593 -0.1031 -0.1212
 1227ERGO    R417901   0.311   6.376   6.603 -0.4634  0.0111  0.1842
 1227ERGO    R517902   0.268   6.558   6.716  0.0773  0.2628  0.0333
 1227ERGO    C117903   0.548   6.410   6.930 -0.1069 -0.2224 -0.0466
 1227ERGO    C217904   0.510   6.285   7.395  0.0026 -0.1884 -0.0264
 1228ERGO   ROH17905   2.642   0.490   6.246  0.0947  0.1310 -0.1114
 1228ERGO    R117906   2.616   0.689   6.445  0.0113  0.1277 -0.1211
 1228ERGO    R217907   2.388   0.843   6.471 -0.0337  0.0547 -0.1525
 1228ERGO    R317908   2.395   0.753   6.728 -0.0384  0.0725 -0.1446
 1228ERGO    R417909   2.228   0.995   6.737  0.0871  0.1736 -0.1448
 1228ERGO    R517910   2.404   0.953   6.860  0.0919  0.0889 -0.1668
 1228ERGO    C117911   2.140   0.999   7.133  0.1530  0.2596 -0.1328
 1228ERGO    C217912   2.186   0.950   7.486 -0.0264 -0.1140  0.0848
 1229ERGO   ROH17913  10.954   3.365   5.675 -0.0571 -0.2045 -0.0315
 1229ERGO    R117914  10.916   3.485   5.928  0.0105 -0.1102 -0.0652
 1229ERGO    R217915  10.667   3.515   6.043  0.0497 -0.1607  0.0358
 1229ERGO    R317916  10.783   3.384   6.251  0.1972 -0.0254  0.0399
 1229ERGO    R417917  10.618   3.591   6.377  0.0886 -0.1046  0.0285
 1229ERGO    R517918  10.830   3.556   6.411  0.1229  0.0505 -0.0196
 1229ERGO    C117919  10.698   3.513   6.766  0.2497  0.0550  0.0281
 1229ERGO    C217920  10.539   3.677   6.952 -0.0519 -0.5520  0.1253
 1230ERGO   ROH17921   7.783   4.025   5.689 -0.0272 -0.1210  0.1256
 1230ERGO    R117922   7.635   4.006   5.930 -0.0529 -0.0162  0.1184
 1230ERGO    R217923   7.601   3.767   6.065 -0.1592  0.0228  0.1607
 1230ERGO    R317924   7.702   3.909   6.274 -0.1178  0.0215  0.1419
 1230ERGO    R417925   7.632   3.648   6.388 -0.2093  0.0618  0.1803
 1230ERGO    R517926   7.568   3.843   6.461 -0.1461  0.0953  0.1483
 1230ERGO    C117927   7.745   3.711   6.772 -0.1996  0.0831  0.1739
 1230ERGO    C217928   7.780   3.641   7.128  0.2837  0.0512 -0.0446
 1231ERGO   ROH17929  15.128  16.979   6.247  0.0005 -0.2150 -0.0196
 1231ERGO    R117930  15.274  17.015   6.487 -0.0919 -0.2116  0.0368
 1231ERGO    R217931  15.200  17.197   6.680 -0.0800 -0.0971 -0.0657
 1231ERGO    R317932  15.211  16.980   6.843 -0.2819 -0.0445  0.0212
 1231ERGO    R417933  15.316  17.201   7.006  0.1345 -0.1143 -0.1398
 1231ERGO    R517934  15.414  17.010   6.968 -0.1564 -0.2726 -0.1216
 1231ERGO    C117935  15.393  16.999   7.349  0.0698 -0.0750 -0.1013
 1231ERGO    C217936  15.359  17.026   7.676  0.1581  0.2749 -0.2323
 1232ERGO   ROH17937   3.691  14.690   5.994  0.1677  0.2126  0.1425
 1232ERGO    R117938   3.715  14.792   6.257  0.0881  0.1060  0.1921
 1232ERGO    R217939   3.499  14.815   6.429  0.0395  0.0197  0.1429
 1232ERGO    R317940   3.657  14.669   6.595  0.0037 -0.0376  0.1265
 1232ERGO    R417941   3.481  14.821   6.774 -0.0804 -0.1457  0.1401
 1232ERGO    R517942   3.699  14.814   6.781 -0.0804 -0.1180  0.2106
 1232ERGO    C117943   3.618  14.687   7.131 -0.1839 -0.2956  0.1231
 1232ERGO    C217944   3.720  14.714   7.437  0.1176 -0.1059 -0.3793
 1233ERGO   ROH17945  11.737  18.318   6.555  0.0902 -0.0268 -0.0586
 1233ERGO    R117946  11.787  18.304   6.833  0.0700 -0.0490 -0.0553
 1233ERGO    R217947  11.711  18.505   7.007  0.1810  0.0017 -0.0617
 1233ERGO    R317948  11.587  18.302   7.137  0.0535  0.0783 -0.0647
 1233ERGO    R417949  11.664  18.489   7.349  0.2830 -0.0287 -0.0497
 1233ERGO    R517950  11.711  18.276   7.341  0.1017 -0.0676 -0.1113
 1233ERGO    C117951  11.520  18.289   7.671  0.2226  0.0256 -0.0456
 1233ERGO    C217952  11.362  18.206   7.982  0.3894 -0.0487 -0.0128
 1234ERGO   ROH17953  10.070   0.500   6.094  0.1453 -0.0468 -0.0673
 1234ERGO    R117954   9.981   0.507   6.362  0.0710  0.0055 -0.0939
 1234ERGO    R217955  10.154   0.532   6.576  0.0130  0.0060 -0.0518
 1234ERGO    R317956   9.993   0.742   6.639  0.0303  0.0411 -0.1207
 1234ERGO    R417957  10.142   0.685   6.886  0.1516  0.2106 -0.1450
 1234ERGO    R517958   9.926   0.699   6.865  0.1368  0.1845 -0.0564
 1234ERGO    C117959   9.985   0.971   7.125  0.2486  0.3626 -0.2639
 1234ERGO    C217960  10.150   0.994   7.459 -0.0692  0.5323  0.1598
 1235ERGO   ROH17961   5.403   1.090   6.246  0.3494  0.4297  0.2656
 1235ERGO    R117962   5.211   1.131   6.450  0.0513  0.0141  0.0855
 1235ERGO    R217963   5.140   0.933   6.628  0.3647 -0.1364  0.0674
 1235ERGO    R317964   5.206   1.120   6.814 -0.2449  0.0833  0.0823
 1235ERGO    R417965   5.100   0.896   6.970  0.6393 -0.3580  0.0779
 1235ERGO    R517966   5.034   1.103   6.979 -0.1277 -0.5863  0.1518
 1235ERGO    C117967   5.138   1.050   7.342  0.2269 -0.2808  0.0981
 1235ERGO    C217968   5.227   1.156   7.681  0.1712 -0.0025  0.1499
 1236ERGO   ROH17969  12.387   5.874   5.674  0.1446  0.3459 -0.0544
 1236ERGO    R117970  12.291   5.797   5.929  0.2009  0.0162 -0.1293
 1236ERGO    R217971  12.452   5.677   6.119  0.4057  0.3392 -0.0988
 1236ERGO    R317972  12.363   5.881   6.275 -0.1760  0.0752 -0.0591
 1236ERGO    R417973  12.398   5.657   6.460  0.5532  0.1307 -0.0857
 1236ERGO    R517974  12.218   5.776   6.434  0.1661 -0.3946 -0.0297
 1236ERGO    C117975  12.283   5.836   6.805  0.0929 -0.2384 -0.0409
 1236ERGO    C217976  12.355   5.767   7.158  0.1527 -0.2244  0.0205
 1237ERGO   ROH17977  13.788   1.209   6.416  0.1551 -0.0315  0.1960
 1237ERGO    R117978  13.761   1.029   6.633  0.0778 -0.1651  0.0766
 1237ERGO    R217979  13.556   1.050   6.818  0.1180 -0.1685  0.1173
 1237ERGO    R317980  13.511   0.791   6.748 -0.0496 -0.0967 -0.0516
 1237ERGO    R417981  13.296   0.855   6.936  0.1012 -0.1312  0.1434
 1237ERGO    R517982  13.434   0.687   6.950  0.0342 -0.2109 -0.0744
 1237ERGO    C117983  13.102   0.499   6.940 -0.0658 -0.0420  0.0001
 1237ERGO    C217984  12.752   0.376   6.979  0.2081 -0.0447 -0.0272
 1238ERGO   ROH17985   3.685   6.177   6.213 -0.4427 -0.3257 -0.1966
 1238ERGO    R117986   3.776   6.208   6.479 -0.0834 -0.2751 -0.3207
 1238ERGO    R217987   3.612   6.171   6.698  0.0771  0.2317 -0.1034
 1238ERGO    R317988   3.807   5.999   6.775 -0.1699 -0.0917 -0.1782
 1238ERGO    R417989   3.662   6.059   7.021  0.0165  0.1559 -0.1194
 1238ERGO    R517990   3.876   6.077   6.990  0.0437 -0.1948 -0.2038
 1238ERGO    C117991   3.874   5.831   7.281 -0.2506 -0.1918 -0.1990
 1238ERGO    C217992   3.999   5.473   7.487 -0.0784 -0.0245  0.1632
 1239ERGO   ROH17993   5.551  17.637   5.900 -0.0471  0.1697  0.0394
 1239ERGO    R117994   5.390  17.603   6.129 -0.0363 -0.0193  0.0206
 1239ERGO    R217995   5.412  17.383   6.296  0.0924 -0.0719 -0.0625
 1239ERGO    R317996   5.443  17.573   6.488 -0.0316 -0.1253  0.0110
 1239ERGO    R417997   5.464  17.318   6.631  0.0322 -0.1635 -0.0710
 1239ERGO    R517998   5.330  17.483   6.679 -0.0444 -0.2337 -0.0483
 1239ERGO    C117999   5.523  17.457   7.007 -0.1191 -0.2669 -0.0067
 1239ERGO    C218000   5.543  17.488   7.355 -0.1003  0.0434  0.3069
 1240ERGO   ROH18001   5.115  11.035   6.135  0.2645  0.3535 -0.1151
 1240ERGO    R118002   5.278  10.987   6.361  0.2058  0.3310 -0.0771
 1240ERGO    R218003   5.322  11.178   6.556 -0.0111  0.2444  0.0611
 1240ERGO    R318004   5.234  10.981   6.722  0.0585  0.0771 -0.0973
 1240ERGO    R418005   5.299  11.205   6.900 -0.1063 -0.0144  0.0773
 1240ERGO    R518006   5.373  11.001   6.916  0.0019  0.0151 -0.0514
 1240ERGO    C118007   5.203  11.036   7.256 -0.0964 -0.3220 -0.0619
 1240ERGO    C218008   4.987  11.048   7.492 -0.1205  0.2187  0.0478
 1241ERGO   ROH18009  13.604   8.005   5.772 -0.3144 -0.1981  0.0882
 1241ERGO    R118010  13.718   8.007   6.031 -0.2234 -0.1216  0.0491
 1241ERGO    R218011  13.937   8.162   6.097 -0.0599 -0.2656 -0.1304
 1241ERGO    R318012  13.773   8.253   6.294  0.0819  0.0117 -0.1368
 1241ERGO    R418013  14.039   8.350   6.368  0.2255 -0.3644 -0.1667
 1241ERGO    R518014  13.904   8.234   6.493  0.0620 -0.1430 -0.1411
 1241ERGO    C118015  13.945   8.544   6.711  0.5249 -0.1616 -0.1938
 1241ERGO    C218016  13.751   8.696   7.057  0.0812 -0.1896 -0.0520
 1242ERGO   ROH18017   0.479   8.346   6.074 -0.1854  0.0966 -0.0922
 1242ERGO    R118018   0.412   8.361   6.349 -0.0839 -0.1349 -0.0488
 1242ERGO    R218019   0.595   8.312   6.549  0.0995  0.0448 -0.1459
 1242ERGO    R318020   0.519   8.558   6.636 -0.2391 -0.1025 -0.0186
 1242ERGO    R418021   0.601   8.414   6.879  0.3870  0.0538 -0.1532
 1242ERGO    R518022   0.410   8.515   6.846  0.1510 -0.3078  0.1379
 1242ERGO    C118023   0.532   8.705   7.153  0.2365 -0.0792 -0.0380
 1242ERGO    C218024   0.623   8.802   7.481  0.1774  0.1708 -0.3354
 1243ERGO   ROH18025  16.543   5.519   5.997 -0.0202  0.0583  0.1999
 1243ERGO    R118026  16.532   5.335   6.211 -0.0289  0.0396  0.1831
 1243ERGO    R218027  16.691   5.356   6.436 -0.1652  0.1235  0.2728
 1243ERGO    R318028  16.453   5.346   6.566 -0.2332 -0.0253  0.1414
 1243ERGO    R418029  16.651   5.400   6.776 -0.3843  0.1164  0.2497
 1243ERGO    R518030  16.504   5.239   6.774 -0.2788  0.0193  0.1759
 1243ERGO    C118031  16.404   5.416   7.097 -0.5758 -0.0274  0.1128
 1243ERGO    C218032  16.454   5.390   7.421 -0.5821 -0.2571  0.2302
 1244ERGO   ROH18033   2.165  17.377   6.333  0.1465 -0.0405  0.0429
 1244ERGO    R118034   2.011  17.416   6.568  0.1648  0.0403  0.0420
 1244ERGO    R218035   2.025  17.245   6.785  0.0434  0.0078  0.0267
 1244ERGO    R318036   2.077  17.475   6.920  0.1955 -0.0389  0.0491
 1244ERGO    R418037   2.035  17.273   7.129  0.1528 -0.0460  0.0285
 1244ERGO    R518038   1.933  17.465   7.112  0.2446  0.0062  0.0867
 1244ERGO    C118039   2.090  17.506   7.457  0.3593 -0.1213  0.0504
 1244ERGO    C218040   2.173  17.294   7.760 -0.2375  0.1357 -0.0411
 1245ERGO   ROH18041   9.253   7.133   6.209 -0.1333  0.1272  0.1083
 1245ERGO    R118042   9.125   7.075   6.454 -0.0150  0.0717  0.1578
 1245ERGO    R218043   9.198   7.194   6.692 -0.0786  0.2225  0.1034
 1245ERGO    R318044   8.934   7.259   6.703 -0.1451 -0.0439  0.1447
 1245ERGO    R418045   9.045   7.356   6.957 -0.1324  0.3561 -0.0084
 1245ERGO    R518046   8.874   7.224   6.933 -0.0055  0.1446  0.2124
 1245ERGO    C118047   8.709   7.511   7.121 -0.2262  0.1838 -0.0347
 1245ERGO    C218048   8.439   7.805   7.211  0.0782  0.4490 -0.4376
 1246ERGO   ROH18049   2.714  16.743   6.141  0.0080 -0.0103 -0.0619
 1246ERGO    R118050   2.687  16.566   6.359 -0.0092  0.0919  0.0205
 1246ERGO    R218051   2.886  16.387   6.431 -0.0962 -0.0215 -0.0085
 1246ERGO    R318052   2.861  16.506   6.674  0.1059  0.0946 -0.0428
 1246ERGO    R418053   3.027  16.270   6.724 -0.1584 -0.0820 -0.0028
 1246ERGO    R518054   2.843  16.324   6.828 -0.0688  0.1701  0.0260
 1246ERGO    C118055   3.086  16.314   7.123 -0.0050 -0.0081 -0.0317
 1246ERGO    C218056   3.131  16.373   7.505 -0.3114  0.0392 -0.0993
 1247ERGO   ROH18057  18.269   5.565   5.867  0.1752  0.0015 -0.0494
 1247ERGO    R118058  18.118   5.629   6.098  0.1467 -0.0524 -0.0526
 1247ERGO    R218059  18.124   5.474   6.327  0.2158 -0.0376 -0.0437
 1247ERGO    R318060  18.189   5.710   6.446  0.1116 -0.0019 -0.0568
 1247ERGO    R418061  18.169   5.517   6.667  0.0055  0.0429 -0.0249
 1247ERGO    R518062  18.065   5.709   6.651 -0.0124  0.0261 -0.1301
 1247ERGO    C118063  18.257   5.763   6.977 -0.2149  0.1234 -0.0262
 1247ERGO    C218064  18.422   5.791   7.418  0.2902  0.0602  0.2304
 1248ERGO   ROH18065   0.487  10.402   6.132 -0.0185  0.1711  0.1755
 1248ERGO    R118066   0.542  10.286   6.384  0.0393 -0.0486  0.0642
 1248ERGO    R218067   0.444  10.391   6.621  0.3609 -0.0591  0.2064
 1248ERGO    R318068   0.349  10.138   6.655  0.0660  0.0373  0.1309
 1248ERGO    R418069   0.363  10.249   6.925  0.3813 -0.1207  0.1834
 1248ERGO    R518070   0.452  10.062   6.857  0.1056 -0.1997  0.0249
 1248ERGO    C118071   0.227   9.929   7.134  0.1164 -0.0661  0.0992
 1248ERGO    C218072   0.253   9.803   7.394 -0.3511 -0.3371 -0.0648
 1249ERGO   ROH18073  14.662  18.310   5.978  0.0895 -0.0538  0.0329
 1249ERGO    R118074  14.726  18.356   6.250  0.1459 -0.0768  0.0233
 1249ERGO    R218075  14.977  18.437   6.333  0.0652  0.2643 -0.0616
 1249ERGO    R318076  14.838  18.638   6.451 -0.1827  0.0091  0.0945
 1249ERGO    R418077  15.095  18.636   6.590 -0.1331  0.2640  0.0316
 1249ERGO    R518078  14.898  18.626   6.682 -0.1077 -0.0574  0.0758
 1249ERGO    C118079  15.033  18.941   6.850 -0.4811  0.0242  0.2324
 1249ERGO    C218080  15.200  19.234   7.026  0.0778 -0.1730  0.1190
 1250ERGO   ROH18081   6.100  16.327   5.715  0.1587 -0.0484 -0.0159
 1250ERGO    R118082   5.931  16.384   5.935  0.2105  0.2471 -0.0470
 1250ERGO    R218083   5.939  16.240   6.171 -0.2479  0.0577 -0.1277
 1250ERGO    R318084   5.973  16.486   6.282  0.3500 -0.0820  0.0349
 1250ERGO    R418085   5.974  16.302   6.509 -0.4838 -0.2146 -0.0510
 1250ERGO    R518086   5.847  16.477   6.485  0.0611  0.1843 -0.1287
 1250ERGO    C118087   6.025  16.568   6.810 -0.0598 -0.5043  0.1463
 1250ERGO    C218088   5.999  16.580   7.129  0.2091  0.0582  0.1623
 1251ERGO   ROH18089   9.055  14.726   6.251 -0.0227 -0.2670  0.1228
 1251ERGO    R118090   8.913  14.807   6.482 -0.0688 -0.1886  0.0665
 1251ERGO    R218091   8.933  14.674   6.724 -0.1056 -0.0967  0.1160
 1251ERGO    R318092   8.997  14.921   6.817 -0.1382 -0.0585  0.0414
 1251ERGO    R418093   8.973  14.753   7.058  0.0145 -0.0264  0.0866
 1251ERGO    R518094   8.870  14.942   7.019 -0.0604 -0.0613  0.0944
 1251ERGO    C118095   9.055  15.032   7.340  0.0540  0.0504 -0.0006
 1251ERGO    C218096   9.307  14.951   7.608  0.2634 -0.0870  0.2123
 1252ERGO   ROH18097  13.707  13.981   6.213 -0.2442  0.0462 -0.1237
 1252ERGO    R118098  13.661  13.815   6.438 -0.1590  0.1249 -0.0476
 1252ERGO    R218099  13.864  13.674   6.562 -0.1086  0.1877 -0.0612
 1252ERGO    R318100  13.773  13.801   6.784 -0.0472  0.2604 -0.0769
 1252ERGO    R418101  13.922  13.571   6.887 -0.2117  0.1627 -0.0498
 1252ERGO    R518102  13.716  13.625   6.935 -0.1828  0.3037 -0.0744
 1252ERGO    C118103  13.870  13.632   7.284 -0.2142  0.2164 -0.0581
 1252ERGO    C218104  13.717  13.641   7.612 -0.0533 -0.3642  0.0309
 1253ERGO   ROH18105   9.598  12.989   6.287  0.1084 -0.1329  0.0376
 1253ERGO    R118106   9.682  12.930   6.551  0.1725  0.0963  0.0717
 1253ERGO    R218107   9.752  13.126   6.733 -0.0333  0.2731 -0.0301
 1253ERGO    R318108   9.566  13.004   6.888  0.0921  0.1573  0.0301
 1253ERGO    R418109   9.719  13.170   7.074  0.0492  0.2457 -0.0188
 1253ERGO    R518110   9.680  12.957   7.093  0.1855  0.2234 -0.0083
 1253ERGO    C118111   9.524  13.081   7.418  0.2149  0.1209  0.0442
 1253ERGO    C218112   9.379  13.126   7.797  0.0547  0.1783 -0.1511
 1254ERGO   ROH18113  18.086   1.365   6.358 -0.2386 -0.1880  0.1729
 1254ERGO    R118114  18.130   1.554   6.564 -0.1188 -0.1054  0.0733
 1254ERGO    R218115  17.974   1.563   6.792 -0.0011 -0.0001  0.1497
 1254ERGO    R318116  18.214   1.544   6.918  0.0623  0.0358  0.0358
 1254ERGO    R418117  18.016   1.535   7.134  0.1595 -0.1223  0.1209
 1254ERGO    R518118  18.186   1.670   7.119  0.1046 -0.0544  0.0994
 1254ERGO    C118119  18.267   1.500   7.451  0.3122 -0.1598 -0.0027
 1254ERGO    C218120  18.436   1.502   7.770 -0.1095  0.1236  0.5082
 1255ERGO   ROH18121   1.266  12.571   5.768  0.1232  0.0341 -0.0256
 1255ERGO    R118122   1.090  12.595   5.989  0.0926  0.0713 -0.0544
 1255ERGO    R218123   1.061  12.397   6.179  0.0099  0.0722 -0.0673
 1255ERGO    R318124   1.120  12.599   6.352  0.0322  0.0506 -0.0489
 1255ERGO    R418125   1.032  12.378   6.523 -0.0107  0.0507 -0.0699
 1255ERGO    R518126   0.953  12.581   6.522  0.0202  0.0633 -0.0586
 1255ERGO    C118127   1.069  12.556   6.885 -0.0018  0.0180 -0.0541
 1255ERGO    C218128   0.966  12.489   7.170 -0.1826 -0.1060 -0.0231
 1256ERGO   ROH18129  17.027   0.078   6.524  0.0885  0.1061  0.0877
 1256ERGO    R118130  16.949  -0.013   6.781 -0.0418  0.0387  0.0250
 1256ERGO    R218131  17.075   0.070   7.013 -0.0242 -0.1781  0.0950
 1256ERGO    R318132  16.822   0.136   7.087  0.0108 -0.0117  0.0714
 1256ERGO    R418133  16.984   0.180   7.327  0.0554  0.1317  0.0136
 1256ERGO    R518134  16.804   0.058   7.313  0.0052  0.1906  0.1422
 1256ERGO    C118135  16.693   0.307   7.581  0.1346  0.4683 -0.0559
 1256ERGO    C218136  16.543   0.446   7.884 -0.0588 -0.2696  0.0788
 1257ERGO   ROH18137  11.945   5.229   5.713  0.1284 -0.0670  0.0226
 1257ERGO    R118138  12.028   5.173   5.977  0.2796 -0.1412 -0.0394
 1257ERGO    R218139  12.284   5.226   6.067  0.2498  0.1015 -0.0914
 1257ERGO    R318140  12.153   5.364   6.261  0.1476 -0.1745  0.0419
 1257ERGO    R418141  12.364   5.218   6.404  0.4689  0.0971 -0.1418
 1257ERGO    R518142  12.150   5.215   6.449  0.4951 -0.2540 -0.0101
 1257ERGO    C118143  12.287   5.343   6.781  0.5005 -0.1646 -0.0461
 1257ERGO    C218144  12.436   5.286   7.023 -0.0978  0.0971  0.0206
 1258ERGO   ROH18145  10.319  17.640   6.202  0.0032  0.0032  0.0450
 1258ERGO    R118146  10.363  17.590   6.477 -0.2013 -0.0175  0.0761
 1258ERGO    R218147  10.539  17.739   6.629  0.0952 -0.3636  0.0869
 1258ERGO    R318148  10.323  17.773   6.789  0.1054  0.1790  0.0051
 1258ERGO    R418149  10.553  17.813   6.966  0.1478 -0.3201  0.0754
 1258ERGO    R518150  10.387  17.675   6.998 -0.1947  0.0669  0.0496
 1258ERGO    C118151  10.357  17.887   7.313  0.1880  0.2150 -0.0081
 1258ERGO    C218152  10.253  18.167   7.494  0.4727 -0.0144  0.0893
 1259ERGO   ROH18153   2.474   6.340   6.067  0.0151 -0.1901  0.0295
 1259ERGO    R118154   2.334   6.417   6.300 -0.0356 -0.0777 -0.0366
 1259ERGO    R218155   2.107   6.286   6.388 -0.0360 -0.0620  0.0009
 1259ERGO    R318156   2.248   6.266   6.619 -0.0670  0.0875  0.0326
 1259ERGO    R418157   1.969   6.214   6.696 -0.0535  0.0348  0.0154
 1259ERGO    R518158   2.103   6.361   6.785 -0.1174  0.1142 -0.0320
 1259ERGO    C118159   2.020   6.153   7.093 -0.0928  0.2315  0.0534
 1259ERGO    C218160   2.042   5.913   7.447 -0.0702  0.2260 -0.1140
 1260ERGO   ROH18161   1.081   1.288   6.415 -0.0274 -0.1368 -0.1050
 1260ERGO    R118162   1.241   1.348   6.641  0.0507 -0.2717 -0.1240
 1260ERGO    R218163   1.149   1.496   6.855  0.2619 -0.0187 -0.2024
 1260ERGO    R318164   1.230   1.281   6.998 -0.0808 -0.0792 -0.0906
 1260ERGO    R418165   1.295   1.511   7.167  0.1079 -0.1070 -0.1250
 1260ERGO    R518166   1.431   1.353   7.105 -0.0490 -0.2945 -0.0012
 1260ERGO    C118167   1.457   1.317   7.484 -0.3034 -0.2152  0.0250
 1260ERGO    C218168   1.579   1.266   7.731 -0.0354 -0.1686  0.3727
 1261ERGO   ROH18169  16.993  17.164   6.264  0.0466 -0.2508  0.2490
 1261ERGO    R118170  16.921  17.274   6.515 -0.0521 -0.2097  0.2005
 1261ERGO    R218171  16.719  17.167   6.672  0.0270 -0.3016  0.2221
 1261ERGO    R318172  16.914  17.161   6.861  0.0135 -0.0755  0.2491
 1261ERGO    R418173  16.665  17.185   7.012 -0.0775 -0.5740  0.2239
 1261ERGO    R518174  16.839  17.314   7.029 -0.2848 -0.2793  0.3202
 1261ERGO    C118175  16.816  17.190   7.389 -0.1513 -0.5204  0.2504
 1261ERGO    C218176  16.877  16.904   7.594  0.1855 -0.2619 -0.3575
 1262ERGO   ROH18177   5.905   7.920   5.753  0.0396  0.0691 -0.1345
 1262ERGO    R118178   6.019   8.018   5.993  0.0478 -0.0141 -0.1044
 1262ERGO    R218179   5.876   8.170   6.175  0.0714 -0.0264 -0.0758
 1262ERGO    R318180   5.957   7.979   6.350  0.0194 -0.0868 -0.1169
 1262ERGO    R418181   5.871   8.202   6.519  0.0482 -0.1117 -0.0682
 1262ERGO    R518182   6.063   8.101   6.526  0.0284 -0.1513 -0.0771
 1262ERGO    C118183   5.944   8.040   6.884 -0.0141 -0.2179 -0.1023
 1262ERGO    C218184   5.915   8.067   7.182  0.2355 -0.0137 -0.1244
 1263ERGO   ROH18185  14.637  17.642   7.496 -0.0705  0.0343 -0.0054
 1263ERGO    R118186  14.754  17.636   7.754 -0.0561  0.0684 -0.0109
 1263ERGO    R218187  14.713  17.428   7.931  0.0373  0.0414 -0.0193
 1263ERGO    R318188  14.985  17.421   7.935  0.0406  0.1527 -0.0332
 1263ERGO    R418189  14.905  17.367   8.211  0.0699 -0.1314 -0.0782
 1263ERGO    R518190  15.044  17.521   8.144  0.0031 -0.0108  0.0566
 1263ERGO    C118191  15.272  17.325   8.378  0.0919 -0.1274 -0.1256
 1263ERGO    C218192  15.638  17.113   8.411 -0.0721 -0.2450  0.1096
 1264ERGO   ROH18193   6.185   4.553   5.768  0.0239 -0.0926  0.0364
 1264ERGO    R118194   6.166   4.528   6.049 -0.0127  0.0437  0.0471
 1264ERGO    R218195   6.273   4.313   6.187 -0.1585  0.0355  0.1502
 1264ERGO    R318196   6.399   4.508   6.329 -0.0447  0.0198  0.0720
 1264ERGO    R418197   6.291   4.326   6.532 -0.1979  0.1926  0.1473
 1264ERGO    R518198   6.259   4.541   6.520 -0.0490  0.2099  0.0374
 1264ERGO    C118199   6.420   4.516   6.866 -0.1140  0.2695  0.0723
 1264ERGO    C218200   6.429   4.322   7.099 -0.0042 -0.1428  0.0141
 1265ERGO   ROH18201   2.160   5.271   5.755 -0.0137 -0.2485  0.1216
 1265ERGO    R118202   2.078   5.423   5.979  0.0464 -0.0979  0.0412
 1265ERGO    R218203   1.814   5.435   6.062  0.0611  0.0213  0.0547
 1265ERGO    R318204   1.920   5.358   6.300  0.0542  0.1323  0.0959
 1265ERGO    R418205   1.639   5.415   6.360  0.0104  0.0405  0.0272
 1265ERGO    R518206   1.813   5.498   6.462 -0.0344  0.1425  0.0355
 1265ERGO    C118207   1.637   5.331   6.756 -0.0256  0.1558  0.0497
 1265ERGO    C218208   1.525   5.213   7.098 -0.0631  0.1372 -0.1393
 1266ERGO   ROH18209   8.894  12.383   6.016 -0.2429  0.1801  0.0617
 1266ERGO    R118210   8.919  12.420   6.295 -0.1844  0.1195  0.0645
 1266ERGO    R218211   8.829  12.234   6.479 -0.2250  0.1198  0.0439
 1266ERGO    R318212   9.084  12.248   6.571 -0.2045  0.0069  0.0074
 1266ERGO    R418213   8.922  12.200   6.810 -0.1733 -0.0937  0.0093
 1266ERGO    R518214   9.065  12.361   6.781 -0.1407 -0.1096  0.0771
 1266ERGO    C118215   9.216  12.194   7.089 -0.1239 -0.3240 -0.0452
 1266ERGO    C218216   9.317  12.100   7.430 -0.0754  0.3974 -0.1468
 1267ERGO   ROH18217  11.461   7.496   6.179 -0.0807 -0.0731  0.0570
 1267ERGO    R118218  11.615   7.486   6.416 -0.0603  0.0190  0.0481
 1267ERGO    R218219  11.599   7.680   6.613 -0.0934  0.0606  0.0047
 1267ERGO    R318220  11.548   7.467   6.774 -0.0294  0.0844  0.0572
 1267ERGO    R418221  11.708   7.648   6.939  0.1205  0.0616 -0.0650
 1267ERGO    R518222  11.750   7.438   6.900  0.0495  0.0508 -0.0763
 1267ERGO    C118223  11.724   7.430   7.280  0.3051  0.0844 -0.0563
 1267ERGO    C218224  11.832   7.559   7.605  0.0516  0.0651  0.2345
 1268ERGO   ROH18225  17.333   4.956   6.778  0.0780  0.1057  0.0453
 1268ERGO    R118226  17.313   5.008   7.055  0.1625  0.0272  0.0659
 1268ERGO    R218227  17.535   5.033   7.218  0.2173  0.1753 -0.0342
 1268ERGO    R318228  17.420   5.271   7.283  0.0480  0.0673  0.0746
 1268ERGO    R418229  17.584   5.202   7.516  0.2380  0.1606 -0.0282
 1268ERGO    R518230  17.372   5.253   7.517  0.1923 -0.0201  0.0993
 1268ERGO    C118231  17.506   5.524   7.750  0.0910  0.0507  0.0775
 1268ERGO    C218232  17.644   5.624   8.038  0.0950 -0.2551  0.0370
 1269ERGO   ROH18233  13.185  17.020   6.732 -0.1950 -0.2015 -0.0592
 1269ERGO    R118234  13.314  16.893   6.950 -0.2563 -0.1400  0.0131
 1269ERGO    R218235  13.499  17.022   7.110 -0.1527 -0.1545 -0.0956
 1269ERGO    R318236  13.334  16.943   7.310 -0.1852  0.0913 -0.0211
 1269ERGO    R418237  13.571  17.048   7.447  0.0505 -0.2785 -0.1270
 1269ERGO    R518238  13.481  16.852   7.476 -0.2423 -0.1459 -0.0956
 1269ERGO    C118239  13.457  16.989   7.831  0.1384 -0.1200 -0.0753
 1269ERGO    C218240  13.361  17.019   8.118 -0.0785  0.1377 -0.1173
 1270ERGO   ROH18241  12.697   2.837   5.782 -0.1160 -0.0248 -0.0801
 1270ERGO    R118242  12.617   2.820   6.053 -0.0198  0.1370 -0.0405
 1270ERGO    R218243  12.571   2.580   6.180 -0.3352  0.2210  0.0133
 1270ERGO    R318244  12.750   2.676   6.360 -0.0991 -0.0278 -0.0826
 1270ERGO    R418245  12.608   2.463   6.504 -0.5045  0.3354  0.0753
 1270ERGO    R518246  12.634   2.670   6.570 -0.0756  0.3316 -0.0528
 1270ERGO    C118247  12.799   2.486   6.861 -0.3814  0.1684  0.0213
 1270ERGO    C218248  12.850   2.250   7.065 -0.1312  0.2212 -0.0846
 1271ERGO   ROH18249   7.705  17.130   5.718 -0.0614 -0.0554  0.0300
 1271ERGO    R118250   7.709  17.280   5.957 -0.0067 -0.1081  0.0631
 1271ERGO    R218251   7.499  17.442   6.034  0.1338  0.1133 -0.0032
 1271ERGO    R318252   7.511  17.295   6.263 -0.1374  0.0464 -0.0288
 1271ERGO    R418253   7.455  17.569   6.353  0.3769  0.1400  0.0215
 1271ERGO    R518254   7.617  17.441   6.421  0.1402 -0.1795 -0.0035
 1271ERGO    C118255   7.440  17.505   6.753  0.2639  0.0928  0.0119
 1271ERGO    C218256   7.224  17.594   6.996 -0.2293  0.1294  0.3260
 1272ERGO   ROH18257   0.854   5.766   6.121 -0.1810  0.3736  0.1179
 1272ERGO    R118258   0.705   5.579   6.272 -0.2155  0.3249  0.0276
 1272ERGO    R218259   0.814   5.345   6.368 -0.2671  0.2282 -0.1214
 1272ERGO    R318260   0.720   5.437   6.606 -0.2067  0.1251 -0.0593
 1272ERGO    R418261   0.672   5.147   6.614 -0.3156  0.1511 -0.2128
 1272ERGO    R518262   0.525   5.305   6.648 -0.2474  0.1811 -0.1077
 1272ERGO    C118263   0.501   5.119   6.980 -0.2871  0.0093 -0.2076
 1272ERGO    C218264   0.477   5.087   7.403  0.1756  0.0333 -0.1668
 1273ERGO   ROH18265   1.972  10.881   5.856  0.0071  0.0524 -0.0319
 1273ERGO    R118266   1.963  10.908   6.138  0.1279  0.1084 -0.0329
 1273ERGO    R218267   1.897  10.699   6.306 -0.0259  0.1990  0.0239
 1273ERGO    R318268   2.134  10.761   6.423  0.0781 -0.0164 -0.0675
 1273ERGO    R418269   2.015  10.559   6.599 -0.0375  0.0994 -0.0184
 1273ERGO    R518270   2.088  10.756   6.658  0.1662  0.0332 -0.0503
 1273ERGO    C118271   2.306  10.536   6.880  0.0535 -0.1610 -0.1289
 1273ERGO    C218272   2.457  10.235   7.057  0.0484  0.1919  0.1609
 1274ERGO   ROH18273  10.259  13.808   6.508 -0.3393 -0.1823 -0.1706
 1274ERGO    R118274  10.212  14.003   6.708 -0.2158 -0.1366 -0.1860
 1274ERGO    R218275   9.959  14.095   6.768 -0.1870 -0.1857  0.0043
 1274ERGO    R318276  10.026  14.021   7.020  0.0492 -0.0918 -0.0273
 1274ERGO    R418277   9.768  14.159   7.048  0.1067 -0.0124  0.1711
 1274ERGO    R518278   9.952  14.204   7.157  0.2318 -0.0097 -0.0315
 1274ERGO    C118279   9.719  14.126   7.449  0.4994  0.1768  0.2385
 1274ERGO    C218280   9.548  14.118   7.750 -0.0452  0.0255  0.0961
 1275ERGO   ROH18281  15.492  15.128   6.493  0.1006  0.1592  0.1458
 1275ERGO    R118282  15.461  15.190   6.767  0.0991  0.1049  0.1595
 1275ERGO    R218283  15.328  15.024   6.943  0.0077  0.1139  0.1099
 1275ERGO    R318284  15.559  15.042   7.085  0.0051 -0.0192  0.1293
 1275ERGO    R418285  15.355  14.965   7.282 -0.1044  0.3845  0.1677
 1275ERGO    R518286  15.492  15.135   7.295  0.0809  0.2413  0.0367
 1275ERGO    C118287  15.589  14.947   7.613 -0.1722  0.4170  0.2197
 1275ERGO    C218288  15.698  15.021   7.937 -0.0026 -0.1753  0.0104
 1276ERGO   ROH18289  10.555   7.101   6.154  0.0849 -0.2222 -0.0845
 1276ERGO    R118290  10.508   7.172   6.424 -0.0263 -0.2409 -0.0986
 1276ERGO    R218291  10.520   6.988   6.630  0.1725 -0.2009 -0.0722
 1276ERGO    R318292  10.696   7.167   6.735 -0.0482  0.0256 -0.0793
 1276ERGO    R418293  10.589   7.022   6.967  0.2441 -0.2089 -0.0857
 1276ERGO    R518294  10.592   7.239   6.939 -0.0826 -0.1902 -0.0190
 1276ERGO    C118295  10.793   7.210   7.262  0.0786 -0.0010 -0.1002
 1276ERGO    C218296  10.835   7.151   7.626 -0.0591 -0.1601 -0.0743
 1277ERGO   ROH18297   0.359   0.686   6.334 -0.0207  0.0451 -0.0266
 1277ERGO    R118298   0.360   0.789   6.598 -0.0409  0.0552 -0.0297
 1277ERGO    R218299   0.271   0.643   6.815  0.0281  0.0272 -0.0145
 1277ERGO    R318300   0.516   0.703   6.915  0.0148  0.1228 -0.0402
 1277ERGO    R418301   0.339   0.701   7.149  0.0945 -0.1895  0.0107
 1277ERGO    R518302   0.472   0.862   7.088 -0.0420 -0.0481  0.1002
 1277ERGO    C118303   0.609   0.791   7.437  0.1207 -0.2258  0.0011
 1277ERGO    C218304   0.707   0.842   7.727 -0.0638  0.0871 -0.3451
 1278ERGO   ROH18305   2.288  15.588   6.322 -0.2299 -0.0812  0.0227
 1278ERGO    R118306   2.205  15.484   6.572 -0.0987 -0.0272  0.0890
 1278ERGO    R218307   2.383  15.378   6.755  0.0101  0.1125  0.0646
 1278ERGO    R318308   2.269  15.559   6.923 -0.0065  0.1235  0.0415
 1278ERGO    R418309   2.471  15.424   7.087 -0.0501  0.1019  0.0820
 1278ERGO    R518310   2.259  15.447   7.134 -0.0590  0.1224  0.0398
 1278ERGO    C118311   2.414  15.620   7.437 -0.1008  0.1061  0.0704
 1278ERGO    C218312   2.315  15.803   7.701 -0.0528 -0.1377 -0.0718
 1279ERGO   ROH18313   9.067  17.558   5.913  0.1772  0.2764  0.1798
 1279ERGO    R118314   9.077  17.724   6.142  0.1503  0.1351  0.2851
 1279ERGO    R218315   8.892  17.706   6.347  0.1255  0.0090  0.2515
 1279ERGO    R318316   9.115  17.678   6.501  0.1056 -0.0870  0.2632
 1279ERGO    R418317   8.892  17.666   6.690  0.0952  0.3345  0.2925
 1279ERGO    R518318   9.064  17.799   6.701  0.2435  0.1618  0.1548
 1279ERGO    C118319   9.100  17.616   7.035  0.0588  0.4340  0.3274
 1279ERGO    C218320   9.141  17.588   7.419  0.2248  0.2046 -0.0949
 1280ERGO   ROH18321   8.465  15.376   5.986 -0.0743 -0.2840 -0.0721
 1280ERGO    R118322   8.312  15.521   6.174 -0.1514 -0.2290 -0.1779
 1280ERGO    R218323   8.124  15.401   6.337 -0.1054 -0.2059 -0.1157
 1280ERGO    R318324   8.267  15.520   6.536 -0.1768 -0.0101 -0.1780
 1280ERGO    R418325   8.062  15.362   6.675  0.2402 -0.5001 -0.0794
 1280ERGO    R518326   8.103  15.575   6.702 -0.1649 -0.4186 -0.0154
 1280ERGO    C118327   8.161  15.452   7.058  0.3743 -0.4878 -0.1167
 1280ERGO    C218328   8.103  15.115   7.323 -0.2645  0.0587 -0.1581
 1281ERGO   ROH18329  17.024   1.880   7.806  0.0971 -0.0655  0.0690
 1281ERGO    R118330  17.226   2.050   7.909  0.1441 -0.1224  0.0666
 1281ERGO    R218331  17.479   2.064   7.799  0.0410  0.0406 -0.1311
 1281ERGO    R318332  17.423   2.330   7.787 -0.0183  0.0473  0.1795
 1281ERGO    R418333  17.715   2.316   7.799  0.0209  0.0613 -0.2029
 1281ERGO    R518334  17.586   2.432   7.930  0.1606 -0.0687  0.0763
 1281ERGO    C118335  17.801   2.712   7.788 -0.0463  0.0795  0.0468
 1281ERGO    C218336  18.015   2.984   7.486 -0.0759 -0.1583  0.0161
 1282ERGO   ROH18337  18.398  15.931   6.525 -0.5383  0.2543  0.1873
 1282ERGO    R118338  18.611  15.866   6.699 -0.3828  0.1239 -0.0471
 1282ERGO    R218339  18.786  16.056   6.798 -0.2663  0.0417 -0.0988
 1282ERGO    R318340  18.711  15.952   7.038 -0.0540 -0.0866 -0.0851
 1282ERGO    R418341  18.934  16.132   7.101 -0.1503  0.0660 -0.1604
 1282ERGO    R518342  18.917  15.922   7.156  0.0396  0.0334 -0.2106
 1282ERGO    C118343  18.950  16.078   7.503  0.1165 -0.0405 -0.1833
 1282ERGO    C218344  19.053  16.260   7.857 -0.1166  0.1231  0.2318
 1283ERGO   ROH18345   6.597   9.163   5.575  0.1481  0.0701 -0.0801
 1283ERGO    R118346   6.766   9.210   5.797  0.2095 -0.0640 -0.0964
 1283ERGO    R218347   6.670   9.254   6.051  0.2554  0.2477 -0.1225
 1283ERGO    R318348   6.835   9.049   6.116 -0.0757  0.0132  0.0053
 1283ERGO    R418349   6.854   9.235   6.343  0.3888  0.2283 -0.2080
 1283ERGO    R518350   7.020   9.155   6.226  0.1818 -0.2012 -0.2162
 1283ERGO    C118351   7.117   9.030   6.574  0.1556 -0.0031 -0.1379
 1283ERGO    C218352   7.022   9.001   6.924 -0.1308  0.0284  0.0159
 1284ERGO   ROH18353   3.844   1.361   6.390  0.1122  0.0675  0.0219
 1284ERGO    R118354   3.861   1.406   6.669  0.0046  0.0386  0.0340
 1284ERGO    R218355   3.647   1.496   6.818 -0.0889 -0.0903 -0.0170
 1284ERGO    R318356   3.700   1.275   6.967 -0.0210 -0.0848 -0.0334
 1284ERGO    R418357   3.591   1.468   7.158 -0.0494 -0.1219 -0.0135
 1284ERGO    R518358   3.780   1.361   7.176 -0.0223 -0.0767 -0.0371
 1284ERGO    C118359   3.608   1.245   7.496  0.0373 -0.1351 -0.0268
 1284ERGO    C218360   3.575   1.038   7.744 -0.2691  0.3132 -0.0010
 1285ERGO   ROH18361   8.061  11.337   6.049 -0.0104  0.0597 -0.1346
 1285ERGO    R118362   7.962  11.366   6.312  0.0740  0.1294 -0.1096
 1285ERGO    R218363   8.034  11.197   6.518 -0.0171  0.0587 -0.1335
 1285ERGO    R318364   8.102  11.429   6.642  0.2036 -0.0015 -0.1390
 1285ERGO    R418365   8.055  11.239   6.861 -0.0285  0.0595 -0.1333
 1285ERGO    R518366   7.963  11.435   6.837  0.1775  0.1550 -0.1618
 1285ERGO    C118367   8.132  11.481   7.176  0.1722  0.0033 -0.1384
 1285ERGO    C218368   8.308  11.647   7.359  0.2021  0.3469 -0.0538
 1286ERGO   ROH18369   0.534  11.175   6.350 -0.0688 -0.1483 -0.0474
 1286ERGO    R118370   0.451  11.062   6.596 -0.0279  0.0296  0.0469
 1286ERGO    R218371   0.525  10.808   6.676 -0.1837  0.0183  0.1216
 1286ERGO    R318372   0.613  10.938   6.898  0.0279  0.0441  0.0268
 1286ERGO    R418373   0.545  10.669   6.992  0.1429  0.0216  0.1073
 1286ERGO    R518374   0.473  10.858   7.074  0.2005  0.0298  0.1728
 1286ERGO    C118375   0.640  10.711   7.384  0.5317  0.0476  0.0099
 1286ERGO    C218376   0.839  10.571   7.586 -0.1704 -0.3429 -0.1177
 1287ERGO   ROH18377   5.363   9.742   5.956 -0.1303  0.0210 -0.0741
 1287ERGO    R118378   5.283   9.640   6.208 -0.1757  0.0347 -0.0829
 1287ERGO    R218379   5.451   9.489   6.367 -0.2405 -0.0487 -0.0935
 1287ERGO    R318380   5.389   9.677   6.554 -0.1631 -0.0374 -0.0790
 1287ERGO    R418381   5.413   9.426   6.705  0.0683  0.0018 -0.0465
 1287ERGO    R518382   5.243   9.563   6.707  0.0105 -0.0691  0.0673
 1287ERGO    C118383   5.333   9.566   7.077  0.3207  0.0418 -0.0056
 1287ERGO    C218384   5.292   9.369   7.419 -0.3232 -0.2775  0.1847
 1288ERGO   ROH18385  10.048  11.219   5.888  0.0809  0.1619  0.0380
 1288ERGO    R118386   9.950  11.191   6.152  0.0124  0.0340 -0.0004
 1288ERGO    R218387   9.925  10.944   6.276  0.1877 -0.0091 -0.0492
 1288ERGO    R318388  10.077  11.062   6.468  0.0164  0.0972  0.0240
 1288ERGO    R418389   9.934  10.847   6.607  0.2332 -0.1213 -0.0826
 1288ERGO    R518390   9.939  11.058   6.664 -0.0197 -0.1329 -0.0034
 1288ERGO    C118391  10.083  10.901   6.981  0.0988 -0.0868 -0.0335
 1288ERGO    C218392  10.110  10.639   7.147 -0.1029  0.0566 -0.0576
 1289ERGO   ROH18393  13.051   6.630   6.061  0.0711  0.0916  0.0792
 1289ERGO    R118394  13.199   6.461   6.233  0.3761  0.1772 -0.0920
 1289ERGO    R218395  13.463   6.511   6.300  0.2388  0.7065  0.1231
 1289ERGO    R318396  13.368   6.493   6.554  0.1220  0.1103  0.0495
 1289ERGO    R418397  13.654   6.436   6.578  0.1840  0.4576  0.0944
 1289ERGO    R518398  13.491   6.312   6.650  0.3119  0.0966 -0.2158
 1289ERGO    C118399  13.676   6.374   6.978  0.0424 -0.2471  0.0086
 1289ERGO    C218400  13.863   6.292   7.243 -0.0479 -0.1641 -0.0580
 1290ERGO   ROH18401  16.690   1.212   6.528  0.1907  0.1649 -0.1055
 1290ERGO    R118402  16.557   1.220   6.778  0.0919  0.2197 -0.1590
 1290ERGO    R218403  16.685   1.163   7.016 -0.0609  0.0301 -0.1200
 1290ERGO    R318404  16.589   1.407   7.089  0.1392  0.1027 -0.0929
 1290ERGO    R418405  16.564   1.242   7.330 -0.1584  0.0424 -0.1603
 1290ERGO    R518406  16.405   1.358   7.235  0.0069  0.2331 -0.2118
 1290ERGO    C118407  16.403   1.517   7.581 -0.0272  0.1177 -0.1584
 1290ERGO    C218408  16.570   1.629   7.976  0.1428  0.3378 -0.1368
 1291ERGO   ROH18409  11.686   4.013   5.873 -0.1050  0.0201  0.0708
 1291ERGO    R118410  11.596   3.960   6.136 -0.0283 -0.1050  0.0739
 1291ERGO    R218411  11.751   3.828   6.323  0.0753 -0.0871  0.0067
 1291ERGO    R318412  11.699   4.049   6.473 -0.0046 -0.1558  0.0791
 1291ERGO    R418413  11.740   3.834   6.668 -0.0435 -0.2261  0.0051
 1291ERGO    R518414  11.568   3.967   6.656 -0.0547 -0.2453  0.0011
 1291ERGO    C118415  11.685   4.043   7.010 -0.1878 -0.3715  0.0722
 1291ERGO    C218416  11.675   4.109   7.404  0.1896  0.2092 -0.0115
 1292ERGO   ROH18417  17.973  18.223   6.863 -0.1795  0.2622  0.0165
 1292ERGO    R118418  17.931  18.351   7.112 -0.2393  0.0939  0.0928
 1292ERGO    R218419  17.839  18.216   7.335  0.0625 -0.1356  0.0759
 1292ERGO    R318420  18.062  18.321   7.450 -0.0287  0.1326  0.0182
 1292ERGO    R418421  17.874  18.280   7.673  0.1225 -0.2607  0.0951
 1292ERGO    R518422  17.977  18.466   7.621 -0.1685 -0.0743  0.1354
 1292ERGO    C118423  18.104  18.416   7.977  0.0718 -0.0817  0.0520
 1292ERGO    C218424  18.353  18.307   8.173  0.2084 -0.1655 -0.1972
 1293ERGO   ROH18425   8.514  14.976   6.120 -0.2170  0.2247 -0.0805
 1293ERGO    R118426   8.451  15.112   6.360 -0.0917  0.0483  0.0539
 1293ERGO    R218427   8.394  14.979   6.596  0.0240 -0.1248 -0.0167
 1293ERGO    R318428   8.593  15.136   6.695  0.0774 -0.2043  0.0045
 1293ERGO    R418429   8.409  15.097   6.920 -0.0572  0.0044 -0.0590
 1293ERGO    R518430   8.481  15.288   6.842  0.0981 -0.0696 -0.1121
 1293ERGO    C118431   8.605  15.313   7.202 -0.0543  0.0051 -0.0636
 1293ERGO    C218432   8.752  15.322   7.604  0.0640  0.0309  0.0466
 1294ERGO   ROH18433  10.648   5.851   6.216  0.1354 -0.0011 -0.0134
 1294ERGO    R118434  10.463   5.933   6.414  0.1708  0.3919 -0.1387
 1294ERGO    R218435  10.416   5.787   6.643 -0.4666  0.3489 -0.2947
 1294ERGO    R318436  10.474   6.022   6.766  0.0893  0.1112 -0.0585
 1294ERGO    R418437  10.347   5.858   6.974 -0.7912  0.3320 -0.3525
 1294ERGO    R518438  10.288   6.059   6.913 -0.0672  0.5914 -0.3390
 1294ERGO    C118439  10.361   6.120   7.283 -0.4585  0.0991 -0.1644
 1294ERGO    C218440  10.334   6.040   7.756  0.0965 -0.0116 -0.0417
 1295ERGO   ROH18441  13.006   7.433   6.233  0.1106 -0.1059  0.0281
 1295ERGO    R118442  13.114   7.461   6.494  0.0383 -0.1321  0.0613
 1295ERGO    R218443  13.013   7.641   6.678  0.0604 -0.0669  0.0127
 1295ERGO    R318444  12.994   7.420   6.835 -0.0946 -0.0456  0.0251
 1295ERGO    R418445  12.972   7.644   7.021 -0.0568 -0.0255 -0.0012
 1295ERGO    R518446  13.111   7.477   7.035 -0.1387 -0.0864  0.0607
 1295ERGO    C118447  12.930   7.438   7.368 -0.2705  0.0186  0.0023
 1295ERGO    C218448  12.829   7.292   7.660 -0.1430 -0.3918  0.2715
 1296ERGO   ROH18449   0.365   4.969   5.486 -0.1187  0.0881  0.1062
 1296ERGO    R118450   0.288   4.798   5.698 -0.0414 -0.0214  0.0486
 1296ERGO    R218451   0.377   4.537   5.718  0.0656  0.0005 -0.0491
 1296ERGO    R318452   0.455   4.617   5.966  0.0456 -0.0514 -0.0275
 1296ERGO    R418453   0.506   4.329   5.962  0.0875 -0.0354 -0.0929
 1296ERGO    R518454   0.390   4.438   6.110  0.0701 -0.0918 -0.0729
 1296ERGO    C118455   0.655   4.282   6.336  0.0816 -0.1051 -0.0982
 1296ERGO    C218456   0.809   4.235   6.544  0.0451 -0.1621  0.0869
 1297ERGO   ROH18457  18.483  18.197   6.859  0.0939  0.0121 -0.1183
 1297ERGO    R118458  18.393  18.278   7.115  0.1246 -0.1536 -0.0530
 1297ERGO    R218459  18.435  18.127   7.342  0.3782 -0.1822 -0.1121
 1297ERGO    R318460  18.545  18.357   7.436  0.1909 -0.0976 -0.0989
 1297ERGO    R418461  18.610  18.155   7.639  0.4383 -0.0723 -0.1579
 1297ERGO    R518462  18.511  18.346   7.673  0.2704 -0.1730 -0.0932
 1297ERGO    C118463  18.815  18.387   7.900  0.2974  0.0714 -0.1722
 1297ERGO    C218464  19.088  18.418   8.045  0.0234  0.0574 -0.0115
 1298ERGO   ROH18465   0.154   7.322   5.930 -0.3058  0.0758 -0.0367
 1298ERGO    R118466   0.125   7.355   6.210  0.0007  0.0703 -0.0021
 1298ERGO    R218467  -0.048   7.202   6.361 -0.0267  0.2458  0.1379
 1298ERGO    R318468   0.175   7.151   6.507  0.0585 -0.0271 -0.0763
 1298ERGO    R418469  -0.048   7.093   6.689  0.1484  0.1251  0.0999
 1298ERGO    R518470   0.120   7.226   6.728  0.3205 -0.0486  0.0043
 1298ERGO    C118471   0.162   6.981   7.017  0.3305 -0.2014 -0.1233
 1298ERGO    C218472   0.110   6.652   7.202 -0.2253  0.0367  0.1403
 1299ERGO   ROH18473  17.535   8.600   5.620 -0.3478  0.1488  0.2066
 1299ERGO    R118474  17.674   8.787   5.782 -0.2693  0.2625  0.0138
 1299ERGO    R218475  17.545   8.971   5.942 -0.1987  0.2097  0.1443
 1299ERGO    R318476  17.699   8.861   6.137  0.1034  0.3282 -0.0243
 1299ERGO    R418477  17.516   9.040   6.280 -0.0481 -0.0185  0.2051
 1299ERGO    R518478  17.733   9.040   6.293 -0.0398  0.2888  0.0449
 1299ERGO    C118479  17.645   8.978   6.659  0.3231 -0.0401  0.0824
 1299ERGO    C218480  17.646   8.878   7.014  0.0963  0.0139 -0.1117
 1300ERGO   ROH18481  11.762  16.212   6.337 -0.1989 -0.3570 -0.0436
 1300ERGO    R118482  11.823  16.280   6.605 -0.1616 -0.1147 -0.1126
 1300ERGO    R218483  11.662  16.446   6.756 -0.2279 -0.1134 -0.1886
 1300ERGO    R318484  11.667  16.238   6.931 -0.0292  0.0192 -0.0296
 1300ERGO    R418485  11.686  16.476   7.100 -0.3823  0.1778 -0.1991
 1300ERGO    R518486  11.822  16.306   7.100 -0.1675  0.3405 -0.0228
 1300ERGO    C118487  11.705  16.298   7.463 -0.2857  0.4717 -0.0558
 1300ERGO    C218488  11.581  16.356   7.667 -0.1251 -0.1567 -0.0414
 1301ERGO   ROH18489   9.024   2.521   5.993 -0.1511  0.0019  0.0577
 1301ERGO    R118490   9.050   2.423   6.258 -0.1674  0.0261  0.0690
 1301ERGO    R218491   8.851   2.276   6.382 -0.1099 -0.1073  0.0124
 1301ERGO    R318492   9.052   2.097   6.420  0.0018  0.0307  0.0760
 1301ERGO    R418493   8.872   2.055   6.647 -0.0700 -0.1349 -0.0145
 1301ERGO    R518494   9.085   2.095   6.657 -0.1037  0.0167  0.0893
 1301ERGO    C118495   9.072   1.758   6.836  0.0580 -0.0215  0.0295
 1301ERGO    C218496   9.036   1.625   7.162  0.0373  0.1208 -0.1197
 1302ERGO   ROH18497  16.190  17.759   6.094  0.2614 -0.2440  0.1516
 1302ERGO    R118498  16.118  17.913   6.320  0.3740 -0.0669  0.0696
 1302ERGO    R218499  15.947  17.820   6.516  0.0367  0.2794 -0.0369
 1302ERGO    R318500  16.153  17.886   6.681  0.0475 -0.0802  0.1008
 1302ERGO    R418501  15.931  17.823   6.861 -0.0601 -0.0378 -0.0369
 1302ERGO    R518502  16.049  18.006   6.861  0.1150 -0.1556  0.1825
 1302ERGO    C118503  16.114  17.886   7.217 -0.1063 -0.5601  0.0923
 1302ERGO    C218504  16.197  17.890   7.585 -0.3212 -0.3438 -0.3298
 1303ERGO   ROH18505   1.895   3.551   5.866  0.0277 -0.4042  0.0310
 1303ERGO    R118506   2.022   3.618   6.110 -0.0473  0.0708 -0.0522
 1303ERGO    R218507   1.923   3.810   6.282 -0.5413 -0.1432 -0.0927
 1303ERGO    R318508   1.938   3.608   6.464  0.1389 -0.0428 -0.0082
 1303ERGO    R418509   1.897   3.852   6.624 -1.0718 -0.1037 -0.1281
 1303ERGO    R518510   2.057   3.705   6.649 -0.4351  0.5603  0.0870
 1303ERGO    C118511   1.896   3.687   6.994 -0.7420  0.0136 -0.0694
 1303ERGO    C218512   1.922   3.608   7.281 -0.2648 -0.1414 -0.2502
 1304ERGO   ROH18513  13.618   2.398   6.019 -0.3254  0.0632 -0.0110
 1304ERGO    R118514  13.631   2.568   6.245 -0.2646  0.0554 -0.0043
 1304ERGO    R218515  13.428   2.581   6.432 -0.1641 -0.0508  0.1347
 1304ERGO    R318516  13.629   2.528   6.606 -0.0230  0.0209 -0.0091
 1304ERGO    R418517  13.461   2.724   6.745  0.0088 -0.0703  0.1232
 1304ERGO    R518518  13.675   2.739   6.710 -0.0321  0.0192 -0.0228
 1304ERGO    C118519  13.669   2.756   7.091  0.2420 -0.0142 -0.0186
 1304ERGO    C218520  13.724   2.714   7.442  0.0561  0.1136 -0.0193
 1305ERGO   ROH18521   2.066   2.329   6.052  0.1008  0.1860 -0.0339
 1305ERGO    R118522   2.161   2.386   6.312  0.0163  0.1758 -0.0010
 1305ERGO    R218523   2.028   2.557   6.484 -0.0651  0.1318 -0.0197
 1305ERGO    R318524   2.039   2.343   6.653 -0.0718  0.1154 -0.0398
 1305ERGO    R418525   1.974   2.571   6.826  0.0704  0.1231  0.0029
 1305ERGO    R518526   2.138   2.430   6.853  0.0338  0.0665 -0.0707
 1305ERGO    C118527   1.952   2.379   7.182  0.1430  0.1027 -0.0028
 1305ERGO    C218528   1.884   2.406   7.576  0.0074  0.2936  0.1478
 1306ERGO   ROH18529   9.360   9.003   6.028  0.2774  0.2926 -0.0569
 1306ERGO    R118530   9.486   9.173   6.216  0.2346  0.1565  0.1010
 1306ERGO    R218531   9.404   9.190   6.479  0.0102  0.1469  0.0472
 1306ERGO    R318532   9.665   9.133   6.530 -0.0749 -0.0621  0.2502
 1306ERGO    R418533   9.575   9.289   6.763  0.0196  0.4239 -0.0538
 1306ERGO    R518534   9.749   9.331   6.637  0.1119  0.0147 -0.0505
 1306ERGO    C118535   9.919   9.293   6.976 -0.0548  0.3890  0.0780
 1306ERGO    C218536  10.074   9.091   7.201  0.1045 -0.0082 -0.1133
 1307ERGO   ROH18537   3.845   0.087   5.969 -0.1638 -0.2096  0.0296
 1307ERGO    R118538   3.937   0.023   6.229  0.0749  0.0302  0.0073
 1307ERGO    R218539   4.126   0.175   6.362 -0.1813  0.4523 -0.1038
 1307ERGO    R318540   3.936   0.183   6.556 -0.1240  0.1000 -0.0236
 1307ERGO    R418541   4.180   0.096   6.694  0.0705  0.3846 -0.1576
 1307ERGO    R518542   3.987  -0.005   6.697  0.2049  0.1023 -0.1222
 1307ERGO    C118543   4.034   0.058   7.070  0.2709  0.0144 -0.1135
 1307ERGO    C218544   3.943   0.296   7.409  0.0542  0.1713  0.0620
 1308ERGO   ROH18545   2.859  13.432   6.093 -0.0848 -0.1649 -0.1727
 1308ERGO    R118546   2.744  13.345   6.336 -0.0041 -0.0265 -0.0831
 1308ERGO    R218547   2.636  13.092   6.368 -0.0596  0.0156  0.0758
 1308ERGO    R318548   2.806  13.082   6.580  0.0287  0.0634  0.0068
 1308ERGO    R418549   2.584  12.905   6.654  0.0273  0.1236  0.1621
 1308ERGO    R518550   2.663  13.072   6.771  0.1052  0.1540  0.0710
 1308ERGO    C118551   2.714  12.787   7.019  0.1609  0.2313  0.1476
 1308ERGO    C218552   2.728  12.767   7.285 -0.1583 -0.3442 -0.2733
 1309ERGO   ROH18553   5.352   2.359   5.883 -0.1031 -0.0279 -0.0497
 1309ERGO    R118554   5.230   2.348   6.139 -0.0993 -0.0895 -0.0499
 1309ERGO    R218555   5.246   2.125   6.302  0.0082 -0.0855 -0.0506
 1309ERGO    R318556   5.341   2.305   6.483 -0.0781 -0.0396 -0.0511
 1309ERGO    R418557   5.315   2.055   6.633  0.2672 -0.1103 -0.1079
 1309ERGO    R518558   5.230   2.248   6.687  0.0951 -0.2149 -0.0048
 1309ERGO    C118559   5.445   2.182   6.996  0.3371 -0.0815 -0.1418
 1309ERGO    C218560   5.358   1.942   7.280 -0.4713 -0.0038  0.1399
 1310ERGO   ROH18561   5.444   8.992   5.732  0.3078  0.0985 -0.0088
 1310ERGO    R118562   5.526   9.130   5.965  0.2336  0.0937  0.0199
 1310ERGO    R218563   5.452   9.050   6.219  0.1803  0.0699 -0.0053
 1310ERGO    R318564   5.720   9.053   6.263  0.1691  0.0998  0.0646
 1310ERGO    R418565   5.601   9.071   6.530  0.0918  0.2892  0.0242
 1310ERGO    R518566   5.749   9.206   6.445  0.1169  0.2307 -0.0331
 1310ERGO    C118567   5.940   9.086   6.752  0.0299  0.4449  0.1071
 1310ERGO    C218568   6.241   9.093   6.996  0.0260  0.2606  0.3001
 1311ERGO   ROH18569  17.502   7.336   6.034 -0.0628  0.3029  0.3622
 1311ERGO    R118570  17.302   7.216   6.194  0.0073  0.1151  0.3112
 1311ERGO    R218571  17.266   6.942   6.207  0.1501  0.0898  0.1703
 1311ERGO    R318572  17.292   6.985   6.475  0.1405 -0.0380  0.1924
 1311ERGO    R418573  17.212   6.704   6.451  0.1345 -0.0281  0.0528
 1311ERGO    R518574  17.114   6.857   6.572  0.1321 -0.0822  0.1231
 1311ERGO    C118575  17.203   6.604   6.844  0.1162 -0.2168  0.0052
 1311ERGO    C218576  17.223   6.451   7.236 -0.1783 -0.0946  0.1163
 1312ERGO   ROH18577  15.370   7.692   6.031 -0.0379  0.0657 -0.0739
 1312ERGO    R118578  15.545   7.703   6.254 -0.0266  0.0762 -0.0845
 1312ERGO    R218579  15.671   7.935   6.332 -0.1920  0.1262  0.0246
 1312ERGO    R318580  15.557   7.879   6.572 -0.1262 -0.0828  0.0101
 1312ERGO    R418581  15.791   8.043   6.638 -0.2878  0.1443  0.0569
 1312ERGO    R518582  15.742   7.847   6.720 -0.0804  0.0571 -0.0107
 1312ERGO    C118583  15.753   8.053   7.041 -0.2818 -0.0414  0.0621
 1312ERGO    C218584  15.750   8.125   7.304  0.0315  0.0448  0.2604
 1313ERGO   ROH18585   2.579   5.271   5.990 -0.0542 -0.1673  0.0088
 1313ERGO    R118586   2.383   5.179   6.172 -0.0221 -0.2097  0.0233
 1313ERGO    R218587   2.448   5.058   6.413  0.0233 -0.0472  0.0990
 1313ERGO    R318588   2.288   5.252   6.516 -0.1234 -0.0997 -0.0288
 1313ERGO    R418589   2.305   5.050   6.727  0.0319  0.0628  0.1056
 1313ERGO    R518590   2.123   5.132   6.641 -0.0298 -0.1359  0.0542
 1313ERGO    C118591   2.070   5.227   7.006 -0.1009  0.0777 -0.0105
 1313ERGO    C218592   2.053   5.366   7.354 -0.3197 -0.1036  0.1116
 1314ERGO   ROH18593  11.885  11.682   5.781 -0.1016 -0.1289 -0.0359
 1314ERGO    R118594  11.892  11.534   6.023  0.1668 -0.1539 -0.0562
 1314ERGO    R218595  12.108  11.539   6.194  0.1217  0.3056 -0.0048
 1314ERGO    R318596  11.921  11.609   6.378 -0.0875 -0.1366 -0.0358
 1314ERGO    R418597  12.131  11.476   6.533  0.2604  0.4135  0.0067
 1314ERGO    R518598  11.919  11.427   6.533  0.3675 -0.1328 -0.0067
 1314ERGO    C118599  11.969  11.506   6.903  0.1446  0.0612 -0.0157
 1314ERGO    C218600  11.949  11.540   7.281 -0.0525 -0.0608 -0.2371
 1315ERGO   ROH18601  10.828   5.154   5.586 -0.1665  0.1936  0.0578
 1315ERGO    R118602  10.959   5.206   5.832 -0.2275 -0.1420  0.1683
 1315ERGO    R218603  11.048   5.458   5.903  0.4948 -0.3682  0.1758
 1315ERGO    R318604  10.898   5.413   6.125  0.1199  0.1432  0.0432
 1315ERGO    R418605  11.098   5.609   6.209  0.4380 -0.2148  0.1087
 1315ERGO    R518606  11.055   5.419   6.305 -0.0885 -0.0438  0.2287
 1315ERGO    C118607  10.986   5.656   6.596  0.0530  0.3546 -0.0549
 1315ERGO    C218608  10.830   5.716   6.946 -0.0497 -0.1710 -0.1244
 1316ERGO   ROH18609   1.733  15.319   6.315  0.2052 -0.2511  0.0959
 1316ERGO    R118610   1.663  15.415   6.572  0.0713 -0.0593 -0.0077
 1316ERGO    R218611   1.633  15.249   6.791 -0.1457  0.0833  0.0895
 1316ERGO    R318612   1.814  15.418   6.903 -0.1445  0.0800  0.0877
 1316ERGO    R418613   1.685  15.285   7.130 -0.0029 -0.0247  0.0787
 1316ERGO    R518614   1.705  15.499   7.100 -0.0688 -0.0215  0.1604
 1316ERGO    C118615   1.885  15.464   7.434  0.0814 -0.0908  0.0708
 1316ERGO    C218616   1.960  15.375   7.729  0.2259  0.0411  0.0382
 1317ERGO   ROH18617   7.818   9.484   6.114 -0.1766  0.0934 -0.0007
 1317ERGO    R118618   7.896   9.512   6.384 -0.1353  0.2054 -0.0234
 1317ERGO    R218619   7.772   9.688   6.557 -0.2434  0.1341 -0.0231
 1317ERGO    R318620   7.741   9.466   6.711 -0.0214  0.1313  0.0199
 1317ERGO    R418621   7.760   9.689   6.902 -0.4059  0.2052 -0.0282
 1317ERGO    R518622   7.881   9.507   6.901 -0.1640  0.3648  0.0760
 1317ERGO    C118623   7.724   9.480   7.248 -0.2922  0.2442  0.0091
 1317ERGO    C218624   7.931   9.515   7.498 -0.2139  0.1562 -0.2833
 1318ERGO   ROH18625  18.222   4.059   5.684 -0.0702 -0.2789  0.1018
 1318ERGO    R118626  18.124   4.210   5.902  0.0012 -0.1764  0.0625
 1318ERGO    R218627  17.953   4.105   6.091  0.0384 -0.0773  0.1478
 1318ERGO    R318628  18.143   4.193   6.265  0.0890 -0.0236  0.0671
 1318ERGO    R418629  17.890   4.219   6.412  0.1300 -0.0257  0.1484
 1318ERGO    R518630  18.038   4.375   6.380  0.1039 -0.0124  0.0680
 1318ERGO    C118631  18.032   4.367   6.761  0.2305  0.0548  0.0729
 1318ERGO    C218632  17.940   4.240   7.143  0.0114 -0.2587 -0.0597
 1319ERGO   ROH18633  14.210  17.392   6.259 -0.2167  0.1940 -0.1027
 1319ERGO    R118634  14.256  17.386   6.539 -0.0697  0.1251 -0.1280
 1319ERGO    R218635  14.432  17.559   6.664 -0.1455  0.2198 -0.1555
 1319ERGO    R318636  14.215  17.616   6.818 -0.1143 -0.0128 -0.0191
 1319ERGO    R418637  14.445  17.661   6.994 -0.0434  0.2594 -0.1708
 1319ERGO    R518638  14.273  17.534   7.035  0.1222  0.0658 -0.0476
 1319ERGO    C118639  14.249  17.774   7.330  0.0456  0.0645 -0.0516
 1319ERGO    C218640  14.273  17.892   7.663  0.0376  0.1081  0.2172
 1320ERGO   ROH18641  17.894  15.134   6.484  0.2433  0.3266 -0.0203
 1320ERGO    R118642  17.979  15.028   6.732 -0.0073  0.1359 -0.0108
 1320ERGO    R218643  18.211  15.111   6.858  0.1907 -0.3832 -0.0010
 1320ERGO    R318644  18.043  15.156   7.067  0.2711  0.0122 -0.0152
 1320ERGO    R418645  18.312  15.183   7.180  0.3201 -0.4363 -0.0292
 1320ERGO    R518646  18.152  15.054   7.254  0.0817 -0.1134  0.0247
 1320ERGO    C118647  18.213  15.267   7.564  0.4708 -0.0958 -0.0590
 1320ERGO    C218648  18.266  15.449   7.852 -0.0968  0.3374  0.1620
 1321ERGO   ROH18649   1.031   2.976   6.077  0.0356 -0.1327  0.0154
 1321ERGO    R118650   1.024   2.961   6.359  0.1287 -0.0041  0.0262
 1321ERGO    R218651   1.217   3.077   6.520  0.1348  0.1491 -0.0839
 1321ERGO    R318652   1.002   3.196   6.636  0.1214  0.1181 -0.0788
 1321ERGO    R418653   1.215   3.215   6.837  0.0682  0.0004 -0.0194
 1321ERGO    R518654   1.016   3.131   6.866  0.0550  0.0104 -0.1074
 1321ERGO    C118655   1.012   3.406   7.131  0.0168 -0.1154  0.0229
 1321ERGO    C218656   1.081   3.479   7.510 -0.0710 -0.2236 -0.2727
 1322ERGO   ROH18657   0.648  13.509   5.843  0.0701 -0.1591 -0.0169
 1322ERGO    R118658   0.506  13.549   6.084  0.0405 -0.0307 -0.0551
 1322ERGO    R218659   0.372  13.344   6.213 -0.0451  0.0552 -0.0068
 1322ERGO    R318660   0.523  13.423   6.425 -0.0572  0.0826 -0.0078
 1322ERGO    R418661   0.304  13.269   6.543  0.0018  0.0027 -0.0084
 1322ERGO    R518662   0.363  13.471   6.597 -0.0601  0.0154  0.0075
 1322ERGO    C118663   0.405  13.299   6.935  0.0178 -0.0023 -0.0103
 1322ERGO    C218664   0.363  13.387   7.295  0.3210  0.4813 -0.0761
 1323ERGO   ROH18665   8.532  10.152   5.954  0.0148  0.0656 -0.0569
 1323ERGO    R118666   8.600  10.194   6.226 -0.0985 -0.0782 -0.0056
 1323ERGO    R218667   8.587  10.444   6.345  0.2314 -0.0664  0.0105
 1323ERGO    R318668   8.429  10.314   6.524 -0.1107  0.1685 -0.1082
 1323ERGO    R418669   8.577  10.509   6.684  0.0779 -0.0621  0.0067
 1323ERGO    R518670   8.565  10.295   6.720 -0.2828 -0.0502 -0.0051
 1323ERGO    C118671   8.424  10.425   7.050 -0.3327  0.1609 -0.1071
 1323ERGO    C218672   8.340  10.234   7.452  0.1129 -0.2404 -0.0522
 1324ERGO   ROH18673   2.072  14.528   6.374  0.1309 -0.0798  0.0501
 1324ERGO    R118674   2.110  14.416   6.631  0.1930 -0.0156  0.0698
 1324ERGO    R218675   2.269  14.534   6.823  0.1251  0.1078  0.0531
 1324ERGO    R318676   2.044  14.514   6.975  0.1339  0.0059  0.0522
 1324ERGO    R418677   2.260  14.567   7.167  0.0826  0.2855  0.0357
 1324ERGO    R518678   2.118  14.402   7.174  0.2167  0.1719  0.1164
 1324ERGO    C118679   2.045  14.567   7.510  0.0662  0.2935  0.0247
 1324ERGO    C218680   2.186  14.675   7.887  0.2495 -0.0300 -0.0613
 1325ERGO   ROH18681   5.942  13.490   5.871 -0.0494 -0.1893 -0.0679
 1325ERGO    R118682   6.053  13.298   6.047  0.0110 -0.0793  0.0163
 1325ERGO    R218683   6.255  13.360   6.226 -0.0671  0.0830  0.0572
 1325ERGO    R318684   6.082  13.255   6.407 -0.0618  0.0404  0.0358
 1325ERGO    R418685   6.346  13.170   6.500 -0.0666  0.0180  0.0111
 1325ERGO    R518686   6.175  13.041   6.462 -0.0643  0.0295 -0.0147
 1325ERGO    C118687   6.237  12.961   6.830 -0.0613 -0.0599 -0.0358
 1325ERGO    C218688   6.310  12.931   7.126  0.0033 -0.0528 -0.2158
 1326ERGO   ROH18689  16.052  12.293   5.490 -0.0770 -0.2304 -0.0233
 1326ERGO    R118690  16.213  12.237   5.716 -0.1636 -0.1795  0.0510
 1326ERGO    R218691  16.365  12.430   5.842  0.0372 -0.2145 -0.1291
 1326ERGO    R318692  16.229  12.346   6.063 -0.0829  0.1568 -0.0559
 1326ERGO    R418693  16.481  12.455   6.167  0.1272 -0.2216 -0.1607
 1326ERGO    R518694  16.399  12.257   6.206 -0.2182 -0.0568 -0.0270
 1326ERGO    C118695  16.422  12.392   6.562  0.0671  0.1229 -0.1104
 1326ERGO    C218696  16.464  12.485   6.864 -0.2011 -0.0376  0.1217
 1327ERGO   ROH18697   9.175  13.784   6.153 -0.0649 -0.0451 -0.1338
 1327ERGO    R118698   8.998  13.831   6.369  0.0191  0.1040 -0.0952
 1327ERGO    R218699   8.883  13.625   6.513 -0.0919  0.1994 -0.0447
 1327ERGO    R318700   8.991  13.757   6.725  0.0543  0.1478 -0.0858
 1327ERGO    R418701   8.773  13.597   6.839  0.1025  0.1619  0.0190
 1327ERGO    R518702   8.803  13.812   6.863  0.1466  0.1521  0.0382
 1327ERGO    C118703   8.810  13.705   7.229  0.3531  0.0915  0.0175
 1327ERGO    C218704   8.522  13.841   7.542 -0.3630 -0.0668 -0.1117
 1328ERGO   ROH18705  11.271   8.769   6.012 -0.2941  0.0576 -0.0455
 1328ERGO    R118706  11.168   8.936   6.216 -0.2596  0.0118  0.0099
 1328ERGO    R218707  11.179   8.868   6.483  0.0629  0.0911  0.0189
 1328ERGO    R318708  11.300   9.111   6.507 -0.1462  0.2158 -0.1604
 1328ERGO    R418709  11.133   9.086   6.748  0.2465  0.0189  0.1121
 1328ERGO    R518710  11.131   9.251   6.604 -0.1494  0.0334  0.1153
 1328ERGO    C118711  11.219   9.441   6.923  0.1571  0.0938 -0.0021
 1328ERGO    C218712  11.223   9.467   7.310 -0.2863  0.0183  0.0934
 1329ERGO   ROH18713  10.450  12.075   6.126 -0.0910  0.1776 -0.0267
 1329ERGO    R118714  10.536  11.912   6.341 -0.0175  0.0569 -0.1445
 1329ERGO    R218715  10.658  12.015   6.567 -0.0269 -0.0565 -0.0822
 1329ERGO    R318716  10.459  11.881   6.695  0.0254 -0.2065 -0.1572
 1329ERGO    R418717  10.698  11.834   6.858 -0.0338  0.1091  0.0217
 1329ERGO    R518718  10.565  11.682   6.777  0.1764 -0.0636 -0.0024
 1329ERGO    C118719  10.535  11.603   7.149  0.0114  0.0645  0.0118
 1329ERGO    C218720  10.665  11.456   7.437  0.0517  0.1162  0.0515
 1330ERGO   ROH18721   9.652   0.752   5.890  0.1475 -0.1652  0.3057
 1330ERGO    R118722   9.646   0.910   6.125  0.1995 -0.0927  0.2595
 1330ERGO    R218723   9.428   0.917   6.294  0.1555  0.1159  0.2018
 1330ERGO    R318724   9.612   0.851   6.482  0.0590  0.0317  0.2672
 1330ERGO    R418725   9.379   0.941   6.636  0.0880  0.2486  0.1832
 1330ERGO    R518726   9.583   1.015   6.655  0.1379  0.1017  0.2127
 1330ERGO    C118727   9.525   0.892   7.011 -0.0419  0.2469  0.2337
 1330ERGO    C218728   9.653   0.731   7.426  0.1716  0.3054 -0.1402
 1331ERGO   ROH18729  15.150  10.712   6.007 -0.2234 -0.0900  0.0690
 1331ERGO    R118730  15.240  10.708   6.276 -0.1615 -0.0814  0.0480
 1331ERGO    R218731  15.284  10.939   6.422  0.1019 -0.0699 -0.0467
 1331ERGO    R318732  15.115  10.820   6.599  0.0268  0.1603  0.0415
 1331ERGO    R418733  15.259  11.020   6.757  0.3119  0.0425 -0.0565
 1331ERGO    R518734  15.241  10.808   6.802  0.0886  0.0691  0.0005
 1331ERGO    C118735  15.086  10.956   7.118  0.3638  0.3242  0.0206
 1331ERGO    C218736  15.135  11.151   7.273 -0.1416 -0.0454 -0.0056
 1332ERGO   ROH18737   6.979   8.138   5.640  0.0424 -0.0426 -0.0238
 1332ERGO    R118738   6.868   7.950   5.820 -0.1065  0.0584 -0.0080
 1332ERGO    R218739   7.025   7.787   5.980 -0.2351 -0.0158  0.0431
 1332ERGO    R318740   6.874   7.893   6.180 -0.1977  0.1150  0.0027
 1332ERGO    R418741   6.999   7.657   6.299 -0.2999  0.1023  0.0868
 1332ERGO    R518742   6.786   7.703   6.296 -0.2810  0.1901  0.0645
 1332ERGO    C118743   6.843   7.681   6.672 -0.3025  0.2938  0.0744
 1332ERGO    C218744   6.802   7.652   7.042 -0.1123  0.3075 -0.1464
 1333ERGO   ROH18745  11.543  14.361   6.681 -0.0592 -0.2105 -0.1473
 1333ERGO    R118746  11.601  14.316   6.954  0.0378 -0.1876 -0.1628
 1333ERGO    R218747  11.413  14.352   7.154  0.1617  0.0219 -0.0737
 1333ERGO    R318748  11.478  14.095   7.216 -0.0208 -0.0185 -0.0492
 1333ERGO    R418749  11.293  14.177   7.427 -0.0644  0.0726 -0.1386
 1333ERGO    R518750  11.492  14.093   7.455 -0.1338 -0.0436 -0.0480
 1333ERGO    C118751  11.285  13.835   7.645 -0.3673  0.0642 -0.1535
 1333ERGO    C218752  11.056  13.612   7.788 -0.1442 -0.0060  0.1924
 1334ERGO   ROH18753  10.085   3.312   5.976 -0.3329 -0.1327  0.0737
 1334ERGO    R118754  10.014   3.269   6.246 -0.3613  0.0367  0.0933
 1334ERGO    R218755  10.201   3.251   6.448 -0.3651 -0.1211  0.0766
 1334ERGO    R318756  10.050   3.447   6.561 -0.1241  0.0939  0.0375
 1334ERGO    R418757  10.217   3.347   6.780 -0.4441 -0.2881  0.1303
 1334ERGO    R518758  10.000   3.365   6.780 -0.4272  0.0788 -0.0283
 1334ERGO    C118759  10.085   3.586   7.079 -0.2640 -0.1836  0.1250
 1334ERGO    C218760  10.190   3.595   7.388 -0.2550 -0.0272  0.0796
 1335ERGO   ROH18761   9.183   5.371   6.062  0.1189 -0.0832  0.0935
 1335ERGO    R118762   9.003   5.182   6.172  0.1459 -0.0767  0.1493
 1335ERGO    R218763   8.930   5.183   6.439  0.0393  0.0753  0.1220
 1335ERGO    R318764   8.678   5.189   6.336  0.0777 -0.0854  0.0151
 1335ERGO    R418765   8.640   5.188   6.627 -0.0410  0.0899 -0.0011
 1335ERGO    R518766   8.551   5.050   6.484  0.0695 -0.0365  0.0521
 1335ERGO    C118767   8.235   5.196   6.641 -0.0518 -0.0526 -0.1731
 1335ERGO    C218768   8.146   5.337   6.764  0.1450  0.1287 -0.0074
 1336ERGO   ROH18769   2.564   4.291   5.754  0.3600 -0.1259 -0.1494
 1336ERGO    R118770   2.700   4.386   5.983  0.1990 -0.0868 -0.0682
 1336ERGO    R218771   2.659   4.280   6.235  0.0503 -0.0709 -0.0824
 1336ERGO    R318772   2.929   4.249   6.230  0.0583 -0.0346  0.0925
 1336ERGO    R418773   2.845   4.133   6.486 -0.1043 -0.1660 -0.0222
 1336ERGO    R518774   2.997   4.287   6.457 -0.1029 -0.1342  0.1574
 1336ERGO    C118775   3.207   4.019   6.628 -0.1868 -0.1873  0.1771
 1336ERGO    C218776   3.405   3.741   6.704 -0.0310 -0.1700  0.2663
 1337ERGO   ROH18777   4.689   6.692   5.877  0.2277 -0.0599  0.1211
 1337ERGO    R118778   4.614   6.661   6.148  0.1152 -0.1493  0.0814
 1337ERGO    R218779   4.636   6.421   6.282  0.2007 -0.1597  0.0543
 1337ERGO    R318780   4.780   6.569   6.459  0.0248 -0.0953  0.1451
 1337ERGO    R418781   4.692   6.335   6.612  0.4260 -0.3696 -0.0355
 1337ERGO    R518782   4.662   6.544   6.666  0.1199 -0.4596  0.1595
 1337ERGO    C118783   4.859   6.424   6.971  0.3920 -0.4314 -0.0025
 1337ERGO    C218784   5.086   6.355   7.324 -0.0740  0.2995  0.3475
 1338ERGO   ROH18785   5.601   0.165   5.958 -0.3454 -0.0737  0.0536
 1338ERGO    R118786   5.679   0.106   6.224 -0.2550  0.0105  0.0461
 1338ERGO    R218787   5.906   0.213   6.339 -0.1366 -0.0664 -0.1138
 1338ERGO    R318788   5.731   0.294   6.531  0.0012  0.1315 -0.0679
 1338ERGO    R418789   5.997   0.344   6.646  0.0926 -0.1679 -0.1358
 1338ERGO    R518790   5.836   0.229   6.737 -0.0168  0.0119 -0.0950
 1338ERGO    C118791   5.886   0.496   7.005  0.3553 -0.0413 -0.1055
 1338ERGO    C218792   6.012   0.529   7.248 -0.3564 -0.2942 -0.1574
 1339ERGO   ROH18793  14.960   8.529   5.925 -0.0068 -0.0129  0.0100
 1339ERGO    R118794  15.114   8.615   6.146 -0.0482 -0.0125  0.0388
 1339ERGO    R218795  15.097   8.870   6.251 -0.0366  0.0011  0.0085
 1339ERGO    R318796  15.049   8.737   6.483 -0.1125  0.0313  0.0102
 1339ERGO    R418797  15.129   9.006   6.567  0.0683 -0.0222  0.0081
 1339ERGO    R518798  15.216   8.818   6.634 -0.0519 -0.0797  0.0026
 1339ERGO    C118799  15.103   8.960   6.969  0.0581 -0.0074  0.0095
 1339ERGO    C218800  14.926   9.133   7.298 -0.0664 -0.4044  0.0715
 1340ERGO   ROH18801   9.564  16.873   6.074  0.0313  0.0329 -0.0287
 1340ERGO    R118802   9.420  16.819   6.311  0.1498  0.0926  0.0580
 1340ERGO    R218803   9.324  16.567   6.372 -0.0957  0.1719  0.0129
 1340ERGO    R318804   9.462  16.606   6.603  0.1321 -0.0926 -0.0729
 1340ERGO    R418805   9.230  16.445   6.682 -0.0834  0.2756  0.0581
 1340ERGO    R518806   9.293  16.634   6.770  0.2909  0.1617  0.0498
 1340ERGO    C118807   9.306  16.411   7.079  0.1374  0.0877  0.0040
 1340ERGO    C218808   9.532  16.287   7.369 -0.0417 -0.1627  0.3083
 1341ERGO   ROH18809  16.741   7.875   5.981  0.1741  0.0324  0.2223
 1341ERGO    R118810  16.779   7.876   6.262  0.1000  0.0472  0.2334
 1341ERGO    R218811  16.627   8.031   6.433  0.0439  0.0477  0.1887
 1341ERGO    R318812  16.582   7.793   6.556  0.0251  0.0492  0.1828
 1341ERGO    R418813  16.665   7.973   6.771  0.0528  0.0276  0.1837
 1341ERGO    R518814  16.752   7.779   6.724  0.0287  0.0230  0.1737
 1341ERGO    C118815  16.645   7.716   7.084  0.0403  0.0172  0.1752
 1341ERGO    C218816  16.766   7.693   7.395  0.2573  0.0176  0.0470
 1342ERGO   ROH18817   1.699  14.185   6.201 -0.2732  0.0077 -0.0022
 1342ERGO    R118818   1.672  14.270   6.470  0.1712  0.2359 -0.0226
 1342ERGO    R218819   1.531  14.126   6.658 -0.1822  0.7721  0.1333
 1342ERGO    R318820   1.763  14.142   6.798 -0.0193  0.0986 -0.0193
 1342ERGO    R418821   1.566  14.046   6.993 -0.2448  0.8076  0.1501
 1342ERGO    R518822   1.697  14.219   7.015  0.3401  0.4252 -0.0077
 1342ERGO    C118823   1.805  14.015   7.319 -0.1283  0.1959  0.0168
 1342ERGO    C218824   1.967  13.928   7.627  0.2102 -0.1927  0.1411
 1343ERGO   ROH18825   3.287   7.033   5.868 -0.1193 -0.0711 -0.0119
 1343ERGO    R118826   3.280   7.132   6.133 -0.3183 -0.0677 -0.0186
 1343ERGO    R218827   3.233   6.970   6.351 -0.0798 -0.1359 -0.0236
 1343ERGO    R318828   3.466   7.078   6.441 -0.2647  0.2563  0.0122
 1343ERGO    R418829   3.329   6.983   6.683 -0.0019 -0.3180 -0.0366
 1343ERGO    R518830   3.406   7.184   6.647 -0.4307 -0.0982  0.1609
 1343ERGO    C118831   3.604   7.091   6.960 -0.1301 -0.0559 -0.0107
 1343ERGO    C218832   3.579   7.057   7.345 -0.0768 -0.3946 -0.1134
 1344ERGO   ROH18833  14.603   3.773   6.149  0.0930  0.1468 -0.1138
 1344ERGO    R118834  14.634   3.811   6.428  0.1004  0.0907 -0.1069
 1344ERGO    R218835  14.881   3.815   6.551  0.1032  0.0621 -0.1125
 1344ERGO    R318836  14.795   4.055   6.645  0.1095  0.0450 -0.0621
 1344ERGO    R418837  14.966   3.949   6.858  0.1520  0.0219 -0.1081
 1344ERGO    R518838  14.761   4.018   6.879  0.1528  0.0098 -0.0612
 1344ERGO    C118839  14.935   4.252   7.125  0.1862 -0.0176 -0.0582
 1344ERGO    C218840  14.872   4.416   7.446  0.3439  0.1987  0.2133
 1345ERGO   ROH18841  10.006   4.809   5.746  0.0373 -0.1152 -0.1090
 1345ERGO    R118842  10.126   4.891   5.989 -0.0165  0.0066 -0.1234
 1345ERGO    R218843   9.996   5.052   6.172 -0.0996  0.0026 -0.1810
 1345ERGO    R318844  10.058   4.851   6.344 -0.0250  0.0795 -0.1162
 1345ERGO    R418845  10.066   5.094   6.508 -0.2482  0.1241 -0.1638
 1345ERGO    R518846  10.224   4.945   6.488 -0.1385  0.2247 -0.0757
 1345ERGO    C118847  10.164   4.930   6.865 -0.2648  0.2671 -0.0929
 1345ERGO    C218848  10.368   4.999   7.188 -0.0745  0.3034 -0.3836
 1346ERGO   ROH18849  17.643  13.252   5.929  0.2188 -0.1266 -0.2554
 1346ERGO    R118850  17.787  13.192   6.165  0.0576  0.1503 -0.0812
 1346ERGO    R218851  17.734  13.316   6.406 -0.3782  0.1523 -0.1663
 1346ERGO    R318852  17.710  13.060   6.495 -0.1080  0.1396 -0.1240
 1346ERGO    R418853  17.652  13.226   6.730 -0.4144  0.1194 -0.1854
 1346ERGO    R518854  17.799  13.066   6.718 -0.2137  0.2941 -0.0859
 1346ERGO    C118855  17.581  12.934   7.001 -0.1818  0.0882 -0.1569
 1346ERGO    C218856  17.433  12.973   7.309  0.3745  0.2405  0.1091
 1347ERGO   ROH18857   4.788  12.301   5.700 -0.0806 -0.2922 -0.1338
 1347ERGO    R118858   4.750  12.092   5.887 -0.0196 -0.1459  0.0441
 1347ERGO    R218859   4.923  12.048   6.098 -0.0084  0.0842  0.0807
 1347ERGO    R318860   4.695  12.066   6.245 -0.0121  0.1390  0.0698
 1347ERGO    R418861   4.895  11.958   6.431 -0.0554  0.0225  0.0609
 1347ERGO    R518862   4.700  11.872   6.386 -0.0893  0.1030  0.0291
 1347ERGO    C118863   4.664  11.923   6.762 -0.0863  0.0380  0.0390
 1347ERGO    C218864   4.682  11.939   7.078  0.2007 -0.0556 -0.0989
 1348ERGO   ROH18865   0.751  14.547   6.450 -0.5394  0.1060  0.1197
 1348ERGO    R118866   0.662  14.543   6.719 -0.3901  0.1094  0.1700
 1348ERGO    R218867   0.776  14.380   6.910 -0.2596  0.1373  0.1179
 1348ERGO    R318868   0.805  14.615   7.046 -0.2183  0.1501  0.0868
 1348ERGO    R418869   0.710  14.423   7.247 -0.1130  0.1597  0.1442
 1348ERGO    R518870   0.622  14.617   7.200 -0.1494  0.1482  0.1684
 1348ERGO    C118871   0.700  14.668   7.570  0.0112  0.1847  0.1304
 1348ERGO    C218872   0.624  14.787   7.880 -0.3860 -0.0508 -0.2717
 1349W        W18873  16.671  11.689   0.200 -0.1053 -0.0693 -0.3027
 1350W        W18874   8.524   0.824  12.402  0.1707  0.0804 -0.0346
 1351W        W18875   9.102  12.863   5.583  0.2462  0.1004  0.0983
 1352W        W18876   0.057   5.421  14.677  0.1063 -0.3924  0.1198
 1353W        W18877  15.225   9.242   1.223 -0.1628  0.3031  0.1595
 1354W        W18878   9.570   9.906  13.970 -0.0798  0.2822  0.1440
 1355W        W18879   5.892  14.872  14.070 -0.3507 -0.2992  0.1346
 1356W        W18880   2.663   6.837  14.424  0.1063  0.1938  0.2027
 1357W        W18881  18.226  12.311  11.571 -0.1725  0.2500  0.0136
 1358W        W18882   6.053   7.722   0.763  0.0448 -0.0109 -0.0382
 1359W        W18883  15.177  15.868   4.215  0.2640 -0.0989  0.0359
 1360W        W18884  18.161  10.394  11.509 -0.0158  0.0468  0.0632
 1361W        W18885  15.450  12.857  11.240  0.1048 -0.3004  0.0843
 1362W        W18886   3.892   0.269  12.520 -0.0675  0.2989  0.2079
 1363W        W18887  10.222  10.290  12.123 -0.0543 -0.1760 -0.1207
 1364W        W18888   6.860  15.191   3.403  0.0972 -0.1202  0.0773
 1365W        W18889   2.638  14.027  12.947 -0.0232 -0.0216 -0.2290
 1366W        W18890   6.801   1.715   4.306  0.1154  0.2785  0.0678
 1367W        W18891  10.444  17.759   3.999  0.2281 -0.1694 -0.0661
 1368W        W18892  14.234  15.670  11.374  0.0149 -0.3142  0.1193
 1369W        W18893   6.352  15.965  14.437 -0.0506 -0.0274  0.0405
 1370W        W18894   8.488   3.713  11.612 -0.1403  0.0280 -0.0919
 1371W        W18895   7.213  18.421  15.653 -0.3013 -0.1299  0.0820
 1372W        W18896   8.110   3.805  11.057 -0.1554  0.1681  0.1225
 1373W        W18897  11.163   8.519  11.257  0.0419 -0.2228 -0.3226
 1374W        W18898   2.142  13.790   4.548  0.0489 -0.1300  0.0097
 1375W        W18899  17.345   5.515   1.523  0.2462  0.0440  0.0315
 1376W        W18900   3.264   7.452   0.271 -0.0047 -0.0994  0.0259
 1377W        W18901  13.930   6.285   0.215  0.0472  0.4403  0.4093
 1378W        W18902   6.730  11.352   5.179  0.0905  0.2108  0.1647
 1379W        W18903   8.564  15.623  11.612 -0.0174  0.0655  0.0316
 1380W        W18904  11.382  16.602   2.854 -0.2361  0.0031  0.0403
 1381W        W18905   1.565   0.970  11.465 -0.0337 -0.1692 -0.0429
 1382W        W18906  17.351  17.926   1.716 -0.0887  0.1255 -0.1266
 1383W        W18907   7.554  16.404   2.402 -0.1050 -0.2941 -0.4792
 1384W        W18908   7.938   7.745   3.991  0.0859 -0.0160 -0.1201
 1385W        W18909  10.793  13.020   4.358 -0.2587  0.0519 -0.1423
 1386W        W18910  17.181  14.032  14.464 -0.3953 -0.0952  0.2816
 1387W        W18911   5.210   7.510  14.108  0.2016 -0.0691 -0.2276
 1388W        W18912  16.487   9.922   2.902 -0.2221  0.0412 -0.0405
 1389W        W18913   8.491   5.512  11.715 -0.0590 -0.3300  0.0963
 1390W        W18914   9.707   4.040   2.796  0.1205  0.0151 -0.1008
 1391W        W18915   4.552   0.815   5.282  0.0298  0.1312  0.0142
 1392W        W18916   2.149  14.338  11.512 -0.2404 -0.2469  0.1172
 1393W        W18917   3.575   3.199  13.476 -0.1611 -0.1700 -0.2658
 1394W        W18918   0.302  12.255  13.721 -0.0565 -0.2058 -0.0446
 1395W        W18919   2.771   4.994  12.993  0.1027  0.1405  0.0795
 1396W        W18920  15.776   4.738   0.160 -0.0968  0.2977  0.0938
 1397W        W18921  10.435   9.857  12.228 -0.0021  0.0074 -0.0582
 1398W        W18922  10.027  11.704   2.846  0.2568 -0.0433  0.0325
 1399W        W18923  13.403  14.752  14.939 -0.0337 -0.3012 -0.2563
 1400W        W18924  16.983   7.463   2.199 -0.1186  0.1457 -0.1174
 1401W        W18925   9.443   4.565  11.217 -0.0722  0.3260  0.2459
 1402W        W18926   6.729  13.009   3.350  0.2002  0.1379 -0.0467
 1403W        W18927   7.942   7.418  11.427 -0.0134 -0.2810  0.0402
 1404W        W18928  16.666   1.291   1.234  0.0593 -0.2176  0.1911
 1405W        W18929   7.886   7.459  13.294 -0.1214  0.0352  0.0380
 1406W        W18930   1.673   8.724  14.684  0.0969 -0.0777 -0.3865
 1407W        W18931   1.376   5.879  10.220  0.0325  0.1566  0.1262
 1408W        W18932  11.247  17.991  13.110 -0.1263 -0.3012  0.1357
 1409W        W18933  11.580  17.234  15.438 -0.0641  0.3831  0.0386
 1410W        W18934  18.482   5.846   3.615 -0.1144  0.1182  0.1553
 1411W        W18935   9.079   8.068  12.160  0.1753 -0.0531 -0.3695
 1412W        W18936  15.158   8.169   1.585 -0.0938 -0.1077  0.0455
 1413W        W18937   1.817  16.064  14.227  0.1742  0.1538 -0.0720
 1414W        W18938   8.108  16.976  14.925 -0.2398 -0.0702 -0.0988
 1415W        W18939   9.030  13.995  14.231 -0.0450 -0.2921 -0.0974
 1416W        W18940   4.350  12.140   1.599 -0.3573  0.2642 -0.1372
 1417W        W18941  15.675  14.508   4.641  0.2385 -0.0055  0.2748
 1418W        W18942   9.099  11.200  14.090 -0.1512 -0.1463 -0.1392
 1419W        W18943  16.661   2.914  15.336 -0.0578 -0.3038  0.3473
 1420W        W18944  12.735  15.633   3.045  0.2071  0.1114 -0.2012
 1421W        W18945   7.662   3.679  15.365 -0.0477 -0.4678  0.3024
 1422W        W18946   6.373   6.653  11.785 -0.1259  0.0358  0.1641
 1423W        W18947   2.736   9.106   1.562  0.2326  0.1139 -0.0151
 1424W        W18948   8.961  15.201   2.555 -0.1973  0.0791  0.1326
 1425W        W18949   0.489   3.548   2.059 -0.1590 -0.0561 -0.3209
 1426W        W18950  13.815  10.990  14.490 -0.0750  0.0188  0.3056
 1427W        W18951  10.279   0.874  12.760 -0.0829 -0.0416  0.1935
 1428W        W18952  16.912  15.181   0.078  0.1764 -0.0957 -0.0097
 1429W        W18953   6.855   8.324   0.449  0.0790  0.0814 -0.0604
 1430W        W18954  14.750   8.118   5.056 -0.0414  0.0601 -0.1361
 1431W        W18955   4.905   0.305  13.659  0.2490 -0.3630 -0.2349
 1432W        W18956   7.634   1.394   0.281  0.0395  0.0358  0.0602
 1433W        W18957  11.100   0.765   4.020  0.0169 -0.3971 -0.1278
 1434W        W18958   9.964  17.617  11.201  0.2888  0.0184  0.0045
 1435W        W18959   5.231   6.127   5.490  0.0776 -0.1310 -0.0067
 1436W        W18960   7.763   5.708   5.385 -0.0574 -0.3531  0.0490
 1437W        W18961   6.851   0.687   1.711 -0.0749 -0.2318  0.0434
 1438W        W18962   9.445   8.485   2.080 -0.1002 -0.4217 -0.0435
 1439W        W18963   8.905  18.215  12.437  0.1074 -0.2177 -0.1923
 1440W        W18964   3.761  11.803   4.360 -0.0638 -0.1015 -0.0261
 1441W        W18965   9.095   2.170  15.181  0.0390  0.0625  0.2403
 1442W        W18966  10.335  17.814  12.972  0.1951  0.0486 -0.0958
 1443W        W18967  17.898  17.821  13.528  0.0703 -0.0984  0.0003
 1444W        W18968   9.289  14.008   2.094  0.2896 -0.3609  0.0792
 1445W        W18969   5.375   9.249   0.034  0.0253  0.0331 -0.4509
 1446W        W18970  13.146   9.295   5.086  0.1660 -0.1858 -0.0342
 1447W        W18971   1.385   8.728  12.374 -0.5458  0.0639  0.1571
 1448W        W18972  10.434  14.617   2.299  0.1473  0.1162  0.1651
 1449W        W18973   5.074  11.387   1.246 -0.0396 -0.4290  0.1806
 1450W        W18974   1.403   1.660  12.984  0.2411  0.0047  0.0611
 1451W        W18975  17.189   5.133   3.992  0.1406 -0.0891 -0.0545
 1452W        W18976   1.007  18.364   2.997  0.1939 -0.1137  0.2257
 1453W        W18977  13.352   3.652  10.526 -0.0820  0.1898  0.0635
 1454W        W18978   9.980   7.461  12.332  0.2528 -0.2919  0.1201
 1455W        W18979   5.486   3.102   3.356  0.2283  0.1757  0.2561
 1456W        W18980   5.828  11.940   0.179 -0.1956  0.2471  0.0142
 1457W        W18981   0.183   2.981  15.569 -0.2360  0.0967  0.0225
 1458W        W18982   1.015   5.875  14.184 -0.0282 -0.0743  0.0808
 1459W        W18983   4.796   8.738   9.820  0.1025 -0.0651 -0.0422
 1460W        W18984  16.926   0.435  14.586  0.1069  0.2773  0.0651
 1461W        W18985   2.523   3.767  13.460  0.0548 -0.0749 -0.0828
 1462W        W18986   4.379  11.302   3.722 -0.2838 -0.2178  0.2206
 1463W        W18987  17.249  13.222   3.788  0.0207 -0.1373  0.0478
 1464W        W18988  13.960   5.256  14.800 -0.0582  0.1928 -0.1131
 1465W        W18989  15.472   6.503   1.097 -0.1260  0.0589  0.1278
 1466W        W18990   8.165  18.138   0.389  0.0534  0.2387 -0.2696
 1467W        W18991  15.569  13.028   2.298  0.2484  0.0422  0.1412
 1468W        W18992  15.707   6.473   3.209 -0.0030 -0.2155  0.2454
 1469W        W18993   2.668   3.805   1.498  0.0446 -0.2447 -0.1304
 1470W        W18994  14.075   9.870   2.490  0.0609  0.1365 -0.1879
 1471W        W18995   6.519  13.911  12.359 -0.3673  0.0286  0.1004
 1472W        W18996  12.222  15.042   0.728  0.1929  0.0567 -0.0623
 1473W        W18997  17.661   2.941  13.133  0.1826  0.1455 -0.1424
 1474W        W18998   3.317   7.965  15.274 -0.2446 -0.2429  0.0090
 1475W        W18999  16.148   2.197   4.865 -0.3647 -0.1428 -0.0573
 1476W        W19000  17.666  18.227  15.663  0.0460  0.0366  0.0012
 1477W        W19001   5.859  16.628   3.038  0.1754 -0.0151  0.0031
 1478W        W19002  17.519   9.619  11.706  0.0095  0.0385 -0.2405
 1479W        W19003  13.957  13.472   2.641  0.0007  0.2520 -0.0969
 1480W        W19004   1.589  13.439  11.169  0.0713  0.1167 -0.1464
 1481W        W19005   4.013  11.061   4.003 -0.1563 -0.1205  0.2141
 1482W        W19006   7.873   5.799  14.401  0.2498  0.1663 -0.0704
 1483W        W19007   0.161  15.235  15.542 -0.1083  0.0513  0.1067
 1484W        W19008   2.444  13.742   0.305 -0.1907  0.1854  0.0907
 1485W        W19009   4.372  12.818   0.687 -0.0329  0.0061  0.1172
 1486W        W19010   3.077  10.926  12.540  0.0348  0.1584  0.0522
 1487W        W19011   3.265   8.426  14.977 -0.1100 -0.2843  0.0202
 1488W        W19012  13.332   4.827   0.784  0.2567 -0.0741 -0.1802
 1489W        W19013   4.204   0.748  15.096 -0.2523 -0.3242 -0.2757
 1490W        W19014  12.807   2.592  11.108 -0.3696 -0.2867  0.0719
 1491W        W19015   4.430  16.369  15.183 -0.1794  0.0214  0.1995
 1492W        W19016   0.646  11.964   1.495 -0.2811 -0.2870 -0.1213
 1493W        W19017  16.529   0.418   4.331 -0.2808  0.4188  0.0775
 1494W        W19018   0.171  13.457   2.833  0.0443 -0.0219  0.1237
 1495W        W19019   3.360   2.864   5.731  0.1295  0.5161 -0.0108
 1496W        W19020  16.811  13.579   0.209  0.1633  0.0127 -0.1587
 1497W        W19021  13.320   0.500   2.952  0.1752 -0.0685 -0.1683
 1498W        W19022   0.826   6.024  11.511  0.1033 -0.3046 -0.1602
 1499W        W19023   7.339  17.711  13.632  0.0838  0.0057  0.2663
 1500W        W19024  15.182   0.467   2.743  0.0053  0.1288  0.1033
 1501W        W19025  15.100   5.956  10.777  0.1138 -0.0799  0.0599
 1502W        W19026   2.223  11.133  12.257  0.1501 -0.1485 -0.0316
 1503W        W19027   6.939  15.693  12.548  0.0664  0.0213 -0.1063
 1504W        W19028   5.638  14.171   3.738  0.1853  0.0182 -0.1103
 1505W        W19029  11.290  15.733  12.679  0.1898 -0.1558  0.1413
 1506W        W19030   6.245   2.920   1.130  0.1123  0.1662  0.0250
 1507W        W19031   7.434   2.447  13.204 -0.0263  0.1093 -0.0058
 1508W        W19032  11.121   8.905  11.602  0.2246  0.1974 -0.4296
 1509W        W19033   7.433   4.766  11.914  0.3520  0.0860 -0.0894
 1510W        W19034   4.321   7.911  10.752 -0.0578  0.0563 -0.0175
 1511W        W19035   4.372  10.792  13.066  0.3354  0.1562 -0.0713
 1512W        W19036   9.908   0.803  11.557  0.0793  0.1666 -0.0290
 1513W        W19037  14.012   2.752   3.812 -0.0783  0.3340 -0.2677
 1514W        W19038   9.247   0.675   1.162  0.3245  0.1232 -0.0784
 1515W        W19039   0.961  18.301   3.756 -0.0316 -0.0618 -0.0919
 1516W        W19040  16.968   4.871   0.411  0.0852  0.3706  0.1285
 1517W        W19041   5.758   6.299  12.488 -0.2595  0.0986 -0.0651
 1518W        W19042   1.148  11.725  14.922  0.3591 -0.0698 -0.3010
 1519W        W19043   9.202  13.893   4.041  0.1672 -0.1054 -0.1481
 1520W        W19044  15.256   4.101   4.902  0.0391  0.0108  0.2091
 1521W        W19045  18.469   1.893  14.227  0.2209 -0.1243 -0.0025
 1522W        W19046   3.581   0.116   2.008  0.0926  0.1130 -0.0712
 1523W        W19047   1.930   4.649   2.977 -0.5441 -0.1275 -0.1216
 1524W        W19048  14.481   5.290   0.572 -0.0248  0.0437 -0.0490
 1525W        W19049  12.077   5.414   0.294  0.2789  0.0214  0.1081
 1526W        W19050  10.112  16.319  11.025  0.0964  0.0592 -0.2406
 1527W        W19051   7.825   3.531   2.657 -0.2510 -0.3426  0.0765
 1528W        W19052  16.764  10.462  13.340 -0.1460  0.0076  0.0135
 1529W        W19053  15.620   5.103  15.112 -0.2807 -0.0476 -0.4059
 1530W        W19054   9.071   0.140  12.645 -0.0050  0.1167 -0.1972
 1531W        W19055   1.649   4.453  15.552 -0.1722  0.3934  0.0940
 1532W        W19056  12.655  17.172   0.457 -0.2203 -0.2550 -0.0902
 1533W        W19057  15.195  15.873   1.551  0.3338  0.1703  0.2670
 1534W        W19058  15.837   5.761   2.656  0.0072 -0.0988  0.2375
 1535W        W19059   0.348  11.386   1.716  0.1590 -0.0551 -0.0093
 1536W        W19060   3.116  13.204   2.716  0.1859  0.3812  0.0904
 1537W        W19061   6.374   4.018   1.720 -0.0164 -0.2477  0.1846
 1538W        W19062   9.076  16.181   2.842 -0.1833 -0.2298 -0.2368
 1539W        W19063   9.948  16.745  15.709  0.2335 -0.0822  0.0519
 1540W        W19064   8.605   5.025   2.833 -0.1794  0.0972 -0.1289
 1541W        W19065  12.984   8.585  13.447 -0.0539  0.0947  0.0500
 1542W        W19066  17.241   4.132   1.562  0.1542  0.0230 -0.1178
 1543W        W19067  13.409   7.323  13.826  0.1142 -0.0157  0.4604
 1544W        W19068   7.018  16.906   1.933 -0.1965  0.1351  0.2092
 1545W        W19069   4.326   2.663   1.168  0.1649 -0.2139  0.2818
 1546W        W19070   2.220   8.204  12.487  0.0810 -0.0485 -0.2811
 1547W        W19071   7.287   6.257   4.005  0.1527 -0.0979 -0.1323
 1548W        W19072   4.662  15.538  13.525 -0.1856  0.0671  0.4636
 1549W        W19073   9.656  17.792   1.460  0.2634 -0.2020 -0.0328
 1550W        W19074   3.757  14.766   3.402 -0.0578 -0.1731  0.0501
 1551W        W19075   2.011  17.808  12.254  0.0537  0.3061  0.0750
 1552W        W19076  10.392  14.567   4.302  0.0370  0.1474 -0.0950
 1553W        W19077   8.583   4.547   3.022 -0.2326 -0.1881  0.3023
 1554W        W19078   6.759  11.650   1.215  0.1754 -0.3246 -0.1554
 1555W        W19079  15.709   6.326   0.053 -0.0385 -0.1304  0.0354
 1556W        W19080   3.332   8.879   0.254 -0.0080  0.1451  0.0510
 1557W        W19081   2.343  16.350  15.032  0.2044 -0.1527  0.1828
 1558W        W19082   0.013   3.890  13.589  0.1295 -0.1351 -0.0272
 1559W        W19083   4.770  17.057  12.738 -0.0351  0.0450  0.1327
 1560W        W19084   1.451   1.559  15.474 -0.0531 -0.1807  0.0071
 1561W        W19085  15.725   2.367  11.909 -0.2816  0.4590  0.0390
 1562W        W19086   6.254  15.679   0.175  0.0802 -0.3820  0.2677
 1563W        W19087  11.023   0.248   0.037 -0.0942 -0.1004  0.1730
 1564W        W19088  17.062   6.814  13.969  0.1088  0.1183  0.2044
 1565W        W19089  17.722  13.303  12.359 -0.0123  0.4654  0.3172
 1566W        W19090   0.436  12.378  12.421 -0.2057  0.0054 -0.4003
 1567W        W19091  17.631   8.630   4.598 -0.1588 -0.1795  0.0132
 1568W        W19092   5.877  11.750  11.309 -0.2928  0.2119 -0.2661
 1569W        W19093   1.901  14.281   4.350  0.1667  0.2586 -0.0507
 1570W        W19094  10.492  14.886   3.273 -0.1413  0.0858 -0.1913
 1571W        W19095  10.934   7.484   1.487 -0.0252 -0.1103 -0.0658
 1572W        W19096  13.645  13.824  13.813  0.2535 -0.0740 -0.0147
 1573W        W19097   0.574  12.029   1.033  0.3748  0.0072 -0.3597
 1574W        W19098  11.500   3.064  12.769 -0.2093 -0.4256  0.1145
 1575W        W19099  10.605  16.231  11.852 -0.2751 -0.0668 -0.0736
 1576W        W19100  18.335   7.916   4.493  0.1261  0.0805  0.2487
 1577W        W19101  12.314   7.680  12.422  0.1405  0.0328  0.0402
 1578W        W19102  16.114   3.899   0.890  0.0898  0.3105 -0.2726
 1579W        W19103  10.464  14.702  13.872 -0.0322  0.2490  0.1554
 1580W        W19104  16.296   8.233   4.599 -0.2919  0.0227  0.2060
 1581W        W19105   1.781   5.694   4.988 -0.1469  0.0713 -0.3167
 1582W        W19106   3.165  14.912   0.468 -0.1009  0.0587 -0.0014
 1583W        W19107   4.546   0.973   0.409  0.0924 -0.1775  0.0574
 1584W        W19108   4.200  12.334   0.487 -0.1435  0.3844 -0.1534
 1585W        W19109  17.060   4.187   3.568 -0.2472 -0.1666  0.0897
 1586W        W19110  12.472  11.963   4.709 -0.1089 -0.2772 -0.0066
 1587W        W19111   6.449   2.015  11.359 -0.1031  0.0985 -0.1351
 1588W        W19112   2.128   0.688  12.541  0.3141  0.1984 -0.1250
 1589W        W19113   3.808   1.857   3.245  0.0885  0.1055 -0.1871
 1590W        W19114   0.204  13.573   1.186  0.0192 -0.1679 -0.0296
 1591W        W19115   9.153   6.297  13.664  0.0127  0.0318 -0.0745
 1592W        W19116   1.243   2.635  14.225 -0.1111  0.4501  0.2395
 1593W        W19117  15.127   8.791   3.369  0.0706  0.2170 -0.2540
 1594W        W19118   5.049   5.671   1.607 -0.1822 -0.0577 -0.0579
 1595W        W19119   9.497  15.013   2.371  0.1662 -0.1634 -0.0393
 1596W        W19120   6.425   0.053   2.048  0.1368  0.0975  0.1895
 1597W        W19121   1.319   9.234  14.404  0.1703 -0.1763  0.2914
 1598W        W19122   8.862  13.422  12.123  0.0476 -0.0808  0.1472
 1599W        W19123   5.517   1.666   1.302  0.1535  0.0304  0.2221
 1600W        W19124  18.458   6.494  12.787 -0.2552 -0.0188 -0.2027
 1601W        W19125   0.978   4.862  13.173 -0.1835 -0.2018  0.0799
 1602W        W19126  16.115  12.777  13.666 -0.1341 -0.0613  0.1632
 1603W        W19127  13.598  12.007   2.093  0.1336 -0.2314 -0.0262
 1604W        W19128   3.437   6.154   3.849  0.2662 -0.0007  0.0249
 1605W        W19129  12.493  14.463  15.046  0.0082  0.1432  0.0549
 1606W        W19130  17.014   5.829   1.700 -0.0406 -0.0876 -0.2431
 1607W        W19131   4.498   4.920   0.140 -0.1495 -0.5254 -0.1891
 1608W        W19132  10.856   7.384  11.165  0.3028 -0.1566 -0.0592
 1609W        W19133  17.354   9.714  14.711  0.2397  0.0386 -0.0670
 1610W        W19134   6.484  14.873   5.271 -0.1395 -0.2681 -0.0671
 1611W        W19135  17.321  13.593   1.198  0.2893 -0.2274  0.1182
 1612W        W19136  15.057   3.013   5.029 -0.1132  0.0919  0.1115
 1613W        W19137   9.414  11.320   4.829  0.2795 -0.1770 -0.0005
 1614W        W19138   4.785  15.335  12.678 -0.0092  0.3074  0.1185
 1615W        W19139  10.642  13.918  11.760 -0.0226 -0.1879 -0.1254
 1616W        W19140  15.506  15.850  14.759  0.0734  0.0604 -0.0853
 1617W        W19141  16.875   7.900   0.910  0.0263 -0.3259 -0.0647
 1618W        W19142   0.602   6.540  14.056 -0.1355  0.1545  0.1383
 1619W        W19143   0.074  16.299   4.776 -0.3008  0.3819 -0.1618
 1620W        W19144   9.760   8.393  11.819  0.0172 -0.0129 -0.1616
 1621W        W19145  13.028  10.015   4.464 -0.0268 -0.0766  0.0475
 1622W        W19146  13.241  10.453   3.608  0.0557 -0.3108  0.0036
 1623W        W19147   7.828  18.008  11.121  0.4382  0.3179  0.2806
 1624W        W19148  14.806  16.176  15.438 -0.2325  0.0089  0.2304
 1625W        W19149  14.882   8.151  15.357  0.0359  0.0441 -0.0567
 1626W        W19150  12.907   9.825   5.001  0.2899  0.0981 -0.0248
 1627W        W19151  10.847  15.005   3.586 -0.3015 -0.1060  0.0431
 1628W        W19152   4.855  14.284   3.000  0.2138  0.0319  0.2369
 1629W        W19153  10.104  11.236  11.633  0.2650  0.0091 -0.1817
 1630W        W19154   2.299   5.904   4.922  0.0566  0.0747 -0.1589
 1631W        W19155   9.342  18.099  11.815  0.2646  0.4676  0.1975
 1632W        W19156  15.952   8.461   4.369  0.1162  0.2965  0.2449
 1633W        W19157   3.256  18.157   3.455 -0.3078 -0.2361  0.0089
 1634W        W19158  12.316   2.258   4.638 -0.4515  0.0543  0.0609
 1635W        W19159   4.873  15.993   1.476 -0.2963 -0.5607 -0.1872
 1636W        W19160   9.965  13.909  15.418  0.2130 -0.3654  0.1591
 1637W        W19161   6.564  11.019  12.643 -0.1424  0.2172  0.0270
 1638W        W19162  10.440  17.366  11.117 -0.1298 -0.0947 -0.1760
 1639W        W19163  16.009  10.366   1.301 -0.0037  0.4874 -0.0551
 1640W        W19164   1.389   0.983  11.967  0.0524  0.1724  0.1314
 1641W        W19165  13.835   0.993  12.871 -0.0690 -0.0352  0.0006
 1642W        W19166   1.011   7.943  12.273  0.2277 -0.2603  0.4884
 1643W        W19167  16.477   2.506  11.169 -0.1077  0.1100  0.1379
 1644W        W19168   4.469   3.994  15.364 -0.0278 -0.0386  0.2586
 1645W        W19169   4.904   0.866   0.858 -0.2082 -0.1197  0.1367
 1646W        W19170   7.901   6.694   3.621  0.0567 -0.1088  0.2362
 1647W        W19171  13.898  17.371  14.741  0.2562 -0.1600  0.1899
 1648W        W19172   0.423  17.737  12.574 -0.0862  0.1165  0.0676
 1649W        W19173   2.675   0.526  12.134  0.0110 -0.2890  0.1195
 1650W        W19174   4.201   1.113   3.612  0.0016 -0.3501 -0.0300
 1651W        W19175   8.015  15.348   2.128 -0.0304 -0.0624 -0.0290
 1652W        W19176  17.849  13.224  11.645 -0.1320  0.1386 -0.2686
 1653W        W19177   8.559  11.431   3.109  0.3214 -0.1573  0.1254
 1654W        W19178   3.520   3.659  13.068  0.0081  0.3174  0.1599
 1655W        W19179  15.699   3.384   3.318  0.0352  0.1317  0.0302
 1656W        W19180   7.840  12.449  11.047 -0.1685  0.1717  0.1324
 1657W        W19181   4.804   6.654   1.289  0.0548 -0.1838 -0.2379
 1658W        W19182   2.177   3.352   9.622  0.1304  0.0608  0.0059
 1659W        W19183   5.676   8.314   1.987 -0.0455 -0.0587 -0.1305
 1660W        W19184   5.566   1.416  13.118  0.0670  0.0046 -0.2694
 1661W        W19185  16.808   1.119  12.807  0.0418 -0.0665 -0.0609
 1662W        W19186   7.566  15.130   0.936  0.0264  0.0521 -0.1727
 1663W        W19187   0.074  10.144  12.401 -0.0752 -0.2618  0.0831
 1664W        W19188   3.114   8.462   0.514 -0.1388 -0.1826  0.2093
 1665W        W19189   5.159  15.441   3.772 -0.1070 -0.2301  0.0833
 1666W        W19190  15.223   1.916   4.368  0.0934 -0.1127 -0.2076
 1667W        W19191  17.902   4.901   0.262 -0.0445  0.1330 -0.1449
 1668W        W19192  17.921   3.743   2.159 -0.2062  0.0926  0.0497
 1669W        W19193   4.445  10.175  12.607  0.0847 -0.1308 -0.1471
 1670W        W19194  15.657   2.476   0.110 -0.1027 -0.3206 -0.1830
 1671W        W19195  16.912   8.058  13.882 -0.0377  0.0428  0.1515
 1672W        W19196  13.669   9.612  11.050 -0.0012  0.1621 -0.1159
 1673W        W19197  15.640  14.224   5.051 -0.1336  0.0426 -0.3318
 1674W        W19198   3.384  17.405  14.595  0.2040  0.0497  0.2396
 1675W        W19199   0.748   0.427   4.258 -0.0971  0.0587 -0.1069
 1676W        W19200   6.453   5.771   2.743  0.0229  0.3413  0.1172
 1677W        W19201  16.746   9.878  10.263  0.0342 -0.2882 -0.2287
 1678W        W19202   2.687   3.500   4.147  0.3299  0.0229 -0.2994
 1679W        W19203  12.225   2.107  12.839  0.2393  0.2457 -0.1237
 1680W        W19204  15.465  11.143   0.429 -0.4361  0.2067 -0.3315
 1681W        W19205   3.642  18.113   1.965 -0.1999  0.2275 -0.0461
 1682W        W19206   0.331  14.331  14.663 -0.3951 -0.0004 -0.1613
 1683W        W19207  16.876   7.917   3.350  0.1902  0.0702  0.0547
 1684W        W19208  17.393  10.453  14.690  0.0410 -0.0982  0.1489
 1685W        W19209   6.907  15.571   3.936  0.0136 -0.5600 -0.3697
 1686W        W19210  18.212   1.937   1.808  0.1875 -0.1634 -0.0538
 1687W        W19211   9.572  15.192   4.705  0.0180 -0.0369 -0.0127
 1688W        W19212   2.526   6.366  15.375  0.1391 -0.2545 -0.0413
 1689W        W19213   2.919  11.534  12.705  0.1952 -0.0515 -0.0597
 1690W        W19214   8.304  16.327   0.177  0.2246  0.0014 -0.2295
 1691W        W19215   7.120   7.554   1.832  0.2960 -0.3445  0.1406
 1692W        W19216   1.554   1.327   3.672 -0.0238  0.1161 -0.2909
 1693W        W19217  10.233   8.787   4.005 -0.2612  0.0671  0.1343
 1694W        W19218  13.870   0.320   2.785  0.0960 -0.1398  0.3369
 1695W        W19219   7.085   5.568  14.435  0.1086  0.2688 -0.1849
 1696W        W19220   4.481   3.412   1.849 -0.1637  0.3599 -0.1484
 1697W        W19221  11.228  17.960  10.089  0.2927  0.0536  0.4011
 1698W        W19222  10.201   6.088   0.546  0.0138  0.0239 -0.2267
 1699W        W19223  13.373  13.036   1.012 -0.0027 -0.1557 -0.0734
 1700W        W19224  11.393  13.843  12.515  0.0397  0.4659 -0.0777
 1701W        W19225   7.604   8.174  15.125 -0.0946  0.0296 -0.1627
 1702W        W19226  11.992   0.175   1.661 -0.0208 -0.1159 -0.2523
 1703W        W19227   9.812   3.020  15.580 -0.2993  0.1251  0.1313
 1704W        W19228  13.847   1.869  12.655  0.0444 -0.2253 -0.0189
 1705W        W19229  12.908   0.327   1.698  0.1190 -0.3100 -0.0287
 1706W        W19230  11.381  10.693  14.173 -0.1580  0.1623 -0.2026
 1707W        W19231  15.787   2.758   1.512  0.2804  0.1052  0.0859
 1708W        W19232  13.955   5.764   0.990  0.3724 -0.3041 -0.2797
 1709W        W19233  13.698  16.502  12.422  0.0982  0.0718  0.0551
 1710W        W19234  15.411   4.310   0.303 -0.1370  0.5263 -0.0657
 1711W        W19235   3.964   9.952  11.841 -0.1352  0.2914  0.0658
 1712W        W19236  18.414   0.372   1.692 -0.2464  0.0535 -0.3243
 1713W        W19237   0.745  14.338  14.406 -0.2369  0.2121  0.2022
 1714W        W19238  14.336   1.639  12.812 -0.0308 -0.0242 -0.1061
 1715W        W19239   4.848   5.931  13.543  0.0822  0.3007  0.0288
 1716W        W19240   3.242  16.734  14.833  0.0865  0.1151 -0.0675
 1717W        W19241  16.293  14.819  14.031  0.0671  0.1638 -0.5851
 1718W        W19242   4.760  10.969  14.771 -0.2517 -0.1791  0.2262
 1719W        W19243   7.950   9.344  10.850 -0.0054  0.1454 -0.0163
 1720W        W19244   8.646   1.900  11.522  0.0437  0.3566 -0.0829
 1721W        W19245  12.912  10.729  10.740  0.1432  0.0830  0.1165
 1722W        W19246   9.946   4.620  11.256  0.0358 -0.0623 -0.3436
 1723W        W19247  16.961  14.500   1.242  0.0069  0.2434 -0.0560
 1724W        W19248  12.347   9.754   2.256 -0.0790 -0.0011  0.3405
 1725W        W19249   6.705  16.776   2.430 -0.0846  0.1004 -0.1648
 1726W        W19250   7.311  14.921   3.506  0.1616  0.3253  0.2905
 1727W        W19251  10.117  16.282   3.824  0.2847  0.1203  0.0734
 1728W        W19252   4.642   5.976  10.589 -0.1306 -0.1549 -0.1775
 1729W        W19253  12.133   3.148  15.326  0.1622  0.0805 -0.1092
 1730W        W19254   2.449   0.007  15.058 -0.2502  0.0389  0.0079
 1731W        W19255   3.379  16.751   1.227 -0.1830  0.1290 -0.0318
 1732W        W19256   0.847   6.456   3.423 -0.2561 -0.1262 -0.3275
 1733W        W19257  16.631  15.428   4.179  0.1875 -0.0434  0.0807
 1734W        W19258   2.115   6.490   2.861  0.3573 -0.1420  0.1452
 1735W        W19259  10.028  14.146   0.838 -0.1679 -0.2250 -0.1469
 1736W        W19260  10.596   2.951   0.860 -0.1169  0.1439  0.2888
 1737W        W19261  13.700   9.371   1.683  0.0742  0.0196 -0.1559
 1738W        W19262  14.128   5.172   4.332 -0.0811  0.1672  0.4732
 1739W        W19263   2.923  13.803   4.973 -0.0911 -0.0622 -0.3644
 1740W        W19264  16.890   1.515  11.706 -0.2493  0.1581  0.0205
 1741W        W19265   9.180  17.681   2.182 -0.2178 -0.1068 -0.2634
 1742W        W19266   7.815   1.232  10.574 -0.0252 -0.0321 -0.1441
 1743W        W19267  18.016   7.571  15.405 -0.1641 -0.0966 -0.3397
 1744W        W19268  10.469  11.351   0.353  0.3192  0.0512 -0.1672
 1745W        W19269  16.551   3.049   0.988 -0.3706  0.0054  0.1747
 1746W        W19270  10.422  18.369  14.207  0.0665  0.0132 -0.2010
 1747W        W19271   9.687   2.521  15.370 -0.0943  0.0094  0.0634
 1748W        W19272   3.635   9.148  13.239 -0.0872 -0.0231 -0.3954
 1749W        W19273  11.160  15.394  11.571 -0.2911  0.0975 -0.2349
 1750W        W19274   9.420   3.445  12.157  0.1811 -0.2330  0.2196
 1751W        W19275  13.391  10.169  14.885 -0.0875 -0.2297 -0.3214
 1752W        W19276   7.069   5.434   0.848  0.0020 -0.0757  0.1634
 1753W        W19277   9.248   2.817  15.109 -0.0182 -0.0777 -0.1232
 1754W        W19278  17.283  17.249  11.899 -0.0649  0.0283 -0.1121
 1755W        W19279   7.913  11.367   4.368 -0.0690  0.3200  0.0584
 1756W        W19280   6.101  13.719   5.313  0.2553  0.1094  0.0010
 1757W        W19281   7.153   7.478  13.981 -0.1992  0.0391  0.4639
 1758W        W19282   0.026  13.952   2.085  0.0414  0.0281 -0.0519
 1759W        W19283  10.532   7.132   3.095 -0.1763 -0.2134 -0.1579
 1760W        W19284   8.751   8.526  14.965  0.0322 -0.2872 -0.0130
 1761W        W19285   9.773  17.889   2.562 -0.2203 -0.0694  0.1360
 1762W        W19286  13.645   7.119  11.160  0.0182  0.2893 -0.0776
 1763W        W19287   0.094   1.001   1.069  0.1455 -0.1277  0.0977
 1764W        W19288   0.137   5.123   3.036  0.1701 -0.1523  0.0826
 1765W        W19289  10.337   0.529  13.123  0.1091  0.1162  0.1038
 1766W        W19290   8.934   0.243  13.511  0.2141 -0.0556 -0.3356
 1767W        W19291  16.028  16.975   2.743 -0.2249  0.0445 -0.1179
 1768W        W19292  13.465   8.373   2.140 -0.0240 -0.0428  0.1846
 1769W        W19293   1.750   7.545   2.323  0.1036  0.3230  0.1748
 1770W        W19294   3.965  14.515   5.487 -0.0604  0.1790  0.3305
 1771W        W19295  16.675   1.820  11.139  0.3306 -0.3010  0.2214
 1772W        W19296  17.072  15.356   0.619 -0.2633 -0.2147 -0.2725
 1773W        W19297  16.202  17.118  12.445 -0.1919  0.0549 -0.2931
 1774W        W19298   0.836   3.297  11.496  0.2971  0.2994 -0.2009
 1775W        W19299  16.544   6.631   4.508 -0.0406 -0.0974 -0.1714
 1776W        W19300   8.600   3.816  13.934 -0.1241  0.2006  0.0975
 1777W        W19301   5.986   9.272  12.878  0.2383  0.2427  0.2238
 1778W        W19302  13.355  10.428   2.023  0.2766 -0.2474 -0.2991
 1779W        W19303  10.371   7.987   0.844 -0.3858  0.1778  0.0530
 1780W        W19304   4.560   0.254   0.657 -0.0920  0.0545  0.0774
 1781W        W19305  10.454   6.324   3.765 -0.1901  0.0975 -0.0840
 1782W        W19306  17.281   2.446   3.557 -0.1627 -0.3529  0.1676
 1783W        W19307   7.317  10.249  15.422  0.2436  0.1761  0.1118
 1784W        W19308  16.826  16.490  13.660  0.0822 -0.4950 -0.0217
 1785W        W19309  18.140   3.213  13.149  0.1180  0.0042 -0.0914
 1786W        W19310  15.849   1.259  15.297  0.0285 -0.1582  0.0733
 1787W        W19311   6.191  16.333  10.485  0.0183 -0.0583  0.1942
 1788W        W19312   1.123   1.001  14.786 -0.1226 -0.0096  0.0006
 1789W        W19313   1.609  16.284  13.002 -0.1483  0.2514  0.0606
 1790W        W19314  13.660  15.371   4.556 -0.2215 -0.2006  0.1126
 1791W        W19315   2.295   1.829  14.579 -0.2037  0.3926  0.2206
 1792W        W19316  10.833  14.168   4.244 -0.0372 -0.0563 -0.2833
 1793W        W19317   7.251  14.171  15.586 -0.0097 -0.0137  0.0292
 1794W        W19318  12.627   3.109  11.182 -0.4248  0.0110  0.1226
 1795W        W19319  11.451   4.785   2.650  0.1450  0.1142 -0.1385
 1796W        W19320  10.420   0.406  12.649  0.1056 -0.2360 -0.1265
 1797W        W19321   9.907   1.466  12.327  0.0816 -0.0273  0.3335
 1798W        W19322  14.854   3.202   0.912  0.0370 -0.1266 -0.1266
 1799W        W19323  15.224   4.509   1.351  0.1123  0.1387 -0.0655
 1800W        W19324   9.875   4.670   3.290  0.0120 -0.2501 -0.1334
 1801W        W19325  17.994   1.736   3.629 -0.0458 -0.3324 -0.2870
 1802W        W19326  11.921   4.271  14.694  0.0335 -0.1324  0.1389
 1803W        W19327   1.246   6.044   0.073  0.2837 -0.1480  0.1509
 1804W        W19328   6.265  17.167  14.207 -0.3961 -0.0026 -0.0966
 1805W        W19329   4.533   7.754   4.495  0.2888 -0.3271 -0.1569
 1806W        W19330  14.173  13.184  10.986  0.0433 -0.3624 -0.4798
 1807W        W19331   4.942  16.252   2.070 -0.1017  0.4147  0.0334
 1808W        W19332  17.912  14.172  12.478  0.0023 -0.0450 -0.3236
 1809W        W19333   5.535  13.032  11.309  0.1788 -0.2831  0.0797
 1810W        W19334  10.946  12.730  12.126 -0.0339 -0.1918 -0.2876
 1811W        W19335  16.163   7.110  12.802  0.1029 -0.0791  0.3011
 1812W        W19336  11.407  11.227   1.573 -0.2283  0.0560 -0.1716
 1813W        W19337   5.839   9.248  11.099 -0.1094  0.1176 -0.1003
 1814W        W19338  15.470  16.214   1.785 -0.1493  0.1162 -0.3510
 1815W        W19339   0.740   4.428   2.422  0.1220  0.0307  0.1412
 1816W        W19340   6.096  14.907  10.488 -0.2063  0.0599 -0.2526
 1817W        W19341  15.272   9.347  11.763 -0.0593  0.1232 -0.0800
 1818W        W19342  13.323   5.374  14.137 -0.1844 -0.2085  0.1768
 1819W        W19343  13.839   1.857   3.826 -0.4241 -0.2857  0.2588
 1820W        W19344   6.232   4.325  13.626  0.4190  0.0108  0.0526
 1821W        W19345   9.823  17.842  13.215 -0.4981  0.0919 -0.0917
 1822W        W19346  11.024  16.221   1.555  0.2938 -0.0805  0.0251
 1823W        W19347   1.719   4.885   3.838  0.0590  0.0803 -0.2402
 1824W        W19348  11.602   0.373  12.290  0.0115 -0.1067 -0.0075
 1825W        W19349  17.347   8.685  12.461 -0.0516  0.1330  0.0717
 1826W        W19350   5.111  16.700   3.659 -0.2144 -0.0008 -0.0254
 1827W        W19351   1.405   3.601  11.281 -0.2225 -0.0098  0.1502
 1828W        W19352  15.699  17.799  15.225 -0.0938 -0.0262 -0.0058
 1829W        W19353  13.174  12.642  13.764  0.0327 -0.2677 -0.2856
 1830W        W19354  14.516   1.239   1.295  0.0623 -0.4166 -0.2296
 1831W        W19355   0.762  17.734   2.948  0.0298 -0.0626 -0.3813
 1832W        W19356  14.654  12.163   5.376 -0.0207  0.2404 -0.2236
 1833W        W19357  10.412  17.304  11.597  0.2247 -0.0734 -0.3412
 1834W        W19358  12.700  18.143  15.342  0.2254  0.2862  0.0273
 1835W        W19359  17.011  13.995  15.668 -0.0197  0.0444  0.0492
 1836W        W19360   6.784  12.784   3.797  0.1639  0.0207 -0.3918
 1837W        W19361   8.418   6.754   3.438  0.2612  0.0279  0.1459
 1838W        W19362  14.171  14.938   2.416 -0.3116  0.1215 -0.3067
 1839W        W19363   5.803  12.043  12.605  0.1906 -0.2054 -0.1258
 1840W        W19364  11.586   6.942  13.837 -0.1227 -0.1159 -0.0667
 1841W        W19365  17.060  12.656  15.212 -0.1492 -0.2095  0.0888
 1842W        W19366  15.571   4.120   2.437  0.1281  0.1413  0.1994
 1843W        W19367   8.171  10.818  14.508 -0.0407 -0.1429 -0.1804
 1844W        W19368  15.139  16.725   1.040  0.1792 -0.3219 -0.1264
 1845W        W19369   8.095  15.067   5.539  0.3118  0.0571  0.1477
 1846W        W19370  17.475   3.507   3.637  0.0926  0.0673 -0.0445
 1847W        W19371   6.534   4.727   2.677 -0.0304 -0.0204  0.1468
 1848W        W19372  11.942  10.013   2.080  0.0739 -0.2451  0.2689
 1849W        W19373   3.424  18.485   3.120 -0.3112 -0.2016  0.1549
 1850W        W19374   2.938   7.030  11.680  0.0638  0.3591 -0.1454
 1851W        W19375  13.736   7.854  13.606 -0.1235 -0.1381 -0.0488
 1852W        W19376   1.402  12.380  10.244  0.0441 -0.0329  0.0019
 1853W        W19377   7.168  11.116  12.316 -0.2798  0.0009 -0.0999
 1854W        W19378  18.114   1.483   1.492  0.0095 -0.1463 -0.0191
 1855W        W19379   4.671   1.772  11.684 -0.0728 -0.2845  0.2820
 1856W        W19380   7.258  11.683   1.867 -0.1792 -0.0376 -0.0366
 1857W        W19381   7.491  18.388  11.085 -0.2414 -0.0517 -0.2464
 1858W        W19382  14.006   3.130  15.132 -0.2507 -0.0924 -0.1308
 1859W        W19383   8.534   2.562   3.307 -0.0023  0.0715 -0.0904
 1860W        W19384  10.970  10.608  13.464  0.1894 -0.1892  0.0430
 1861W        W19385   5.949   8.563  14.665 -0.5485  0.2366 -0.1012
 1862W        W19386  15.875  14.737   2.886 -0.2508  0.0555 -0.1496
 1863W        W19387  18.109   5.002  11.456 -0.2961  0.0626  0.1757
 1864W        W19388   5.610   7.162  12.715 -0.0186  0.3408  0.0125
 1865W        W19389   2.445  12.365   1.133  0.1174 -0.0489 -0.0700
 1866W        W19390  17.942  15.300  12.237  0.1597 -0.3262 -0.0756
 1867W        W19391  14.042   5.433   0.621  0.3004 -0.1932 -0.1872
 1868W        W19392   3.072   5.921  15.663  0.2388  0.0030 -0.0421
 1869W        W19393   5.202  14.737   4.573  0.2132 -0.0526  0.1929
 1870W        W19394  10.482   9.461   0.047  0.2028  0.1863  0.0895
 1871W        W19395  14.792  17.185  11.637 -0.0839  0.1025  0.2611
 1872W        W19396  14.955  17.656  13.024 -0.2735  0.3574  0.0835
 1873W        W19397  11.984   5.083  15.180 -0.2061 -0.1937  0.0056
 1874W        W19398   6.807   7.949   1.578  0.0466 -0.2263 -0.1017
 1875W        W19399   9.459   7.736  12.240 -0.0579  0.3359 -0.0524
 1876W        W19400   4.915   5.600   0.915 -0.1687  0.0487  0.3119
 1877W        W19401  12.126   7.065  13.039 -0.3084 -0.0272 -0.0508
 1878W        W19402   3.283  15.187  12.866 -0.0841 -0.0195 -0.1213
 1879W        W19403  14.236   8.809   0.237  0.0115  0.0489  0.1583
 1880W        W19404   1.160   3.906  12.714  0.3310  0.2419  0.3523
 1881W        W19405  11.912  10.997   0.026 -0.3154 -0.2031 -0.1154
 1882W        W19406   6.704   6.206   2.920  0.0438  0.2979  0.3617
 1883W        W19407  15.380  16.306  14.608  0.2574 -0.1061 -0.0114
 1884W        W19408   7.401  10.898   2.126 -0.1954  0.2694 -0.0661
 1885W        W19409   9.272   7.181  11.403 -0.1534 -0.0701 -0.4287
 1886W        W19410  12.550   0.328  11.855 -0.0321  0.4470 -0.0552
 1887W        W19411  10.345  14.879  11.595 -0.1635  0.1243  0.3126
 1888W        W19412  17.688   1.574   0.509  0.0765 -0.3545  0.4777
 1889W        W19413   4.545   8.894   3.643  0.1327 -0.4340 -0.0369
 1890W        W19414  17.587  14.114   1.956  0.0102 -0.1061  0.3571
 1891W        W19415   7.378  11.555  13.582 -0.3299 -0.2091  0.1140
 1892W        W19416  14.976   4.460   2.861 -0.1700  0.0886 -0.1501
 1893W        W19417   2.287   1.413   1.151  0.0813 -0.0107 -0.1741
 1894W        W19418  14.110  17.844  13.634  0.3888  0.0699  0.2748
 1895W        W19419   4.747  10.189  13.611 -0.4654 -0.0073  0.2284
 1896W        W19420  16.710   7.819  15.720 -0.1782 -0.0807  0.1083
 1897W        W19421  15.895   0.089   2.522  0.3380  0.2044  0.0327
 1898W        W19422  15.400   4.557   2.628  0.0366 -0.2069 -0.0282
 1899W        W19423  12.821  17.873  13.100 -0.0951  0.0481  0.1678
 1900W        W19424  14.331   2.269   1.211  0.0156 -0.0329 -0.1106
 1901W        W19425   0.710  17.326  12.756 -0.1254  0.1994  0.1532
 1902W        W19426   9.832  11.803  11.502  0.0700 -0.4883 -0.2091
 1903W        W19427  14.683  15.603  12.815  0.0520  0.0767  0.0221
 1904W        W19428  11.706   6.041   2.311  0.2436 -0.3870  0.0436
 1905W        W19429  12.730  10.774   4.055  0.2512 -0.1294 -0.0155
 1906W        W19430   7.605   6.759   2.063 -0.3546  0.1860 -0.2079
 1907W        W19431   2.693   8.870  12.070 -0.2369  0.0001 -0.0249
 1908W        W19432   7.457  18.253   2.333 -0.0559  0.1621  0.2385
 1909W        W19433   1.366  13.899  14.589  0.0440 -0.0883 -0.1219
 1910W        W19434  11.689  10.247   0.776 -0.0328 -0.1315 -0.0357
 1911W        W19435  12.427  15.240   4.550  0.2196  0.1636 -0.0496
 1912W        W19436   1.636  10.966   3.999  0.1029  0.0635  0.1362
 1913W        W19437   6.850  12.191   2.903  0.3672 -0.1735 -0.1018
 1914W        W19438  17.729   8.123   3.883  0.1522 -0.1400  0.2282
 1915W        W19439   2.545   0.941  11.772  0.0112 -0.0468 -0.2584
 1916W        W19440   9.702  17.970  14.543  0.2068 -0.3579  0.0450
 1917W        W19441  16.576   2.980   0.185  0.2133  0.0179  0.1216
 1918W        W19442  14.397   7.352  14.816 -0.0969 -0.1799  0.2973
 1919W        W19443  16.324   4.810  11.177 -0.1132 -0.2045 -0.2878
 1920W        W19444  14.801   2.467  14.367  0.1607 -0.1109 -0.1926
 1921W        W19445   0.983   6.473  14.364 -0.0515 -0.0014  0.1182
 1922W        W19446  17.296  12.847   4.862  0.0152  0.2003  0.2124
 1923W        W19447   1.305   3.160  14.250  0.2828  0.2636 -0.1294
 1924W        W19448  13.106  18.185   0.961 -0.0978  0.4055  0.2136
 1925W        W19449   5.902  17.194   2.962 -0.2476  0.2894 -0.0434
 1926W        W19450   9.039  12.972  12.306 -0.1836  0.0787 -0.1313
 1927W        W19451  17.908  11.683   3.580 -0.0611 -0.2578 -0.1742
 1928W        W19452  18.085   8.101   3.545 -0.0453 -0.4570 -0.1964
 1929W        W19453   2.512   0.179  13.690  0.1390  0.1128  0.0822
 1930W        W19454   9.078   3.127   3.487 -0.1218 -0.3411  0.1810
 1931W        W19455  14.948  13.229  10.083  0.2855  0.1614 -0.1058
 1932W        W19456   5.696  15.867  14.381  0.2083  0.1372  0.1227
 1933W        W19457   7.208   9.610   3.331 -0.2439  0.3783 -0.1005
 1934W        W19458   5.911   1.822  14.668 -0.0540 -0.0782  0.2124
 1935W        W19459   5.649   2.500  13.622  0.2337  0.1475 -0.0638
 1936W        W19460  15.794  16.970  12.838  0.0363 -0.2884 -0.0368
 1937W        W19461  17.980  17.797  13.049 -0.1861  0.2863 -0.2471
 1938W        W19462   1.114  14.993  10.524  0.0655  0.1022 -0.0890
 1939W        W19463   5.686  13.626  12.288  0.1369 -0.0486 -0.2859
 1940W        W19464   5.510  13.231  12.092 -0.1679  0.0336 -0.0919
 1941W        W19465   6.292  10.960   1.096  0.0680  0.1276 -0.3058
 1942W        W19466  11.119   7.618  12.839  0.2610  0.2137 -0.0287
 1943W        W19467   6.160   7.958   4.139 -0.1923  0.1170 -0.0954
 1944W        W19468  16.565  16.829   4.523 -0.1245  0.0429 -0.0449
 1945W        W19469  17.563   4.687   9.936  0.0320  0.2254  0.0825
 1946W        W19470   9.889  11.112  12.067  0.2083  0.0707  0.0767
 1947W        W19471  17.403  17.553   0.767  0.1280 -0.1610  0.1803
 1948W        W19472  14.178  16.911   1.842  0.1720  0.0731  0.4558
 1949W        W19473   0.774   4.039   5.628  0.2357 -0.2769 -0.0607
 1950W        W19474   9.876   5.802   0.863 -0.0839  0.0375 -0.2183
 1951W        W19475  11.459   8.642  14.329 -0.1340  0.0389 -0.1594
 1952W        W19476  10.107  10.095  14.137  0.3571 -0.3487 -0.1475
 1953W        W19477  15.971  14.704  11.743 -0.2635 -0.2079 -0.0930
 1954W        W19478  18.047  10.589   2.977 -0.0097  0.0953  0.1368
 1955W        W19479   7.308   3.390  14.063 -0.2126  0.1674 -0.3671
 1956W        W19480  10.708   8.150  15.023 -0.1364 -0.3376 -0.1461
 1957W        W19481   5.935   5.141   2.351  0.1586  0.2116  0.0843
 1958W        W19482  11.743  10.135   1.286 -0.1096  0.1189  0.0378
 1959W        W19483  17.527   0.535   4.440 -0.5713 -0.3053  0.1749
 1960W        W19484   5.533   5.432  14.754 -0.2860  0.0346 -0.2709
 1961W        W19485   8.134  15.608   2.563  0.1385 -0.4620  0.4400
 1962W        W19486  11.732   9.858  13.683  0.1174 -0.2689 -0.0472
 1963W        W19487  10.526   8.321   3.878  0.1608  0.3525 -0.0579
 1964W        W19488   9.676  16.674   4.428 -0.3507 -0.1728 -0.0332
 1965W        W19489   1.548   7.702  13.862 -0.0186 -0.1226 -0.4033
 1966W        W19490  12.788   2.147   1.840 -0.0258 -0.0297 -0.0666
 1967W        W19491  13.149   1.164   2.604  0.1509  0.0840 -0.2122
 1968W        W19492   2.389  13.802  13.292 -0.0892 -0.1872  0.2296
 1969W        W19493   0.205  16.119  11.454 -0.0168 -0.1584  0.0444
 1970W        W19494  11.459  10.947   0.378  0.1632 -0.2691  0.0512
 1971W        W19495  15.283   9.467  13.642  0.3000  0.0958  0.0588
 1972W        W19496  11.389  15.831   4.499 -0.0397  0.1276  0.2321
 1973W        W19497  13.239  12.877   3.871 -0.0081  0.0757  0.0586
 1974W        W19498   2.832  13.264   2.238  0.0456 -0.1512 -0.1892
 1975W        W19499   9.947  12.981  14.704 -0.1985  0.1936  0.2033
 1976W        W19500   5.563  12.883   2.878 -0.2250 -0.0904 -0.1527
 1977W        W19501   8.297  12.968   2.700 -0.1949 -0.2501 -0.1311
 1978W        W19502   5.210  11.883   4.432  0.3056 -0.1304 -0.1994
 1979W        W19503  18.230   7.536  13.170  0.0156  0.0660 -0.0720
 1980W        W19504  15.824  16.522  13.041 -0.1696  0.1425  0.2624
 1981W        W19505   1.065  12.997  10.832 -0.1167  0.2097  0.1258
 1982W        W19506  18.475   7.567  11.257  0.3642 -0.2274 -0.0191
 1983W        W19507  11.621   4.570  11.531 -0.0116  0.0048  0.2470
 1984W        W19508  14.035  12.320  11.846 -0.0069  0.0947 -0.3271
 1985W        W19509   3.052   0.512   0.618 -0.0337 -0.3268  0.0522
 1986W        W19510  14.291  17.465  15.525 -0.1148  0.0066 -0.0562
 1987W        W19511   8.646  12.937   3.104  0.0066  0.0177  0.3350
 1988W        W19512  17.653   2.009  12.291  0.0999  0.1479  0.1997
 1989W        W19513   7.656  12.789  12.148  0.2798 -0.2249  0.3079
 1990W        W19514  15.352   1.436   5.942 -0.4352  0.0713 -0.1899
 1991W        W19515   9.973   7.774  15.562  0.0285 -0.1542 -0.0372
 1992W        W19516  12.089  16.020  12.567 -0.1566  0.2018 -0.1088
 1993W        W19517   1.784   0.455   3.056 -0.1581 -0.2905 -0.1572
 1994W        W19518   6.482   9.332  11.805 -0.0680 -0.1127 -0.1410
 1995W        W19519  14.711  15.964   1.395  0.0280  0.3178  0.1317
 1996W        W19520   1.286  14.674   5.119  0.2286  0.1734  0.1891
 1997W        W19521  12.466   1.152  15.524  0.6230 -0.1307 -0.1697
 1998W        W19522   0.874  16.209   3.007  0.2873  0.5127  0.2453
 1999W        W19523   6.170  13.681   1.846  0.0687 -0.0164 -0.2746
 2000W        W19524   6.267  13.984  13.190 -0.0461  0.1357 -0.1203
 2001W        W19525   1.270   5.825  11.561  0.0993 -0.2602  0.0620
 2002W        W19526  14.420   9.091  12.575  0.3041 -0.0798  0.1053
 2003W        W19527  17.736   7.154  14.643  0.2714 -0.3221  0.1062
 2004W        W19528  11.204   4.872   4.520 -0.3173 -0.0105  0.2559
 2005W        W19529   3.604   1.492   3.541 -0.0371  0.1352  0.1447
 2006W        W19530   0.788  17.834   3.977 -0.0646  0.0375 -0.0120
 2007W        W19531  11.819   9.424  12.374 -0.1678  0.0796 -0.3014
 2008W        W19532   8.125   2.141  11.361  0.0493 -0.1319  0.1132
 2009W        W19533  12.078  14.640   6.012 -0.3704 -0.0244  0.1363
 2010W        W19534   2.785   8.886   3.897  0.1378  0.0555 -0.1237
 2011W        W19535   4.360   4.943  14.952  0.1043 -0.0664  0.2031
 2012W        W19536  17.672  17.541   2.705  0.0161 -0.1541  0.1459
 2013W        W19537  12.752  14.309  13.686  0.1047 -0.0673 -0.1622
 2014W        W19538  10.610  11.445  13.166  0.2445  0.0794 -0.4389
 2015W        W19539   5.491   7.093   1.572  0.1443 -0.1357 -0.0058
 2016W        W19540   4.737   3.596  12.610 -0.1211 -0.1632 -0.0546
 2017W        W19541  14.688  12.218   1.585 -0.0212 -0.0457  0.0218
 2018W        W19542  13.749   3.357  11.876  0.0660  0.2371  0.1992
 2019W        W19543   2.020  16.812  14.841 -0.2821 -0.0462  0.0304
 2020W        W19544  10.069  10.093  13.060  0.1544  0.1158 -0.0498
 2021W        W19545  13.619   0.802   2.716 -0.0494  0.2626  0.0054
 2022W        W19546   7.750  10.404   2.123  0.2006  0.1895 -0.3899
 2023W        W19547   6.829   9.924   0.121 -0.1984  0.0771 -0.2799
 2024W        W19548  17.733  10.044  14.663 -0.0285 -0.1196  0.2675
 2025W        W19549   9.416   8.715   4.463 -0.1924  0.0307  0.1458
 2026W        W19550   1.476  17.110   3.542  0.0121  0.2463 -0.1707
 2027W        W19551  14.463   5.474  14.338 -0.1341  0.0884 -0.1635
 2028W        W19552   9.725  10.580  12.486 -0.2578 -0.3331  0.0808
 2029W        W19553   3.847  11.700   1.552  0.0386 -0.1131  0.1137
 2030W        W19554  15.692  18.156   2.529 -0.0045  0.5386  0.2694
 2031W        W19555   5.260   4.019   0.869 -0.0575  0.1943 -0.2552
 2032W        W19556   9.405  10.682  13.012 -0.5265  0.0856 -0.2077
 2033W        W19557  16.704  12.353   2.013 -0.1579  0.0698 -0.2268
 2034W        W19558  17.992   6.819   4.645 -0.3254  0.1598  0.1715
 2035W        W19559  15.758   4.780  12.110 -0.3004  0.2444 -0.1291
 2036W        W19560   9.474   2.996  11.932 -0.2646 -0.0553  0.1971
 2037W        W19561  15.489   5.083   3.442  0.0312  0.3823  0.1220
 2038W        W19562   9.532  18.299   2.358  0.0147 -0.2798  0.2594
 2039W        W19563  14.511   3.398   0.144 -0.1633 -0.1783  0.3307
 2040W        W19564   2.033  13.742  14.390  0.0663 -0.2492  0.3013
 2041W        W19565  10.151   5.412   3.047  0.3519  0.0472  0.0544
 2042W        W19566   7.643   0.992  14.211  0.2667  0.0116  0.2041
 2043W        W19567   9.768   9.479  13.022  0.1196  0.0914 -0.0392
 2044W        W19568   0.657  10.694  11.770 -0.1087 -0.1852  0.1964
 2045W        W19569   4.893  12.798  12.638  0.0634 -0.0641 -0.0731
 2046W        W19570  16.042  11.970  12.073  0.4413 -0.0311  0.3683
 2047W        W19571   7.753  11.117   3.419  0.0957  0.1699 -0.0639
 2048W        W19572  12.063  13.376  14.248  0.1173  0.1241 -0.0901
 2049W        W19573   3.475  17.566   3.212 -0.0839 -0.0445 -0.0336
 2050W        W19574  10.717   1.939  11.835  0.2238 -0.6088 -0.0590
 2051W        W19575   5.094   0.433   2.946  0.0504 -0.1421  0.4411
 2052W        W19576   8.542   8.972   3.129  0.0610  0.0379 -0.1031
 2053W        W19577  15.013  10.003  13.562 -0.3047  0.2736 -0.2268
 2054W        W19578  17.710   8.258  11.596 -0.0894 -0.1606 -0.2941
 2055W        W19579  17.844  17.055  14.138  0.1468  0.2063  0.2038
 2056W        W19580   6.389   2.753  15.170 -0.1556  0.0140 -0.2623
 2057W        W19581   3.686   4.422   3.160  0.0508  0.2354 -0.0594
 2058W        W19582   5.191  11.755   2.628 -0.0029 -0.1553 -0.0678
 2059W        W19583   5.705  12.439   3.299 -0.1372  0.0720  0.2596
 2060W        W19584  16.403   6.352  13.458  0.0168  0.2265 -0.3041
 2061W        W19585  14.093   0.228   3.231  0.3842 -0.2519 -0.0394
 2062W        W19586  10.382   9.362   4.366 -0.2238 -0.0256  0.1192
 2063W        W19587  15.533   6.190   0.566  0.1777  0.0466  0.2498
 2064W        W19588   0.868  10.682   4.076  0.0584 -0.0285  0.1860
 2065W        W19589   5.416   5.590   0.988 -0.2267  0.2883  0.2330
 2066W        W19590   1.461   4.720   2.806  0.2717  0.1861 -0.1970
 2067W        W19591   8.070  15.526   5.743  0.1548  0.0536 -0.0461
 2068W        W19592  12.580   6.957  10.168  0.4404  0.1288 -0.0721
 2069W        W19593  10.919   0.365   5.594  0.2691 -0.2560  0.1240
 2070W        W19594   4.944   2.997  11.392  0.1600  0.1580  0.1654
 2071W        W19595  15.476   6.960  14.536  0.0622  0.2001 -0.2198
 2072W        W19596   7.840   2.048  14.074  0.0213 -0.0364 -0.0712
 2073W        W19597  16.659   5.387   1.077  0.0248  0.2876 -0.3009
 2074W        W19598   5.938   5.273  13.422  0.2736  0.2052 -0.0198
 2075W        W19599   4.910  11.142   2.594  0.2135  0.4166  0.2552
 2076W        W19600   5.773  18.406   4.568  0.2046  0.1854  0.2070
 2077W        W19601  12.086   1.293   2.705 -0.2138  0.4617  0.0747
 2078W        W19602   2.294  11.855   9.966 -0.5322  0.0641 -0.0040
 2079W        W19603  14.922  18.259  10.319 -0.2581 -0.1075  0.0940
 2080W        W19604   6.006   0.105   2.867  0.3465 -0.2156  0.0750
 2081W        W19605  11.286   6.973   0.641 -0.1278  0.2463  0.0018
 2082W        W19606   7.125  15.416  14.228 -0.1323 -0.2405 -0.0321
 2083W        W19607   4.888   4.076  12.748 -0.2105  0.1565  0.2062
 2084W        W19608  10.367  16.449   3.247 -0.2045 -0.2536 -0.1203
 2085W        W19609  17.625  16.962  11.554 -0.0391  0.1805 -0.3441
 2086W        W19610   3.192  17.623   0.342 -0.0016  0.0658 -0.2086
 2087W        W19611  18.366  15.379   1.662 -0.1783 -0.0796 -0.5854
 2088W        W19612  16.673   1.075   3.597 -0.1255 -0.0320  0.1599
 2089W        W19613  10.652   0.705   5.351  0.0206 -0.1703 -0.2600
 2090W        W19614  10.537  11.517   1.726 -0.1448 -0.1055  0.2193
 2091W        W19615  16.319   1.054   2.905 -0.0658  0.0194  0.1729
 2092W        W19616   5.212  17.147  13.333  0.0812 -0.2228 -0.0194
 2093W        W19617  11.502   8.450   4.232 -0.4429  0.0945 -0.0768
 2094W        W19618  12.196   1.823  12.220  0.1513  0.4076  0.1656
 2095W        W19619   7.020   6.380  13.337 -0.0054  0.1356  0.2834
 2096W        W19620   9.932  11.606  11.989 -0.1805  0.0477 -0.0051
 2097W        W19621   0.054   1.945  11.390  0.0044  0.2021  0.0154
 2098W        W19622   7.406  16.320   0.937  0.3368 -0.0815 -0.5119
 2099W        W19623   0.333   3.748  12.188  0.1733 -0.2901  0.3582
 2100W        W19624  10.316  10.809  12.359  0.0991  0.0329  0.0377
 2101W        W19625   6.988  17.072  13.739  0.1345  0.2148 -0.1169
 2102W        W19626  11.667   3.064  15.131 -0.0067  0.1587 -0.0823
 2103W        W19627   3.653  12.557  11.959 -0.1572 -0.1467  0.3355
 2104W        W19628  14.907   1.477   4.563  0.0879  0.0672  0.0388
 2105W        W19629  13.274   2.818   2.717 -0.2412 -0.3637  0.0341
 2106W        W19630  17.472  14.392  14.294  0.1503  0.1549  0.2428
 2107W        W19631  12.468   0.398   1.334  0.0720  0.0802 -0.1199
 2108W        W19632   8.828   9.558  14.142  0.3391 -0.3272  0.1723
 2109W        W19633   0.831   2.893  14.190 -0.3211  0.1429  0.0531
 2110W        W19634   8.053  14.944   1.018  0.0418 -0.0769 -0.1129
 2111W        W19635   7.219  12.012  15.191  0.2679 -0.2985  0.0739
 2112W        W19636  10.853   8.607  10.848  0.1618  0.0532  0.0594
 2113W        W19637  10.465   6.292   1.889 -0.0341  0.3024  0.2304
 2114W        W19638   3.181   0.549  14.832 -0.0631  0.0271 -0.0870
 2115W        W19639   0.131  13.930  10.165 -0.0540 -0.1735 -0.0288
 2116W        W19640  12.628  16.975  15.368 -0.0015 -0.2248  0.0254
 2117W        W19641  10.464   4.804   3.539 -0.0692 -0.0207 -0.1513
 2118W        W19642  18.394   9.272  14.874 -0.1676 -0.1359  0.1262
 2119W        W19643  13.612   5.659  14.714 -0.2011 -0.1422 -0.2567
 2120W        W19644   2.551  16.740   3.946  0.3850  0.2861 -0.3704
 2121W        W19645   6.895  14.605   0.753  0.4408  0.2023 -0.0223
 2122W        W19646   0.204   6.079   4.145 -0.2815 -0.2472  0.2531
 2123W        W19647  10.070  11.105  15.340  0.2328 -0.3984  0.2495
 2124W        W19648   7.235   2.267  12.778 -0.0872 -0.0732  0.2132
 2125W        W19649  17.974  11.458  12.753  0.0318 -0.0771  0.0575
 2126W        W19650   4.524   8.331  12.041  0.3193 -0.0688  0.1278
 2127W        W19651  16.210   7.817  12.239 -0.0773  0.1306 -0.0630
 2128W        W19652   0.353  10.194   4.850  0.0853  0.2036  0.1249
 2129W        W19653  14.408   6.440  15.126 -0.1041 -0.2148 -0.0754
 2130W        W19654   2.457   0.865  13.002  0.0877  0.0772  0.2344
 2131W        W19655  17.399  15.390  10.572  0.1493 -0.3144 -0.1870
 2132W        W19656   4.912  14.771  11.966 -0.1535  0.2112 -0.0813
 2133W        W19657   0.998   8.737  15.239 -0.3758  0.0117  0.2867
 2134W        W19658  10.293   7.987   0.215  0.1331 -0.3995 -0.1799
 2135W        W19659  16.945   4.186   0.898  0.1539  0.2041  0.1498
 2136W        W19660   7.299  11.168   1.106 -0.4010 -0.1966 -0.2049
 2137W        W19661  14.722   5.374   3.844  0.0390 -0.2891 -0.0057
 2138W        W19662   3.933   5.904  12.730  0.1008  0.2947  0.2541
 2139W        W19663   5.683   2.173  14.937 -0.0174 -0.0295  0.1076
 2140W        W19664   5.518   6.696  11.628 -0.1632  0.4433  0.1499
 2141W        W19665   9.566   8.283   4.487 -0.1141  0.0427  0.2411
 2142W        W19666   8.549  14.673  13.599  0.2018 -0.1040 -0.1570
 2143W        W19667   5.502  10.800  11.746  0.1825 -0.1004  0.0846
 2144W        W19668   3.030  13.799  14.646  0.0333 -0.0801 -0.1154
 2145W        W19669   7.786  11.188  11.758  0.0204  0.0386  0.2161
 2146W        W19670   0.350  11.005   4.087 -0.1123 -0.0979  0.0728
 2147W        W19671   9.837  10.097   9.833  0.0769 -0.0140 -0.0357
 2148W        W19672  12.163   2.844  14.351  0.0842  0.1331 -0.3111
 2149W        W19673   8.008   1.163  11.154  0.1140 -0.0608  0.2356
 2150W        W19674  15.564   7.709   4.128 -0.1417 -0.0768 -0.0954
 2151W        W19675  10.054  16.875  10.539  0.5538 -0.1132 -0.2254
 2152W        W19676   4.058  17.945  12.449 -0.3054  0.1089  0.1373
 2153W        W19677  15.524  15.782   0.593 -0.3872  0.0647 -0.0543
 2154W        W19678   2.433  17.606  15.273 -0.4637  0.0685 -0.0598
 2155W        W19679   1.858  17.896   1.456 -0.0666  0.1188  0.2828
 2156W        W19680   8.363   4.499   2.580  0.0392  0.1448  0.1775
 2157W        W19681   3.086  14.754  12.647 -0.0865 -0.5034  0.1697
 2158W        W19682  18.411  11.583   1.914 -0.4077 -0.1515  0.0420
 2159W        W19683   2.622   4.103  14.244  0.0478  0.1120  0.3033
 2160W        W19684   2.880   2.653  10.916  0.0195 -0.0029  0.0741
 2161W        W19685   4.354   1.141  12.684  0.0342  0.0879 -0.3049
 2162W        W19686  16.944   6.588  12.622 -0.4056  0.0281  0.0820
 2163W        W19687  17.546   8.311   3.211 -0.0609 -0.0050  0.4515
 2164W        W19688  11.654   5.500   1.350  0.1725  0.2320 -0.0337
 2165W        W19689   0.174   5.131  13.651 -0.0595 -0.1017 -0.0345
 2166W        W19690  16.133   3.642  14.232 -0.1013 -0.3519  0.2046
 2167W        W19691  11.144  13.037  15.388 -0.0111  0.0589  0.0132
 2168W        W19692   3.167   8.705   2.387  0.3408  0.4439 -0.5201
 2169W        W19693  17.417  12.662   3.955 -0.0607 -0.2296 -0.3152
 2170W        W19694   7.086  13.246  15.420  0.3172 -0.0633 -0.2841
 2171W        W19695  15.060  13.460   4.651 -0.3380  0.2324 -0.2476
 2172W        W19696   1.774   4.079  14.580 -0.0858  0.2096  0.1962
 2173W        W19697   3.043   3.218  11.441 -0.0052  0.2286 -0.2513
 2174W        W19698  14.737  14.169  15.029 -0.0822  0.1633 -0.0973
 2175W        W19699  10.778  18.123  15.313 -0.0043  0.0627 -0.1770
 2176W        W19700   2.541  16.282   2.161 -0.0596  0.1257 -0.1872
 2177W        W19701   7.905   6.865   1.579  0.2614  0.1107 -0.2000
 2178W        W19702   9.115   8.305  14.022  0.2836 -0.0526  0.0377
 2179W        W19703   0.867   0.250   5.155 -0.2260 -0.1974 -0.0809
 2180W        W19704   5.515   9.024  10.807 -0.1347  0.0530 -0.1425
 2181W        W19705  14.878   9.111  11.685 -0.3069 -0.0523 -0.1627
 2182W        W19706   9.806   8.176  10.071  0.1674 -0.0169  0.0246
 2183W        W19707  14.385   0.932   2.191  0.1411  0.2168 -0.1577
 2184W        W19708   4.672   2.373   2.753  0.6805 -0.1212  0.0333
 2185W        W19709   9.671  12.906  11.008  0.1610 -0.1660  0.0481
 2186W        W19710  13.078   7.335   3.596 -0.3283 -0.0163 -0.0577
 2187W        W19711  14.263   9.309  10.951 -0.0187  0.1834  0.2947
 2188W        W19712  10.674  12.323   3.919  0.0915 -0.0495  0.2514
 2189W        W19713  15.652   5.290   0.351  0.1312 -0.0212 -0.1985
 2190W        W19714  14.645  10.267   1.097  0.4560 -0.2427 -0.1997
 2191W        W19715   8.891   1.189   2.283 -0.4242 -0.1886 -0.3385
 2192W        W19716   5.467   4.273  12.721  0.1164  0.0804  0.1201
 2193W        W19717   7.236  13.336   3.341  0.2269 -0.1761 -0.1284
 2194W        W19718   0.564  14.331  12.022  0.0105  0.0973  0.0744
 2195W        W19719  12.767  12.615  15.679 -0.0520  0.0244  0.0764
 2196W        W19720  17.511  17.317   3.132 -0.0681  0.2830  0.0236
 2197W        W19721  12.810   0.175  13.817 -0.0003  0.0209 -0.1853
 2198W        W19722   1.620   0.531  13.947 -0.3358  0.0181 -0.1549
 2199W        W19723   0.075  10.376  15.077 -0.1964 -0.0693  0.2023
 2200W        W19724   1.304  10.735  14.085  0.3047  0.1890  0.0900
 2201W        W19725  11.972   8.608  11.481  0.1882 -0.4374 -0.0457
 2202W        W19726   4.986   1.295   0.314  0.1022  0.1490  0.0574
 2203W        W19727  14.362   7.028   5.405 -0.0330 -0.0613  0.0862
 2204W        W19728   3.656   5.264   4.213  0.2473 -0.0002 -0.1527
 2205W        W19729   1.302   0.737   3.499 -0.2646 -0.1412 -0.3465
 2206W        W19730   7.237   4.137  11.494 -0.2513 -0.0493  0.2431
 2207W        W19731  14.575  13.012  10.342  0.3250  0.2584  0.0079
 2208W        W19732  12.607   3.981   1.546  0.0656 -0.1765 -0.2249
 2209W        W19733  12.111   3.236  11.430 -0.2929  0.2454  0.1496
 2210W        W19734  18.468  14.389  15.618  0.0756 -0.3468  0.1332
 2211W        W19735  14.887   2.942  13.403  0.0173  0.1502 -0.1838
 2212W        W19736   1.361  15.999   1.856  0.2443  0.0446  0.3211
 2213W        W19737   4.858   1.433  14.955  0.0715 -0.2221 -0.0437
 2214W        W19738   1.678   6.588   0.777 -0.2757  0.1734  0.0247
 2215W        W19739   3.679  13.330  13.809  0.0306 -0.1261  0.0568
 2216W        W19740   1.467  10.424   4.685 -0.0271  0.0175  0.1923
 2217W        W19741   0.550   1.947  12.902  0.0895  0.0571 -0.1860
 2218W        W19742   6.352  17.153  11.979 -0.0512  0.2762  0.0962
 2219W        W19743   1.655   2.588  12.586 -0.1447  0.0617  0.2515
 2220W        W19744   4.008  17.573   3.494  0.1269  0.1904 -0.2631
 2221W        W19745   6.948   2.558   3.757 -0.0901 -0.2972  0.0437
 2222W        W19746   2.675  12.636  15.145 -0.3255 -0.1791 -0.0032
 2223W        W19747  17.456   9.027  12.829  0.1106 -0.2118 -0.4846
 2224W        W19748   3.758  17.572  12.236  0.0495  0.3172  0.1818
 2225W        W19749   1.408  14.452   0.151  0.2036 -0.0639 -0.1125
 2226W        W19750  10.108   7.232   2.901  0.0180 -0.1542 -0.0712
 2227W        W19751   6.524   0.554   2.096 -0.1364 -0.0352 -0.0175
 2228W        W19752   5.503  11.503  10.651  0.1693 -0.2369 -0.0057
 2229W        W19753   6.426  12.079   2.247  0.0134  0.2144  0.0454
 2230W        W19754  13.546  17.316   0.176  0.1875 -0.2466  0.1282
 2231W        W19755  13.607  17.010  13.980  0.1907 -0.0545 -0.1926
 2232W        W19756  11.571  13.235  15.272 -0.1646  0.1168 -0.1239
 2233W        W19757  13.314  13.621  13.246  0.0729  0.0632  0.1044
 2234W        W19758  17.145   2.799   3.132  0.0831 -0.0693  0.0998
 2235W        W19759   4.057   1.939   2.050 -0.2820  0.0360  0.1632
 2236W        W19760  14.638  15.146   0.946  0.1508 -0.1758 -0.0473
 2237W        W19761   2.122   9.614  15.380  0.0998  0.0116  0.1119
 2238W        W19762   2.729   8.813  14.238  0.2063  0.0607 -0.1771
 2239W        W19763   1.199  17.113   2.348 -0.0582 -0.0156  0.0160
 2240W        W19764   4.593  16.402   2.916  0.0201 -0.0750  0.0140
 2241W        W19765   6.027  10.638   4.044  0.2871  0.1894  0.0727
 2242W        W19766   4.561  10.624  13.734  0.0058 -0.3698 -0.2580
 2243W        W19767   5.106  14.225   1.523 -0.0238  0.1950 -0.2582
 2244W        W19768  11.850  14.944   1.100  0.0075  0.1816 -0.1246
 2245W        W19769   2.166   3.123  10.852  0.0175  0.2544  0.0565
 2246W        W19770  13.296   5.365  13.593  0.2109  0.2920 -0.0758
 2247W        W19771  11.478  11.732  15.590 -0.0185 -0.2003  0.0947
 2248W        W19772  12.202  15.697   2.908  0.2688 -0.2497 -0.2250
 2249W        W19773  10.684  10.972   0.126  0.1864  0.0930  0.1826
 2250W        W19774  18.151   3.583   0.984 -0.0254 -0.1193 -0.4670
 2251W        W19775  11.635  14.336  12.899  0.1515 -0.0610 -0.1721
 2252W        W19776  15.728   3.073   1.889  0.1931  0.1219  0.4003
 2253W        W19777  16.538   5.655  15.201  0.0788  0.0108  0.0684
 2254W        W19778   8.058   3.783  12.339  0.0971  0.3676 -0.0001
 2255W        W19779   7.160   6.429  11.302 -0.0029  0.1006  0.1294
 2256W        W19780   4.187  14.499   1.988  0.1103 -0.0376  0.1423
 2257W        W19781  12.175   0.489   3.667 -0.2278 -0.0740  0.2549
 2258W        W19782   9.953   9.498  12.403  0.0584  0.1506  0.2043
 2259W        W19783  17.366   1.537  11.641 -0.1171 -0.0019 -0.0582
 2260W        W19784   0.366   5.130  11.095 -0.1805 -0.1443  0.0634
 2261W        W19785   2.507  16.091  15.632 -0.0821 -0.3633  0.3775
 2262W        W19786   6.108  14.327   4.554 -0.3641  0.0796 -0.0060
 2263W        W19787  13.171   0.600   2.453 -0.0132  0.1208  0.1546
 2264W        W19788  16.141  18.395   3.464 -0.2914 -0.0177  0.1821
 2265W        W19789   7.728  15.777   4.512 -0.2237  0.0408  0.0737
 2266W        W19790   9.940   9.170   0.742 -0.1185 -0.3498  0.3052
 2267W        W19791  11.971   6.408   2.090  0.1674 -0.3248  0.2321
 2268W        W19792   8.749   5.842   0.444 -0.1505  0.1848 -0.3733
 2269W        W19793   6.396  15.200  15.676 -0.1808  0.0106  0.1253
 2270W        W19794  10.400  15.741  11.640  0.3738  0.0594  0.2960
 2271W        W19795  17.130   6.121   1.307 -0.1408  0.1912  0.1395
 2272W        W19796   3.203   6.242  12.380  0.1784 -0.0487 -0.2186
 2273W        W19797  18.297  14.293   2.499 -0.0575  0.0781  0.1556
 2274W        W19798   7.803  13.519   2.057  0.0080  0.2668 -0.0565
 2275W        W19799   1.435   3.330   1.084 -0.0858  0.0424 -0.1607
 2276W        W19800   3.362   3.532   3.610  0.3265 -0.1964 -0.1950
 2277W        W19801  10.959  17.046  11.609  0.0062 -0.0244  0.1327
 2278W        W19802  11.046   7.641   0.155  0.1242  0.1910 -0.0037
 2279W        W19803   8.792  13.738   4.356  0.2305 -0.0360  0.4368
 2280W        W19804  13.692   3.670   4.335 -0.1056 -0.0481  0.1681
 2281W        W19805   2.191  13.459  15.174 -0.1081  0.0177 -0.0060
 2282W        W19806  12.200  16.124   4.019  0.0484 -0.1339  0.1599
 2283W        W19807   4.489  11.427  15.478  0.0782  0.4233 -0.0606
 2284W        W19808  16.745   7.776  15.173  0.3287 -0.1886  0.3809
 2285W        W19809   7.676   0.259   2.625  0.0328  0.1619  0.0573
 2286W        W19810   4.668  11.821  13.061  0.1894 -0.1783  0.1120
 2287W        W19811   8.637   2.294  15.645  0.0051 -0.0805  0.2117
 2288W        W19812  10.141   9.212  12.758  0.0418  0.0349 -0.1698
 2289W        W19813   1.354   3.543  15.420  0.2083 -0.4154  0.0460
 2290W        W19814  11.454   1.946  13.810 -0.1899 -0.0164  0.0746
 2291W        W19815   6.204   2.634   1.579  0.2170 -0.2236  0.0924
 2292W        W19816  15.062  11.585  14.815 -0.0272 -0.0507 -0.0054
 2293W        W19817   9.990  13.776   2.399 -0.2168 -0.3062 -0.1741
 2294W        W19818   2.286   8.756  12.384 -0.3371  0.3659 -0.1005
 2295W        W19819   2.930   5.848   4.396 -0.0241 -0.0478  0.1157
 2296W        W19820  11.050   5.031   4.053  0.2038  0.2361 -0.1246
 2297W        W19821  11.376   4.350   3.752  0.3064  0.0572 -0.0702
 2298W        W19822  11.000  13.140   3.442  0.1356  0.0383  0.1006
 2299W        W19823   1.843   5.404   2.270 -0.1337  0.0566 -0.0425
 2300W        W19824   5.582   4.432   0.763 -0.1207  0.0610 -0.2647
 2301W        W19825   3.097  14.510  15.301 -0.1179 -0.1165  0.1863
 2302W        W19826   4.068  11.774   3.928 -0.2790 -0.3103  0.0961
 2303W        W19827   1.124   7.628   4.995 -0.0525  0.0347 -0.0599
 2304W        W19828  15.260   0.000   1.359  0.0929 -0.4750 -0.1816
 2305W        W19829  10.676  11.232  14.752 -0.0199 -0.0590 -0.3120
 2306W        W19830   1.650  14.884   0.120  0.0390 -0.0616  0.1641
 2307W        W19831   4.432   3.198   5.086 -0.0692 -0.0294 -0.0909
 2308W        W19832  10.146  11.882  13.645 -0.3285  0.3656 -0.2418
 2309W        W19833  17.711   0.070  14.008 -0.2928  0.3956  0.3042
 2310W        W19834  13.053   9.627   0.838 -0.0805  0.1891  0.0434
 2311W        W19835  10.364   5.063   0.468 -0.3187 -0.2502 -0.0542
 2312W        W19836   1.917   9.570   4.128 -0.1501  0.0554  0.2477
 2313W        W19837   2.149  15.345  12.396 -0.0852 -0.2717 -0.1582
 2314W        W19838   0.480  12.809  14.640  0.1129  0.2320  0.1285
 2315W        W19839   2.567   9.951  11.164 -0.0446 -0.0149  0.1076
 2316W        W19840   8.970  11.603  13.039 -0.1489 -0.0025  0.0002
 2317W        W19841  14.463   0.368   0.444 -0.1466 -0.3764 -0.2744
 2318W        W19842  17.514   1.522   3.804 -0.0366  0.0505 -0.2866
 2319W        W19843   1.031   4.694   4.920 -0.4142 -0.1329  0.4422
 2320W        W19844   2.736   6.099   4.772  0.2328 -0.0442 -0.0200
 2321W        W19845   4.048   3.231  11.250 -0.2396 -0.1117  0.2382
 2322W        W19846   0.709  11.592   3.028 -0.0346 -0.0639 -0.1442
 2323W        W19847   8.878   0.770   4.261 -0.0388 -0.0214 -0.2122
 2324W        W19848  11.157  11.670   2.964  0.2045  0.2102 -0.1523
 2325W        W19849   5.362   5.775   2.552 -0.0850 -0.0545  0.0143
 2326W        W19850   2.700  17.095  15.409  0.1685 -0.0791  0.0599
 2327W        W19851   0.248   8.365  11.697 -0.1783  0.2550  0.1441
 2328W        W19852  17.179  17.700  13.716 -0.1727  0.1712  0.2547
 2329W        W19853  12.683  17.550  11.759 -0.1401 -0.2090  0.2113
 2330W        W19854   1.868   6.230  11.111  0.1177  0.1081  0.0793
 2331W        W19855  11.172   8.012   2.168 -0.1695 -0.1072 -0.1091
 2332W        W19856  13.058   9.269   0.389 -0.1159 -0.0375  0.2369
 2333W        W19857   7.246   2.342   3.313  0.0746 -0.1169 -0.1434
 2334W        W19858  16.929   5.204  11.115  0.1440  0.0138 -0.0371
 2335W        W19859   0.761   9.224   5.732 -0.3098 -0.0555  0.0541
 2336W        W19860   5.053   2.423  12.965  0.1161  0.0755 -0.0185
 2337W        W19861   7.278  11.944   3.947  0.3823 -0.2452  0.1023
 2338W        W19862  10.187   8.875   3.022 -0.1690 -0.0355 -0.0113
 2339W        W19863  17.772  14.847   4.841  0.2200 -0.1423  0.3964
 2340W        W19864   7.381  14.839  15.220  0.0805 -0.0355 -0.2310
 2341W        W19865   9.358  12.816   0.119 -0.0298  0.0341 -0.0512
 2342W        W19866   9.384  18.297  14.805 -0.0196 -0.0472  0.1446
 2343W        W19867   6.368   5.315  14.176 -0.1077  0.0429  0.1880
 2344W        W19868  11.046  11.103  15.541  0.2322  0.0528  0.1944
 2345W        W19869   6.099   8.440   4.054  0.0934  0.0567  0.0320
 2346W        W19870   4.002  10.033  15.451 -0.1327 -0.3025 -0.0684
 2347W        W19871  11.794   1.399  11.011 -0.1369  0.0653 -0.0582
 2348W        W19872   7.148   7.931  11.731  0.1965 -0.3583  0.2558
 2349W        W19873   2.386  13.257   3.196  0.1960  0.0671 -0.0579
 2350W        W19874   1.333  14.806   3.677  0.3982  0.3400  0.3842
 2351W        W19875   1.173  15.873   5.332  0.1335 -0.0008  0.0952
 2352W        W19876   7.391   6.387   3.502 -0.1082 -0.0989  0.0030
 2353W        W19877  18.373   0.257   4.007 -0.0835  0.0463 -0.0645
 2354W        W19878  18.181  17.839   1.111  0.0132  0.1423  0.0148
 2355W        W19879  16.701   2.445   2.407  0.0581 -0.3196  0.0144
 2356W        W19880  14.789   1.915  11.572  0.1642 -0.0321  0.0834
 2357W        W19881   0.088  15.771  11.092 -0.1422  0.0202 -0.0828
 2358W        W19882  14.546  10.473  11.927 -0.0256 -0.0139  0.0944
 2359W        W19883   6.489   0.988  14.584 -0.0709  0.2538 -0.2185
 2360W        W19884   7.949   9.433  15.096  0.1264 -0.0574 -0.1908
 2361W        W19885  13.662  12.165   0.143  0.0328 -0.0693  0.0934
 2362W        W19886   4.193   3.204   3.491  0.0342 -0.2048 -0.1359
 2363W        W19887   5.004   2.874   5.760 -0.1460 -0.3738 -0.1913
 2364W        W19888  13.293  13.789   2.002  0.0541 -0.1959 -0.0244
 2365W        W19889  11.080   2.845   1.652  0.0234 -0.0757 -0.2641
 2366W        W19890  18.164   5.166   2.294 -0.1996 -0.0258  0.2709
 2367W        W19891  17.065  10.831  13.583  0.0870  0.2999 -0.1161
 2368W        W19892   4.218  13.134  14.578  0.1318 -0.4007 -0.0636
 2369W        W19893   7.228   5.522  13.147 -0.3146 -0.3001  0.1749
 2370W        W19894   3.576   6.495   3.448  0.2039  0.1417  0.1178
 2371W        W19895   2.026  11.472  14.954  0.4051  0.2946  0.0189
 2372W        W19896   3.473   1.715  11.406 -0.0033 -0.0881  0.2430
 2373W        W19897  10.711   4.579  13.683  0.1519 -0.0158 -0.0416
 2374W        W19898   6.735  15.040  12.085  0.0043 -0.3992 -0.1756
 2375W        W19899   3.239  11.598   3.227  0.0113 -0.3640  0.0346
 2376W        W19900  18.263   4.344   4.578 -0.1635  0.1067 -0.3918
 2377W        W19901   3.424  15.947  11.537  0.1294 -0.1020 -0.2639
 2378W        W19902  18.107   5.206   3.739 -0.0637 -0.1995  0.2249
 2379W        W19903  16.929   1.915  15.167  0.0610  0.2549 -0.0245
 2380W        W19904  13.544   6.651   3.554  0.1165  0.1970 -0.0579
 2381W        W19905  10.896  11.615  14.269 -0.1552  0.2368  0.3725
 2382W        W19906  12.614   7.621   2.846 -0.0042  0.3365 -0.1613
 2383W        W19907   7.501  13.174  11.624 -0.1659 -0.1301 -0.1163
 2384W        W19908   7.380   9.510  13.761 -0.0850  0.2896  0.0762
 2385W        W19909   7.574   2.669   0.865  0.3842  0.0309 -0.2750
 2386W        W19910   0.328   9.536  15.037 -0.0472  0.1902 -0.2160
 2387W        W19911   1.422  14.902  13.248  0.2805  0.1441 -0.1683
 2388W        W19912   8.319   1.190  14.082  0.1556  0.1457  0.1272
 2389W        W19913  11.845  14.733  13.810 -0.1118 -0.2861  0.2026
 2390W        W19914  17.863   2.428  12.444  0.0060  0.0229 -0.3149
 2391W        W19915  10.040   5.585  13.752  0.3539 -0.0892 -0.2387
 2392W        W19916  13.205   5.185  15.437 -0.3221  0.2580  0.0281
 2393W        W19917   7.876  16.668   1.526  0.3010  0.0821  0.0191
 2394W        W19918  15.405   2.852  15.444 -0.4859 -0.0260 -0.0040
 2395W        W19919  13.743  11.160   5.306  0.0300 -0.1557  0.1678
 2396W        W19920  16.815   5.881   2.667  0.1600 -0.0574 -0.0492
 2397W        W19921   1.361  18.068   0.048 -0.0908  0.3180  0.2234
 2398W        W19922  10.967   5.031  11.903 -0.1253  0.1136 -0.3192
 2399W        W19923  15.891  12.446  13.323 -0.1079 -0.0658  0.0537
 2400W        W19924  14.024  12.853   1.060  0.2154 -0.1633 -0.0270
 2401W        W19925   3.356   5.149  15.376  0.0775  0.2882  0.2002
 2402W        W19926  16.569  12.574  14.352 -0.1279  0.2593  0.0229
 2403W        W19927   5.941   4.746   2.819 -0.0831  0.1831 -0.2013
 2404W        W19928  16.532  17.683   0.553 -0.0788  0.2527 -0.1343
 2405W        W19929   2.916   2.984  12.334  0.2109  0.0447  0.1096
 2406W        W19930   4.887  12.831   3.087 -0.0020  0.1658 -0.0755
 2407W        W19931   2.626  15.977  11.334  0.0547  0.0892 -0.0649
 2408W        W19932   8.744   3.067   4.680 -0.1427  0.0641  0.3339
 2409W        W19933   2.790  11.873  13.102  0.1471  0.0680 -0.1118
 2410W        W19934  15.291  14.964   4.382 -0.3682  0.2035 -0.0079
 2411W        W19935  16.182  11.006   3.268 -0.0450 -0.2769  0.1341
 2412W        W19936  16.879   3.002  14.283  0.1328 -0.0699  0.0553
 2413W        W19937   1.834  11.290   0.420 -0.0430  0.1107 -0.1973
 2414W        W19938   4.213  10.608   4.662 -0.0898 -0.0311  0.2126
 2415W        W19939  14.405  15.149  12.594 -0.0619 -0.2515 -0.0632
 2416W        W19940   7.978   2.699   3.409 -0.0555 -0.0852  0.0301
 2417W        W19941  18.332   2.235  12.283 -0.0348 -0.3155 -0.0276
 2418W        W19942  18.351  13.838  15.088  0.0425 -0.0291 -0.1758
 2419W        W19943   7.815  14.188  11.643  0.1390 -0.0746  0.1164
 2420W        W19944   0.027   0.041  15.243  0.0823  0.1658  0.0855
 2421W        W19945   6.654   5.062   4.616 -0.2181  0.1083 -0.1098
 2422W        W19946  10.723  17.569  11.883 -0.3057 -0.2182  0.0541
 2423W        W19947   7.136   6.704   0.632  0.0842  0.1128 -0.2106
 2424W        W19948  12.789   4.812  12.448  0.1634  0.0495 -0.1781
 2425W        W19949  14.937  12.771  13.215 -0.1890 -0.0367  0.0547
 2426W        W19950  16.618   1.264  11.121  0.1767 -0.0751 -0.1023
 2427W        W19951   8.841   4.121   2.716 -0.0692  0.0367  0.3059
 2428W        W19952   9.731   8.271  14.735  0.1658  0.2788 -0.0219
 2429W        W19953  15.235  14.303   4.646  0.0893 -0.0827  0.0108
 2430W        W19954   0.702  10.112   2.764  0.0851  0.3036  0.2235
 2431W        W19955   4.867  14.858   0.843 -0.1109 -0.2552  0.2051
 2432W        W19956  15.377   5.606   2.846 -0.0195 -0.0877 -0.1909
 2433W        W19957   4.384   0.352  12.108 -0.3130  0.1259  0.0206
 2434W        W19958  12.019   0.362  15.480  0.0017 -0.1596  0.2102
 2435W        W19959   4.091   8.900  14.678 -0.0516 -0.1768  0.0586
 2436W        W19960   8.628   6.603   2.010  0.0065 -0.3505  0.2036
 2437W        W19961   5.894  14.630   1.253 -0.0017  0.0453 -0.2428
 2438W        W19962  11.287   7.864  12.381  0.0459 -0.1719  0.0985
 2439W        W19963   8.626  15.404  14.163  0.1582  0.0342  0.3975
 2440W        W19964   8.219   0.232  15.215  0.0886 -0.0968  0.0266
 2441W        W19965   3.887   4.311  13.318  0.0967 -0.3075  0.1936
 2442W        W19966   6.590   2.385  12.203 -0.0153  0.1024 -0.0798
 2443W        W19967  14.361   1.255   3.153  0.0652 -0.5464  0.0007
 2444W        W19968  15.901   8.733  11.705  0.0628 -0.0352 -0.1850
 2445W        W19969   8.193  17.086  11.504  0.1511 -0.1109 -0.0005
 2446W        W19970  12.391   3.258   3.869 -0.1368  0.1045 -0.1125
 2447W        W19971   3.494   7.353  10.899 -0.2126 -0.0913  0.0490
 2448W        W19972   0.166   8.855  10.915  0.3163 -0.0618 -0.0577
 2449W        W19973   4.736   4.472   0.220  0.1278  0.1521  0.1253
 2450W        W19974   5.243  13.672  12.090 -0.0335  0.2583 -0.3081
 2451W        W19975  17.217   5.761   2.375  0.0649  0.0140  0.0380
 2452W        W19976   5.916  14.043   2.222  0.0745 -0.0227  0.0863
 2453W        W19977   0.835  13.351   2.404  0.0910 -0.0740  0.0151
 2454W        W19978  10.614   3.302   0.523  0.1128 -0.1680 -0.2574
 2455W        W19979  15.901   6.458   0.795  0.1028  0.1046 -0.0392
 2456W        W19980   5.283  15.260  12.958 -0.5133  0.2441 -0.2693
 2457W        W19981  18.247   8.999   3.022  0.0742  0.0308 -0.0580
 2458W        W19982   3.331   6.094   1.862  0.1800 -0.3029 -0.1606
 2459W        W19983  11.062  17.373   4.131 -0.2669 -0.2308  0.1723
 2460W        W19984  14.916  16.808  11.906  0.0840  0.2519  0.0265
 2461W        W19985   0.084   7.916  13.642 -0.0657 -0.1843  0.3439
 2462W        W19986  16.136   9.690   1.290  0.0089  0.4530 -0.1066
 2463W        W19987  16.006   5.058  13.378  0.2988 -0.2462 -0.1248
 2464W        W19988  14.811  10.110  11.659  0.1194  0.0745 -0.2701
 2465W        W19989  14.103  12.508   3.932 -0.0499  0.0499 -0.1536
 2466W        W19990   5.674   9.393  12.005  0.0938 -0.1537  0.1630
 2467W        W19991   0.259  12.491   4.264  0.2423 -0.0401  0.0500
 2468W        W19992   0.014   8.581   2.938  0.0730  0.0857 -0.2326
 2469W        W19993  13.365  15.692   0.328  0.1979 -0.0393  0.2106
 2470W        W19994  12.031   9.481  14.007 -0.2083  0.0055  0.0897
 2471W        W19995   4.155  11.900  12.001  0.0634 -0.2882  0.0516
 2472W        W19996  15.025   9.649  11.003 -0.0319 -0.1650 -0.1587
 2473W        W19997   0.093   7.362  12.361  0.0032  0.1881  0.1141
 2474W        W19998   8.059   2.352  12.423 -0.1570  0.2745  0.0216
 2475W        W19999  13.294  11.527  14.758  0.1037  0.0966 -0.1089
 2476W        W20000   8.137  14.428   1.978  0.0264  0.1071 -0.0383
 2477W        W20001   3.483  12.156   3.253 -0.2313  0.0295 -0.2089
 2478W        W20002   9.958  13.624   1.052  0.0336 -0.0962 -0.2095
 2479W        W20003   9.366   3.438  13.727 -0.0531 -0.0291  0.0974
 2480W        W20004   6.767   9.638   2.576  0.2517 -0.0435 -0.1050
 2481W        W20005   5.927  13.714   1.221 -0.1174 -0.0904 -0.3296
 2482W        W20006   9.400   6.552   3.923  0.0432 -0.1356  0.1543
 2483W        W20007   5.632   9.233   2.412 -0.1856 -0.2135 -0.0772
 2484W        W20008   2.499  11.735   4.649 -0.0625  0.0514 -0.1610
 2485W        W20009  14.804   7.197   3.821 -0.1788 -0.1913  0.0069
 2486W        W20010   7.352  12.713   1.135  0.2293 -0.0541 -0.0937
 2487W        W20011   4.251  11.630  13.403 -0.1468 -0.0225 -0.0102
 2488W        W20012   4.869   6.456  12.787 -0.1027  0.1178  0.1814
 2489W        W20013  16.199   2.701  12.019  0.1505  0.2882  0.0292
 2490W        W20014  17.858  17.791  11.828  0.0919  0.0074  0.1953
 2491W        W20015  13.807  13.388   1.768  0.0843 -0.2902  0.0277
 2492W        W20016  11.484   2.362   0.766 -0.0243  0.3972 -0.1692
 2493W        W20017  10.335  13.693  15.207 -0.0614 -0.5316 -0.2045
 2494W        W20018   2.981   2.231   3.123  0.0531 -0.0951  0.1860
 2495W        W20019   0.885   2.283  11.987 -0.0704  0.0772  0.0963
 2496W        W20020   6.861   0.725  13.015 -0.3663  0.2257 -0.2576
 2497W        W20021  13.440   7.650   0.060  0.0176 -0.2194 -0.1732
 2498W        W20022   6.387  16.749  13.319 -0.4160 -0.1754  0.2638
 2499W        W20023  17.663   7.467  12.386  0.1237  0.0847  0.1975
 2500W        W20024   7.699   8.857  12.852  0.2676 -0.3823 -0.1082
 2501W        W20025  11.999   5.677  13.182  0.0988 -0.0356 -0.1859
 2502W        W20026  13.463  15.134   1.791 -0.0185  0.0211 -0.2471
 2503W        W20027  14.590   1.941   4.530 -0.0358  0.0985 -0.2127
 2504W        W20028   7.614   1.336  13.808 -0.0466 -0.0664  0.1042
 2505W        W20029  13.557  10.917  11.813 -0.0482  0.2575 -0.2155
 2506W        W20030  17.985  18.008   4.866  0.0798  0.3022 -0.0895
 2507W        W20031   1.890  15.619  14.000  0.0240 -0.0405 -0.3351
 2508W        W20032  14.149   6.622   4.844  0.0215  0.2977  0.0768
 2509W        W20033  10.754   9.454   4.019 -0.2992  0.1300 -0.1778
 2510W        W20034  10.308  14.093  12.254  0.0289 -0.0423  0.0755
 2511W        W20035   8.411  17.854  15.292 -0.1873  0.3483  0.2584
 2512W        W20036   8.608  13.354   4.621  0.0708  0.1118  0.0541
 2513W        W20037   5.851  16.479   3.560  0.2603 -0.0121  0.0563
 2514W        W20038  17.511  10.848   4.439 -0.3094  0.0108 -0.3317
 2515W        W20039  16.654   1.758   1.867 -0.2501 -0.1934  0.2416
 2516W        W20040   8.130   6.802   2.004 -0.0007  0.0038 -0.0193
 2517W        W20041   3.268   7.914   1.154 -0.0930 -0.0884 -0.1631
 2518W        W20042  14.713   5.376  11.987  0.1649  0.0447 -0.2619
 2519W        W20043  12.343  17.929  14.392  0.2494 -0.0471 -0.1424
 2520W        W20044  14.521   7.087  14.411  0.0385  0.5079  0.0995
 2521W        W20045   1.005  10.085   3.169  0.4281 -0.0381  0.1966
 2522W        W20046   9.154  17.575  14.852  0.0862  0.3732  0.1612
 2523W        W20047  11.746  10.398  13.745 -0.3769 -0.1035 -0.1072
 2524W        W20048   9.212   3.758   3.534 -0.1810 -0.0449 -0.0550
 2525W        W20049   6.083  13.710  14.822 -0.1234 -0.1611  0.4854
 2526W        W20050  14.000   8.138   2.070 -0.0015  0.0166 -0.2055
 2527W        W20051   4.611   5.161   2.938  0.0493 -0.1332  0.2676
 2528W        W20052   8.174   7.530   4.402  0.1475  0.1521  0.4235
 2529W        W20053   2.104   1.027  11.520 -0.3914  0.2150  0.0345
 2530W        W20054  11.811   4.629   3.828  0.1158 -0.1774  0.1247
 2531W        W20055   6.584   2.567   1.243  0.0657  0.0124 -0.1661
 2532W        W20056   7.251  13.792   4.323  0.1302  0.3469  0.2630
 2533W        W20057   4.570   2.795   3.372  0.1796  0.3167  0.3104
 2534W        W20058   7.261   4.626  15.148 -0.2095  0.1021 -0.3061
 2535W        W20059  17.020   0.489   0.583 -0.0376 -0.3188 -0.1224
 2536W        W20060  14.467   9.448   0.085 -0.2332  0.1069  0.1799
 2537W        W20061   0.958   2.834  15.147  0.3619  0.0531 -0.0808
 2538W        W20062   7.683   6.491   0.495  0.0223 -0.0706 -0.0056
 2539W        W20063   7.664  14.684  12.863 -0.1107  0.2694 -0.1266
 2540W        W20064  10.543   3.800  11.693 -0.0561  0.3039 -0.2314
 2541W        W20065   0.335   8.429   0.501  0.1689 -0.0184  0.1476
 2542W        W20066  18.332  16.861   3.991  0.1063 -0.1484 -0.0749
 2543W        W20067   3.084   6.065   2.948 -0.0337  0.0133 -0.1471
 2544W        W20068  14.856  18.253   5.452 -0.0954 -0.0337  0.0009
 2545W        W20069  16.812   7.373   0.109 -0.2460 -0.1032 -0.0153
 2546W        W20070  14.307   1.079  12.054  0.0141  0.0497  0.2291
 2547W        W20071   6.516  14.222   3.762  0.3170 -0.4865  0.0835
 2548W        W20072  16.308  16.029  11.591  0.1408 -0.0786 -0.0944
 2549W        W20073  16.753   5.365   1.555  0.2870  0.0880  0.2066
 2550W        W20074   7.705  17.967   1.363 -0.2059 -0.0118  0.1634
 2551W        W20075  12.885  10.788   0.276 -0.2611 -0.1880  0.1989
 2552W        W20076   3.521   8.322   0.202 -0.2458 -0.0252  0.0491
 2553W        W20077   2.348   7.499  14.740 -0.0446  0.0262  0.0930
 2554W        W20078  15.987   0.675   1.361  0.1398  0.1264 -0.2027
 2555W        W20079   3.834   8.622  12.185  0.1532  0.2228  0.3158
 2556W        W20080   7.203  16.531  12.066 -0.2043 -0.1878 -0.3460
 2557W        W20081  17.606  12.565  11.021  0.1661 -0.1205 -0.0378
 2558W        W20082  13.711  12.556   2.771 -0.0623 -0.2944 -0.0896
 2559W        W20083   4.918  15.767  11.674 -0.0981 -0.1664 -0.3134
 2560W        W20084  10.571   2.801   4.472 -0.0670  0.2586  0.0163
 2561W        W20085   9.500   5.493   2.312 -0.1701 -0.0649 -0.1280
 2562W        W20086  17.358   6.051  15.198 -0.5394  0.0566  0.0610
 2563W        W20087  13.437  12.704  15.006 -0.2271 -0.2039 -0.0232
 2564W        W20088   2.914   3.601  10.062  0.0958  0.2052  0.0628
 2565W        W20089   0.214  10.819  11.004 -0.1253  0.1996 -0.2230
 2566W        W20090  11.875   7.428  11.161  0.0912  0.0539 -0.0570
 2567W        W20091   8.624  11.128  11.264 -0.0148 -0.1356 -0.0517
 2568W        W20092   6.043  18.454   3.729 -0.1642  0.2668 -0.1374
 2569W        W20093   4.477   3.585  14.834  0.0173  0.1675 -0.3193
 2570W        W20094   9.909   5.077   0.272 -0.0634 -0.1475  0.5573
 2571W        W20095   2.613  12.318   2.951  0.0492  0.0049  0.1257
 2572W        W20096   5.172   1.828  15.224  0.1187  0.0375 -0.1171
 2573W        W20097   4.728  11.764   1.427  0.1147  0.3990  0.1279
 2574W        W20098  11.108  11.150  13.460  0.1016 -0.0071 -0.2238
 2575W        W20099   0.553   6.499   0.507  0.2323 -0.1719 -0.0803
 2576W        W20100   5.158  14.637  10.879 -0.3521 -0.0862  0.2016
 2577W        W20101   7.333   5.311   2.289  0.1732 -0.0625  0.0396
 2578W        W20102   6.066   6.125  15.354 -0.0451  0.1476 -0.3102
 2579W        W20103   5.810  16.114   2.038  0.2371  0.1670  0.0391
 2580W        W20104  13.034   8.940  11.965 -0.2324  0.1953 -0.1549
 2581W        W20105   9.149  10.831   3.563  0.1544  0.3069  0.1564
 2582W        W20106  13.102   7.648  15.194  0.0961 -0.0092  0.0360
 2583W        W20107  14.617   0.127  15.706 -0.0129  0.0328 -0.1114
 2584W        W20108   2.186  13.830   1.254 -0.2237 -0.3344  0.0662
 2585W        W20109  17.962   4.578   0.685 -0.2262 -0.0031 -0.1862
 2586W        W20110   0.544   2.873  14.617 -0.1885 -0.0725  0.0108
 2587W        W20111  12.503  10.622   1.179 -0.2411 -0.2341  0.1107
 2588W        W20112   5.926   3.898   9.793 -0.2554 -0.0925  0.0359
 2589W        W20113  13.176   7.372   4.096  0.2536  0.0460  0.2796
 2590W        W20114   5.503  13.347   1.895  0.0743  0.0297 -0.0353
 2591W        W20115   6.833   1.670  12.121 -0.1773  0.0338 -0.0117
 2592W        W20116   1.613  10.605   2.756 -0.2971  0.0594 -0.1870
 2593W        W20117  13.297   7.499  11.242 -0.2451 -0.0413 -0.0599
 2594W        W20118  12.537  11.059  11.848 -0.2753  0.0389 -0.0645
 2595W        W20119  14.090  14.407  12.302 -0.1625  0.0297  0.2053
 2596W        W20120  10.805   8.163   5.521 -0.1450 -0.1145 -0.1265
 2597W        W20121   5.901  16.419  15.141 -0.1573 -0.0465  0.0954
 2598W        W20122   3.227  17.842  11.655 -0.1757  0.1958  0.2065
 2599W        W20123   9.746   6.191  12.426  0.2694  0.0675  0.2067
 2600W        W20124  16.632   4.441   4.267  0.2361 -0.0051 -0.1705
 2601W        W20125  15.711  14.590   2.268  0.1937  0.1559  0.2035
 2602W        W20126   9.246  12.036   3.089  0.3597 -0.1361 -0.3243
 2603W        W20127  11.503   5.558   5.596 -0.2411  0.0529 -0.1899
 2604W        W20128   6.256  12.080  11.221  0.1006  0.2576 -0.2511
 2605W        W20129   6.497   0.368   3.666 -0.3291 -0.1500  0.3721
 2606W        W20130   2.949   5.402  12.754  0.1330  0.1555  0.1030
 2607W        W20131  11.091   0.270   1.972  0.1783  0.1516  0.2166
 2608W        W20132  10.384  14.547  12.542 -0.2086 -0.2165 -0.2831
 2609W        W20133  12.369  18.360   4.171 -0.0248 -0.4063  0.1816
 2610W        W20134  15.346  10.331  12.175 -0.0914  0.1861  0.2770
 2611W        W20135  14.807   9.071  12.230 -0.1597 -0.0068  0.1270
 2612W        W20136  18.318   3.218  15.127  0.2760  0.0085  0.1645
 2613W        W20137  10.997   4.137  15.423 -0.2367  0.0545  0.0156
 2614W        W20138   7.748   3.764   1.316 -0.2052  0.0912 -0.0694
 2615W        W20139   1.368   8.251  12.392  0.0670  0.1838  0.2849
 2616W        W20140  12.903   4.029  11.161  0.1422 -0.2183  0.0948
 2617W        W20141  17.103  16.117   5.067  0.1676 -0.2787  0.1764
 2618W        W20142   1.421  18.180   1.490 -0.1672 -0.4013 -0.0937
 2619W        W20143   5.758  16.217   4.059  0.0649  0.0778  0.0998
 2620W        W20144  18.224   9.053  13.320 -0.3582  0.0149 -0.0309
 2621W        W20145   4.728   6.575   2.540 -0.1230 -0.2076 -0.0552
 2622W        W20146  15.104   5.239   2.613  0.1498  0.0713  0.0181
 2623W        W20147   1.939   2.936   5.956 -0.1736  0.1122  0.2047
 2624W        W20148  12.965  15.513  13.325  0.5211  0.1948 -0.1982
 2625W        W20149  13.201   6.209  10.419  0.2370 -0.0499  0.1058
 2626W        W20150   2.992  13.695  13.104 -0.0588 -0.0852  0.0853
 2627W        W20151  15.027  12.612   4.269 -0.1452  0.0273  0.0423
 2628W        W20152   8.208   2.045  10.798  0.0570  0.0205  0.1201
 2629W        W20153  13.069   4.911  11.731  0.2009 -0.1808  0.0438
 2630W        W20154  16.870  14.154  11.755 -0.0176 -0.1201 -0.0885
 2631W        W20155  13.804  17.161  10.784 -0.0704 -0.1509  0.1693
 2632W        W20156   3.317   9.505  14.033  0.1245  0.1513 -0.0589
 2633W        W20157   4.521   7.329   9.581 -0.1754 -0.0120  0.0008
 2634W        W20158  17.618   4.475   3.931  0.1188 -0.1258  0.1723
 2635W        W20159  14.624  13.250  14.698  0.0031  0.0670  0.2631
 2636W        W20160  11.122  10.943  13.019 -0.0257 -0.0089  0.2550
 2637W        W20161   7.446  10.089   3.382  0.2194 -0.0302  0.1386
 2638W        W20162   9.816   1.334   3.817  0.0645  0.0998 -0.3021
 2639W        W20163   4.658   4.470  12.378 -0.2018  0.1403  0.0616
 2640W        W20164  14.250   5.512  11.277 -0.3160  0.0093  0.0998
 2641W        W20165   9.963  16.561   4.860  0.2041 -0.2662  0.1670
 2642W        W20166   2.440  15.871  13.299 -0.4128  0.0241  0.2399
 2643W        W20167   7.930   2.602   1.667  0.0357  0.1107  0.3303
 2644W        W20168  12.464  16.735   0.617 -0.2915  0.3453 -0.1216
 2645W        W20169   0.244   5.491   0.494  0.1145  0.1948 -0.0664
 2646W        W20170   2.344   6.322  13.702 -0.1441 -0.0102  0.1448
 2647W        W20171   3.492  10.562  15.123  0.1633 -0.0210  0.2443
 2648W        W20172  18.275  12.630   4.532 -0.2540  0.2528  0.3180
 2649W        W20173  13.987  15.284  14.015 -0.0620 -0.1181 -0.3005
 2650W        W20174   5.155  16.998   0.935  0.0414  0.5214 -0.2020
 2651W        W20175   3.948  11.224  15.629 -0.0543 -0.3496  0.3757
 2652W        W20176   9.659   6.385  15.048 -0.1981  0.2710  0.0355
 2653W        W20177  11.001  11.446   0.224  0.3448  0.1320 -0.1601
 2654W        W20178   3.911   1.161  14.367  0.0285  0.2382  0.1136
 2655W        W20179   0.255   4.656   1.195 -0.2827 -0.3884  0.3338
 2656W        W20180  13.519  15.267  12.313  0.0383 -0.1727 -0.0795
 2657W        W20181   0.947   8.696   2.996 -0.3313  0.3134 -0.1193
 2658W        W20182   6.484  13.238  15.668 -0.4437  0.0259 -0.2858
 2659W        W20183   2.095   4.260  14.226  0.1781 -0.2778  0.1408
 2660W        W20184  10.660   3.732  15.565 -0.2663 -0.2449 -0.2211
 2661W        W20185  18.152  14.747   4.462  0.2771  0.0263 -0.1031
 2662W        W20186  15.896   7.091  14.783  0.1151 -0.3605 -0.3490
 2663W        W20187  10.259  12.289   0.876 -0.0431 -0.1327 -0.1388
 2664W        W20188   8.533  13.945  13.910 -0.2871  0.3396  0.0552
 2665W        W20189  18.207   7.240  11.496  0.2597  0.2112 -0.4839
 2666W        W20190   2.610   7.794   2.120 -0.4135  0.1511 -0.1350
 2667W        W20191   1.843   1.795  14.237 -0.2290  0.3352  0.1057
 2668W        W20192   3.628   2.144   1.733  0.0662 -0.1143  0.1212
 2669W        W20193   2.541   7.892   3.016  0.0805 -0.1073 -0.0185
 2670W        W20194   7.641   2.817  11.723 -0.1624 -0.3914  0.0371
 2671W        W20195  16.267   1.691   2.190 -0.2605  0.1740  0.1607
 2672W        W20196   4.146   0.938   4.606  0.1891 -0.0436  0.4094
 2673W        W20197  18.466   1.078   2.900  0.0868 -0.0659 -0.3569
 2674W        W20198   0.761  14.256  13.818 -0.0840  0.2875 -0.0891
 2675W        W20199  13.802  10.185  11.744 -0.0258  0.2134 -0.0993
 2676W        W20200   5.421  10.590   1.392  0.1553  0.2198 -0.0221
 2677W        W20201   0.002  15.136  14.943  0.2187  0.0015 -0.1846
 2678W        W20202   3.751   0.383  13.599  0.2609  0.0986 -0.0834
 2679W        W20203  13.699   3.035   2.355  0.0282 -0.2501  0.1172
 2680W        W20204  11.992   7.529  13.422 -0.3330 -0.2828  0.0917
 2681W        W20205  15.097   6.097  12.163  0.1504  0.1211 -0.0083
 2682W        W20206  12.765   0.738  11.915  0.0288  0.0215  0.1622
 2683W        W20207   5.607  11.260   0.846  0.1996  0.0268 -0.0490
 2684W        W20208  17.355   8.040  10.285 -0.0087 -0.0880  0.0431
 2685W        W20209   2.711   1.029  15.541 -0.3374 -0.0874  0.0088
 2686W        W20210  16.490   0.181  14.611  0.2877 -0.2477 -0.2529
 2687W        W20211  15.174  13.019   4.020 -0.0580  0.0991 -0.1275
 2688W        W20212  10.183  18.084   3.245  0.0162  0.3062  0.1043
 2689W        W20213   4.033   9.204   4.035  0.1694  0.3496 -0.0876
 2690W        W20214  16.934  10.073   3.787  0.1921 -0.1079  0.0824
 2691W        W20215   3.785  13.828  12.621  0.1226  0.3470 -0.0719
 2692W        W20216  16.103  10.989  12.658  0.2144 -0.2089  0.1010
 2693W        W20217   8.919  12.105  11.829  0.0058  0.0166 -0.1302
 2694W        W20218  10.069  14.538   4.921  0.2046  0.1837  0.3432
 2695W        W20219  16.745  17.386  13.018 -0.0679  0.4189  0.1223
 2696W        W20220  14.656   1.272   1.775  0.2426  0.1330  0.0880
 2697W        W20221  13.153   9.056  13.340  0.3144 -0.4317  0.0167
 2698W        W20222   8.559  16.697   5.759  0.1783 -0.4934  0.1576
 2699W        W20223   0.838  16.122  12.290 -0.2455  0.4122 -0.3672
 2700W        W20224   6.161   5.443  15.333  0.3281  0.1728  0.2152
 2701W        W20225   1.494  17.218   0.482  0.0180 -0.0234 -0.3267
 2702W        W20226   8.078   8.139   0.896 -0.1066  0.0592 -0.1282
 2703W        W20227  15.310   5.824   2.050  0.1211 -0.2120  0.3430
 2704W        W20228   7.104  14.152   0.806 -0.0766  0.1888  0.1960
 2705W        W20229   1.804  14.966   0.609  0.0446  0.3830 -0.0249
 2706W        W20230   2.849  14.106  13.885 -0.0078  0.3017  0.0851
 2707W        W20231   4.864  11.418   3.873 -0.2517  0.2061  0.0277
 2708W        W20232   3.638   7.611   4.216  0.0941 -0.0433  0.2926
 2709W        W20233  13.896  11.841   1.159 -0.0792 -0.3732  0.2971
 2710W        W20234  12.211  18.054  12.489  0.3648  0.1960 -0.2035
 2711W        W20235  12.244  13.547  12.208  0.0483  0.0317 -0.1800
 2712W        W20236   6.595   3.575   0.364  0.0071 -0.1177 -0.0472
 2713W        W20237   6.462  10.085   4.306 -0.3514 -0.1589 -0.0653
 2714W        W20238   5.185  10.904   3.677  0.1658  0.2413 -0.2636
 2715W        W20239   4.580   4.599   4.947  0.0274  0.0345 -0.0162
 2716W        W20240  17.632  14.512   3.041  0.2727 -0.0326  0.0189
 2717W        W20241   2.567  11.517  13.518  0.2069 -0.0379  0.1403
 2718W        W20242   8.137  10.751  11.212 -0.2283 -0.2592  0.0154
 2719W        W20243  13.702   0.595   5.215 -0.0019 -0.2175 -0.1284
 2720W        W20244  15.575   8.565  15.264 -0.0766  0.1920 -0.1699
 2721W        W20245  10.321  17.914  14.415  0.1298  0.2975  0.0637
 2722W        W20246   2.469  17.262   3.993  0.0864 -0.1449 -0.0076
 2723W        W20247   9.337   0.455  14.401 -0.2386 -0.1914 -0.2143
 2724W        W20248  17.003   3.428  11.329  0.0440  0.0826  0.0638
 2725W        W20249  16.034  18.223   0.289  0.0663 -0.1859 -0.1912
 2726W        W20250  16.041  14.023  12.295  0.4264  0.4467  0.0391
 2727W        W20251   6.284  12.321  10.692  0.3938 -0.2031  0.1580
 2728W        W20252   0.544   4.057   2.119 -0.0094 -0.1943  0.4859
 2729W        W20253  12.851   8.911  14.475  0.1382  0.2449  0.1750
 2730W        W20254  15.581  16.857  14.595  0.0095 -0.0829  0.1995
 2731W        W20255   0.695  10.113   4.485  0.2274 -0.3002  0.2387
 2732W        W20256  12.168  14.713   1.844  0.1294 -0.1113  0.1426
 2733W        W20257   9.882   6.954  13.254  0.2954 -0.1777  0.2440
 2734W        W20258  12.926   7.840  13.335 -0.2590 -0.0559  0.1754
 2735W        W20259   4.706   7.357   1.625  0.0407  0.1082 -0.0565
 2736W        W20260  17.862   1.067  12.957  0.0165  0.0288 -0.1701
 2737W        W20261   4.418   6.668  12.937  0.1371  0.1217  0.0302
 2738W        W20262  12.248   1.530   3.692  0.0761 -0.3084  0.2002
 2739W        W20263  11.816   7.869   4.688 -0.0755  0.0054  0.1629
 2740W        W20264   6.107  14.386   4.054 -0.3133 -0.0122  0.0044
 2741W        W20265   9.478  12.179  11.467  0.1868 -0.3045  0.0180
 2742W        W20266  18.071  14.741  12.852 -0.3596 -0.1209  0.1606
 2743W        W20267  11.413   6.832   1.085 -0.0355 -0.0362  0.2317
 2744W        W20268  13.811   7.217   2.910  0.1622 -0.2252  0.1802
 2745W        W20269  16.002  12.078  14.974  0.3184  0.0898 -0.2142
 2746W        W20270   7.021   8.243   2.667  0.3668  0.0077  0.1224
 2747W        W20271   4.605  15.947   3.223 -0.1948 -0.2298  0.0762
 2748W        W20272   4.609  10.780  12.196  0.0336  0.0223  0.0164
 2749W        W20273  16.012  16.234  13.818 -0.0736  0.1088 -0.3143
 2750W        W20274  17.223  14.737  15.599  0.0280  0.1583 -0.2133
 2751W        W20275  14.319  13.334  10.554  0.3084  0.0391  0.1085
 2752W        W20276  15.254  10.725   0.671 -0.2734  0.0696 -0.0101
 2753W        W20277   0.807   1.255  11.652  0.1201  0.3723  0.1169
 2754W        W20278  17.968  14.815   4.004  0.3681  0.2564  0.2609
 2755W        W20279   5.552  18.039   1.731 -0.0321  0.3247  0.1798
 2756W        W20280   7.189   7.276   3.655 -0.3077 -0.1822  0.1029
 2757W        W20281  12.119   4.577  11.879 -0.0221  0.0635  0.0400
 2758W        W20282   8.355   7.479   0.427  0.1396  0.0067  0.0127
 2759W        W20283   0.794  18.244   2.126 -0.0799  0.1327  0.0677
 2760W        W20284  11.738   3.514  15.397 -0.2309 -0.1457  0.0614
 2761W        W20285   9.510   4.235  14.235  0.7166  0.5171  0.0491
 2762W        W20286   2.175  14.666   4.131 -0.4468  0.1324 -0.1161
 2763W        W20287   9.343  13.507  15.485  0.5372  0.1604 -0.3556
 2764W        W20288   7.683  15.771   3.809  0.0664 -0.2914 -0.2615
 2765W        W20289  18.045  10.524   4.973 -0.2125  0.2194  0.0686
 2766W        W20290  13.497   7.518  10.735  0.0201  0.0050  0.1239
 2767W        W20291   0.710  13.228  13.473  0.0060 -0.1715 -0.0562
 2768W        W20292   1.803   8.309   1.969  0.0849  0.1583 -0.1126
 2769W        W20293   1.926   9.829  14.031 -0.0387  0.2361 -0.0717
 2770W        W20294  16.315   4.431   0.875 -0.1819  0.1471 -0.0816
 2771W        W20295  12.962   9.083   2.142  0.1104  0.0770 -0.1153
 2772W        W20296  13.646  13.091   3.104 -0.2069  0.1126 -0.1350
 2773W        W20297  10.942   6.316   4.203  0.3334  0.0281 -0.3606
 2774W        W20298   8.375  10.112  12.395  0.0251  0.2910 -0.1858
 2775W        W20299  12.729  12.311   3.278 -0.1084 -0.3526 -0.0710
 2776W        W20300  14.452   9.498  13.306  0.1668  0.1144 -0.0925
 2777W        W20301   9.370  17.413  11.174  0.1413 -0.1250  0.3736
 2778W        W20302  17.921   6.695   0.717 -0.2458  0.1035  0.0990
 2779W        W20303   7.040  17.567  12.408 -0.0822  0.1194 -0.2499
 2780W        W20304   6.829   8.273  14.451 -0.0093  0.0628  0.0901
 2781W        W20305  10.960   0.524  12.042 -0.0909 -0.0404  0.2364
 2782W        W20306   3.000   9.840   1.036 -0.0782 -0.0141 -0.1269
 2783W        W20307  10.325  18.309   1.849 -0.0959 -0.1825 -0.1152
 2784W        W20308  17.918   9.795  13.600  0.2674  0.1029 -0.3256
 2785W        W20309  17.875  17.477   0.926  0.2327 -0.0214 -0.0307
 2786W        W20310   2.651   5.618   1.896 -0.1850 -0.1037 -0.1395
 2787W        W20311   7.293  14.071   4.803 -0.1529  0.1447 -0.0129
 2788W        W20312   8.411  11.370  15.687  0.1378 -0.2365  0.0712
 2789W        W20313  16.839   5.501  14.858 -0.0101  0.1279 -0.1891
 2790W        W20314   1.313   4.944  11.776 -0.4058  0.0885 -0.0603
 2791W        W20315  16.094   3.384   0.845 -0.4762 -0.2368 -0.1174
 2792W        W20316  18.271  17.804  13.875  0.2602 -0.1588 -0.1546
 2793W        W20317   9.986  15.267   0.761  0.1187  0.0493 -0.0472
 2794W        W20318  13.583   8.190  13.977  0.1455 -0.1274  0.1048
 2795W        W20319   2.330  15.083   4.751 -0.0006 -0.1006  0.0589
 2796W        W20320   8.709   4.828  11.566 -0.1563  0.1513  0.0373
 2797W        W20321   1.229   2.624  11.867 -0.0150 -0.1164 -0.2360
 2798W        W20322  17.696   1.246  15.313 -0.1745  0.0582  0.1260
 2799W        W20323   2.692   3.395   2.140  0.0071  0.2633  0.0009
 2800W        W20324  14.899   2.550  13.047 -0.1677  0.2057 -0.0119
 2801W        W20325  12.702   9.513   0.181 -0.1573  0.1960  0.0359
 2802W        W20326   1.223  12.648  15.113  0.0388 -0.0945  0.0951
 2803W        W20327  14.000   7.043   4.557  0.0181  0.1780 -0.0574
 2804W        W20328   2.137  14.713   0.315 -0.0227 -0.2300  0.0007
 2805W        W20329  13.310   9.910   2.154 -0.2255  0.0304 -0.1820
 2806W        W20330   3.985  18.431  13.628  0.2480  0.3761 -0.1889
 2807W        W20331   6.754   9.165  10.996  0.2369 -0.1086 -0.0804
 2808W        W20332  16.755   5.668  11.229  0.1218  0.0602  0.2804
 2809W        W20333  15.480   0.916  13.521 -0.1103 -0.4192 -0.3203
 2810W        W20334   9.143   3.804  14.124 -0.0089 -0.0146  0.0280
 2811W        W20335  10.703   7.977   4.191 -0.0341  0.0091 -0.1119
 2812W        W20336   9.561  11.046   5.756 -0.2858  0.2367 -0.0646
 2813W        W20337  17.735  15.197  10.981 -0.1836  0.0338 -0.1743
 2814W        W20338  11.391  16.510   5.798  0.0999  0.2701  0.0589
 2815W        W20339  10.002  14.046   1.356 -0.2491 -0.0419 -0.0460
 2816W        W20340   3.943  16.441   0.729 -0.1210  0.0442 -0.2255
 2817W        W20341  10.475   1.480   1.518 -0.0683  0.0931  0.0594
 2818W        W20342   4.399   9.189   1.709 -0.1444 -0.0877 -0.1672
 2819W        W20343   8.479   6.641  15.572 -0.2631 -0.2911  0.0107
 2820W        W20344  10.161  12.929   3.055  0.2206 -0.1402  0.0239
 2821W        W20345  16.850  17.656   6.031  0.0546  0.0455 -0.3739
 2822W        W20346  11.608  17.941   1.697  0.1978 -0.1165  0.2213
 2823W        W20347   3.014   2.473  15.538  0.1295  0.0739  0.1963
 2824W        W20348  17.670   1.941  14.272  0.0824 -0.1104 -0.2613
 2825W        W20349   6.454   4.630  15.554  0.3966  0.1884  0.0269
 2826W        W20350  15.196  14.916   0.666 -0.0931 -0.0337  0.2779
 2827W        W20351   8.527   5.444   0.611 -0.1042  0.0988 -0.1628
 2828W        W20352   7.714  16.560   0.578 -0.0224 -0.1986 -0.0317
 2829W        W20353  16.320  13.588   0.454  0.3270 -0.1101 -0.1165
 2830W        W20354  14.460   7.025   4.500 -0.1444 -0.0643 -0.1149
 2831W        W20355   6.263   2.273  15.030 -0.0917  0.2372 -0.3478
 2832W        W20356   8.687   0.929   0.528 -0.0558 -0.0449 -0.0931
 2833W        W20357  11.766  12.010  14.266 -0.0714  0.2120  0.0847
 2834W        W20358   9.793   9.276   1.243  0.2146 -0.1504 -0.1576
 2835W        W20359  10.970  16.527   4.069  0.1883  0.1457  0.0637
 2836W        W20360   2.781  17.779   4.070 -0.2607  0.3573 -0.2967
 2837W        W20361  13.609   6.341   2.145 -0.1106  0.1716  0.1107
 2838W        W20362  17.826  17.966  11.267  0.3782  0.0205  0.0346
 2839W        W20363   3.559  17.871  12.633 -0.0274  0.0408 -0.0579
 2840W        W20364  11.170   3.631   9.880 -0.0896  0.0372 -0.1578
 2841W        W20365   9.833  16.468  12.627  0.1131 -0.2917  0.1638
 2842W        W20366  14.977  18.340  14.772 -0.1030 -0.0748  0.2065
 2843W        W20367  15.460  11.539   0.079  0.3213 -0.1281 -0.0547
 2844W        W20368  12.016   8.275  12.125  0.0121  0.3642 -0.2667
 2845W        W20369   2.200  10.635   3.359 -0.0924  0.0552 -0.0275
 2846W        W20370   3.745  10.083  14.587  0.2432  0.2484  0.2547
 2847W        W20371  17.429  11.018   3.441  0.0522 -0.0880  0.2427
 2848W        W20372   8.893  14.794   1.751 -0.0262  0.1459  0.0839
 2849W        W20373  10.137   6.212  13.163  0.0023  0.3367  0.1141
 2850W        W20374   1.078   0.175   3.469  0.1237  0.1253  0.0884
 2851W        W20375  14.840   2.969  15.698  0.0547 -0.1275 -0.3778
 2852W        W20376  12.620   6.636  14.288  0.1645 -0.1426  0.0286
 2853W        W20377   6.741   9.709   3.586  0.1666  0.0303  0.2698
 2854W        W20378   0.699   4.523  12.455  0.1304 -0.2528  0.0866
 2855W        W20379   9.349   0.250  11.336 -0.0054  0.1472 -0.0038
 2856W        W20380   3.162  16.208   1.373 -0.0935  0.0919 -0.0887
 2857W        W20381   7.530  12.610   2.299  0.1291  0.1012  0.0919
 2858W        W20382  10.032   7.876  12.005 -0.0092  0.1324  0.2730
 2859W        W20383   1.140  13.262   0.942 -0.2799  0.0080 -0.2673
 2860W        W20384   1.506   9.367   2.995  0.0273  0.1649 -0.1550
 2861W        W20385   5.034   4.823  14.441 -0.2892 -0.2805  0.0289
 2862W        W20386   9.551   2.222  15.012 -0.1482 -0.0887  0.1412
 2863W        W20387  11.920   8.864   3.444  0.1309 -0.0677 -0.0863
 2864W        W20388  15.908   2.883  15.599 -0.1477 -0.1500 -0.3585
 2865W        W20389  16.194  10.886   0.123  0.0310  0.1653  0.1343
 2866W        W20390   2.814  14.408  11.709 -0.2053 -0.1507  0.0064
 2867W        W20391  14.374   0.720   0.819 -0.1290 -0.2027 -0.1702
 2868W        W20392  15.095  10.930  13.686 -0.0550 -0.2017  0.0238
 2869W        W20393  17.831   0.768  13.399 -0.0707 -0.1544 -0.0744
 2870W        W20394   7.513   3.151   9.839 -0.1467  0.1093  0.5418
 2871W        W20395   2.210   3.064  13.138 -0.0068 -0.0677 -0.1273
 2872W        W20396  10.992  14.072   3.739 -0.0044  0.1036  0.2149
 2873W        W20397  11.427  12.093   2.841  0.2801  0.0985 -0.2778
 2874W        W20398  17.515   3.404  12.861 -0.1657 -0.1051  0.1120
 2875W        W20399  12.077   7.855  11.060 -0.0646  0.1758  0.3909
 2876W        W20400   9.547  11.734   4.622 -0.1629 -0.0880 -0.1880
 2877W        W20401   3.434   6.019   4.792  0.3572 -0.1944  0.1028
 2878W        W20402  13.837  15.476   3.541 -0.2206  0.4058  0.1991
 2879W        W20403  15.662   7.373  15.285  0.1718  0.0538 -0.2508
 2880W        W20404   7.494   4.398  14.004 -0.0442 -0.0160  0.0519
 2881W        W20405   7.433   9.778   0.459 -0.1485  0.2890  0.1041
 2882W        W20406   1.729  15.382  12.062 -0.2255 -0.1504  0.1369
 2883W        W20407  12.292  13.914   2.792 -0.1016  0.1109  0.0263
 2884W        W20408  12.136   5.404   1.127 -0.4664 -0.1291  0.0371
 2885W        W20409   9.333  12.765  12.851 -0.0811  0.2055  0.0480
 2886W        W20410   5.353   9.030   2.021  0.2788 -0.1568 -0.1018
 2887W        W20411   7.031  18.269  15.071  0.0089  0.0201 -0.2139
 2888W        W20412   5.636   1.737  11.297 -0.0146 -0.1004 -0.2891
 2889W        W20413   9.893   6.167   4.489  0.2860 -0.0126  0.0084
 2890W        W20414   0.152  15.559  11.530  0.1966 -0.0804  0.2414
 2891W        W20415   6.710  12.966  14.754 -0.1233  0.0845  0.0415
 2892W        W20416   4.022   9.752   3.859  0.0984  0.0661  0.0046
 2893W        W20417   4.345   9.276  12.084 -0.0192 -0.3005  0.0299
 2894W        W20418  15.880  13.940  12.966 -0.1261 -0.1689 -0.3605
 2895W        W20419   5.453   3.345  13.994 -0.0255 -0.0202 -0.1047
 2896W        W20420   2.716   7.575   0.340  0.0009  0.0067  0.0448
 2897W        W20421   9.431   4.997   3.146  0.1557 -0.1844  0.2039
 2898W        W20422  10.011   8.608   3.598  0.0677  0.3064 -0.0550
 2899W        W20423  13.825   8.343  15.026 -0.3258 -0.0237  0.1609
 2900W        W20424   7.123  10.720  14.032  0.1877 -0.1904 -0.2245
 2901W        W20425   1.502   5.730   1.011  0.0973 -0.0087 -0.2257
 2902W        W20426   3.938   2.131  14.659  0.4648  0.0665  0.2638
 2903W        W20427  16.922   7.254   0.728 -0.0353 -0.3194  0.1555
 2904W        W20428  15.932  12.511   4.484  0.0723  0.1743 -0.1873
 2905W        W20429   3.495  14.358  10.266 -0.2837  0.1263 -0.3385
 2906W        W20430  11.056   8.509   5.131 -0.1922  0.1999 -0.0998
 2907W        W20431  17.209   3.794  11.587  0.2975  0.0008  0.1189
 2908W        W20432  17.403   4.259   2.033  0.0914 -0.1671 -0.3043
 2909W        W20433  14.151   3.933   1.301 -0.0878  0.1664 -0.3550
 2910W        W20434   6.187   7.551   2.416  0.2187  0.0863 -0.1968
 2911W        W20435  17.033  16.709   2.008 -0.0437 -0.1432  0.0507
 2912W        W20436  13.781   9.262  14.177 -0.0257 -0.1058  0.0575
 2913W        W20437  16.633   5.694   2.050 -0.1308 -0.2558 -0.1646
 2914W        W20438  15.147   7.647  15.267  0.0747 -0.0157 -0.0103
 2915W        W20439  17.223  15.681   4.891  0.0768  0.0343 -0.0717
 2916W        W20440  14.871   9.278  14.933  0.0313 -0.3361 -0.1268
 2917W        W20441  13.187   2.925   2.259 -0.0042  0.0814  0.2680
 2918W        W20442   9.936  15.734   3.177 -0.1041 -0.2989  0.1371
 2919W        W20443  11.062   5.379   2.016  0.1195 -0.1464 -0.1211
 2920W        W20444   5.607  16.122  14.865 -0.0027  0.2810  0.0216
 2921W        W20445   5.583   8.748  15.695 -0.0378  0.0685  0.2990
 2922W        W20446   4.779   5.745  15.608  0.1732 -0.0076  0.2042
 2923W        W20447  14.739  17.239   2.413  0.2109 -0.1821 -0.1622
 2924W        W20448  11.516  10.552  10.813 -0.1926 -0.0164 -0.0453
 2925W        W20449   3.583  15.907  15.512 -0.0544 -0.0810 -0.1429
 2926W        W20450   3.470  16.335   2.339  0.0359 -0.2198  0.2239
 2927W        W20451  15.487  13.771   4.438  0.2724  0.2627  0.0164
 2928W        W20452  14.615  11.867   4.567 -0.2119 -0.0414 -0.0187
 2929W        W20453  11.467  18.157  11.785  0.0602  0.1924 -0.2250
 2930W        W20454  17.195   5.679  12.432  0.2229  0.1319 -0.0376
 2931W        W20455   9.614   2.033   0.295  0.1996  0.2318 -0.3600
 2932W        W20456  18.421   8.078  11.215  0.0401  0.1371 -0.0209
 2933W        W20457   4.580   2.200   4.231  0.3447 -0.1725 -0.1447
 2934W        W20458  17.468  12.354   2.475 -0.0281 -0.1833 -0.0223
 2935W        W20459  10.174   9.651   2.836 -0.1550  0.3079  0.2304
 2936W        W20460  17.186  15.376  11.746 -0.0483 -0.1350  0.1543
 2937W        W20461   9.327  14.329  11.321 -0.2311 -0.1507  0.1166
 2938W        W20462  17.476  13.703  14.800  0.0255 -0.1601 -0.1523
 2939W        W20463   1.842   5.341  11.259 -0.0832 -0.2300 -0.3507
 2940W        W20464  17.706  14.011   4.166 -0.1963 -0.3591  0.0101
 2941W        W20465  14.112   2.714  11.257  0.3209 -0.0470  0.3017
 2942W        W20466   1.774   2.544  13.933 -0.0531 -0.0356 -0.0316
 2943W        W20467   9.978   1.605  13.655  0.3873  0.2376  0.1420
 2944W        W20468  17.021   6.341  10.029 -0.2688  0.0737 -0.2807
 2945W        W20469   3.781  13.509   3.627 -0.0240  0.0476  0.1360
 2946W        W20470   6.886   3.732  12.603  0.0635 -0.0702 -0.0954
 2947W        W20471  10.600  16.590   4.608  0.1662 -0.0291 -0.1788
 2948W        W20472   1.744  14.394  11.109  0.0342 -0.1459  0.0206
 2949W        W20473   7.434   2.366  11.892 -0.0473 -0.2091  0.0097
 2950W        W20474   7.264  12.658   3.582  0.0185  0.2335  0.2470
 2951W        W20475   2.285   3.704  13.904 -0.3657 -0.3841 -0.0721
 2952W        W20476   9.331   9.815   1.092 -0.0511 -0.1488  0.1361
 2953W        W20477  10.103   1.056   4.092 -0.3584 -0.0215 -0.2490
 2954W        W20478   4.129  12.440  12.083 -0.0989 -0.2350  0.0390
 2955W        W20479  15.982  14.199   2.830  0.1700 -0.3750 -0.2351
 2956W        W20480   5.602   7.518   4.844  0.6447  0.2063 -0.1519
 2957W        W20481  15.095   7.215  10.898  0.0308  0.0786 -0.4536
 2958W        W20482  14.709   3.101   2.847 -0.1865 -0.3225 -0.2352
 2959W        W20483   3.862  15.526   4.387  0.2380  0.5725 -0.1425
 2960W        W20484   2.910  15.717   4.924  0.0936 -0.0453  0.0243
 2961W        W20485   7.446   2.393   2.602 -0.0721 -0.2220  0.0374
 2962W        W20486   5.754  10.581  12.819 -0.0520  0.0265  0.6185
 2963W        W20487  17.368   0.170  14.353 -0.2009  0.2503  0.2943
 2964W        W20488  14.209   8.399   2.393  0.1979 -0.0075 -0.2617
 2965W        W20489  11.198   2.211  10.707 -0.0930 -0.2030 -0.1880
 2966W        W20490   5.121   6.503  15.660  0.2280  0.2295 -0.1651
 2967W        W20491  14.575   0.779   1.607 -0.0735  0.0434  0.4825
 2968W        W20492  17.353  14.643   2.214  0.0550 -0.1950 -0.0759
 2969W        W20493  12.971   6.476   4.090 -0.0647  0.2015 -0.2186
 2970W        W20494   4.889   2.243   1.325 -0.1222  0.0991 -0.0459
 2971W        W20495   1.757  15.365  10.328  0.1608 -0.3698 -0.1698
 2972W        W20496  17.348  14.171   2.389  0.1900 -0.1571  0.1311
 2973W        W20497   6.523  13.416  12.977 -0.2354  0.0058 -0.2977
 2974W        W20498  11.938  13.160  10.544 -0.2068  0.3434 -0.0074
 2975W        W20499   3.070  17.167   2.148  0.0353 -0.3196 -0.1681
 2976W        W20500   7.090  11.451   3.976  0.0965  0.0207  0.2770
 2977W        W20501  17.732  10.432  12.990  0.0309  0.1261  0.0968
 2978W        W20502  12.864   0.884  15.484 -0.4820 -0.0381 -0.1465
 2979W        W20503  11.589  11.401   0.250 -0.3616 -0.3087  0.1940
 2980W        W20504  16.425  17.117  15.474  0.0285  0.2389 -0.0324
 2981W        W20505  15.370  12.107  12.901  0.1796  0.0442  0.2285
 2982W        W20506  18.373  13.241  11.342 -0.0192 -0.1719  0.1445
 2983W        W20507  13.673  12.839  12.315 -0.1641 -0.0688  0.0951
 2984W        W20508   3.976  15.157   4.702  0.0647  0.1605  0.0858
 2985W        W20509   3.725   7.040  11.295 -0.1092 -0.3609 -0.0864
 2986W        W20510   4.491   3.122  11.671  0.2031  0.1223 -0.1278
 2987W        W20511  18.420  12.561  13.942 -0.2219  0.2963  0.0872
 2988W        W20512   5.880   7.007   1.846 -0.3190 -0.2366  0.1261
 2989W        W20513   9.260   9.970   3.835  0.2067  0.0379 -0.0002
 2990W        W20514  17.097   8.356   1.430  0.1481 -0.0751  0.3617
 2991W        W20515   5.657   2.984  13.714 -0.0715  0.1900  0.1576
 2992W        W20516  12.137   8.797   2.478  0.0822  0.1675 -0.0546
 2993W        W20517  15.945   4.165  11.495 -0.1364  0.2408 -0.5012
 2994W        W20518  17.002  15.225   5.074 -0.2155  0.0240  0.1926
 2995W        W20519   8.672  15.166  14.961 -0.1694  0.0840  0.3957
 2996W        W20520   4.589  17.655  11.808  0.1849  0.1065  0.0111
 2997W        W20521  13.617   9.080   5.116  0.3202 -0.2984  0.1537
 2998W        W20522  14.350  18.215  11.684  0.2182  0.1533 -0.1400
 2999W        W20523   4.392   6.867  13.928 -0.0394  0.0693  0.1083
 3000W        W20524   6.259   4.463  12.270 -0.2961 -0.0063 -0.2896
 3001W        W20525  14.375   4.716   3.155 -0.1494 -0.1153 -0.1330
 3002W        W20526   7.676   7.404  11.046 -0.1398  0.1729  0.1964
 3003W        W20527   8.901  13.660  14.735 -0.1238  0.0988  0.1741
 3004W        W20528  17.592  11.905   1.755 -0.0749 -0.1787  0.1358
 3005W        W20529   6.250   2.052   2.328 -0.1992  0.1767  0.0511
 3006W        W20530  13.029  15.028   2.090 -0.1943  0.1633  0.3449
 3007W        W20531   5.648  10.057   0.579  0.0739  0.2847 -0.1077
 3008W        W20532   9.717   3.009   4.354 -0.1985 -0.1593 -0.0126
 3009W        W20533  13.080   5.810  11.255 -0.1016  0.1208  0.0487
 3010W        W20534  16.010  10.219   4.104  0.1319  0.1924 -0.0439
 3011W        W20535  15.186   2.683   3.870 -0.2800  0.2728 -0.0862
 3012W        W20536  17.157   1.084  11.513  0.1755 -0.0526 -0.2028
 3013W        W20537  11.718   9.781   4.269 -0.1297  0.3245  0.0091
 3014W        W20538  12.901   1.417  15.559 -0.2526  0.0178  0.1739
 3015W        W20539  12.755   6.233   1.605  0.2056 -0.2273  0.0165
 3016W        W20540   8.093  15.440  13.315 -0.1443 -0.2695 -0.1678
 3017W        W20541  12.318  11.360  11.369  0.0618  0.1480  0.0379
 3018W        W20542   3.346   8.421   4.174 -0.1646  0.1757  0.2313
 3019W        W20543  16.056  12.282   2.089  0.1122 -0.2470  0.2251
 3020W        W20544   9.260   1.773   2.378  0.1098 -0.3163 -0.0735
 3021W        W20545  15.235  16.919  11.587 -0.3417  0.1297  0.0550
 3022W        W20546   1.508   9.518   1.420  0.0263  0.0022  0.5017
 3023W        W20547   0.179  17.275  13.233  0.0234 -0.1940 -0.0593
 3024W        W20548   4.543   9.580   3.666 -0.0037 -0.0524 -0.0293
 3025W        W20549  16.631  15.131   1.397  0.3379  0.1441 -0.3150
 3026W        W20550   7.532   8.147   1.741  0.0135 -0.1090 -0.0065
 3027W        W20551   4.071   5.072   2.829 -0.1761 -0.0218 -0.0644
 3028W        W20552   2.118  11.296   2.066  0.0341  0.0807  0.1193
 3029W        W20553   9.258   6.513   4.988  0.0287  0.2214  0.1446
 3030W        W20554  16.998   2.641   3.953  0.1946 -0.1270  0.1206
 3031W        W20555  14.000   8.320   4.874 -0.1709 -0.1181 -0.3140
 3032W        W20556  13.472  15.098  11.653  0.0354  0.0797 -0.0639
 3033W        W20557  12.837  11.056   3.048  0.2947 -0.3124 -0.0008
 3034W        W20558  18.282   5.600  12.131  0.2871 -0.2091  0.0130
 3035W        W20559   3.711  10.865  11.042 -0.0558 -0.0469 -0.0307
 3036W        W20560  13.404  15.681   1.688 -0.1991 -0.4999 -0.0874
 3037W        W20561   3.334   6.633  13.591  0.1490  0.3680  0.3111
 3038W        W20562   8.764   9.925  14.538 -0.0254  0.1983 -0.0474
 3039W        W20563   5.482   8.022  14.020  0.1887  0.1369 -0.2144
 3040W        W20564   8.180  12.560   3.950  0.3362 -0.0683  0.0256
 3041W        W20565   6.825   5.455   2.929 -0.2267 -0.0906 -0.0729
 3042W        W20566  10.698  15.553   3.336 -0.0066 -0.1465 -0.1476
 3043W        W20567   6.612   8.934  13.749 -0.1146 -0.1263 -0.1042
 3044W        W20568   1.716  18.460   0.086 -0.0988 -0.1213  0.1535
 3045W        W20569   5.755  12.359   1.943  0.0058 -0.0263 -0.1451
 3046W        W20570   7.343   8.072   0.364  0.0659 -0.3401 -0.1705
 3047W        W20571  15.847   4.157  15.204  0.0359  0.0682 -0.0680
 3048W        W20572   9.124  12.289   0.996  0.3424 -0.0862 -0.1451
 3049W        W20573  16.275   3.745   2.390  0.0304  0.0340  0.0068
 3050W        W20574  17.406  14.400   1.064 -0.2179 -0.3974  0.1198
 3051W        W20575   6.539  16.640   1.909 -0.1342 -0.1407 -0.2005
 3052W        W20576  13.075   5.621  14.727 -0.4109 -0.3433  0.2631
 3053W        W20577   9.357   3.002  12.424  0.2705  0.1371 -0.2678
 3054W        W20578   4.119  14.013  14.737  0.2301 -0.2112 -0.1297
 3055W        W20579  10.579  14.167   0.807  0.1056 -0.0287 -0.0493
 3056W        W20580   9.297   8.247   5.426  0.0255 -0.1054  0.0494
 3057W        W20581   9.586  17.167   4.354  0.1553  0.0800 -0.1012
 3058W        W20582  11.927  16.676   0.246 -0.3843 -0.2101  0.0449
 3059W        W20583  10.591   7.691   0.523 -0.1627  0.0805 -0.2325
 3060W        W20584   2.567   3.365  12.711 -0.2905  0.2027  0.2485
 3061W        W20585   4.199   1.494   4.999  0.0684 -0.0648  0.0252
 3062W        W20586  17.265   6.960   3.345 -0.1255  0.1512 -0.0389
 3063W        W20587  18.183  14.647  10.320 -0.0201 -0.1980 -0.3015
 3064W        W20588  16.159   5.246   0.248  0.2176  0.1274 -0.0942
 3065W        W20589   9.521   9.171   0.404 -0.1826  0.0219 -0.0962
 3066W        W20590   4.126  16.421   1.558 -0.0856  0.1000  0.0536
 3067W        W20591  14.739   0.923   5.948  0.2294  0.1771  0.1610
 3068W        W20592  17.403   0.439   2.850  0.1394  0.1470 -0.3226
 3069W        W20593   0.505   7.214  12.674 -0.1277 -0.1180 -0.0245
 3070W        W20594  11.475  12.806   1.684 -0.0672  0.2441 -0.0683
 3071W        W20595   4.763   4.114   4.989  0.3216 -0.1602 -0.1207
 3072W        W20596   3.987   4.674  14.769  0.2438 -0.1871  0.0171
 3073W        W20597   5.831  12.965  14.271  0.4192  0.0288 -0.0378
 3074W        W20598  17.910  11.676   0.701 -0.0569  0.1629 -0.1828
 3075W        W20599   7.004  18.231  10.969 -0.2755  0.1258  0.1173
 3076W        W20600  16.801   2.269  10.271  0.2665  0.0006 -0.1204
 3077W        W20601  18.118   6.577  13.857 -0.1755 -0.1920 -0.1371
 3078W        W20602   6.458   8.543  12.119  0.0049 -0.1060  0.4060
 3079W        W20603   9.232  14.650  11.695 -0.0480  0.0572  0.0091
 3080W        W20604   3.722  12.946   3.982  0.1023 -0.1892 -0.0348
 3081W        W20605   8.231  17.634   1.834  0.1745 -0.0424  0.1960
 3082W        W20606  17.386  10.289   1.748 -0.0511 -0.0134  0.0236
 3083W        W20607   4.174   7.440  12.247 -0.1576 -0.1285 -0.0309
 3084W        W20608  13.310  10.558   2.624 -0.0753  0.0021  0.6065
 3085W        W20609  12.860   4.171   0.061 -0.1776 -0.0158 -0.0398
 3086W        W20610   2.248   4.784   1.707 -0.2343 -0.1523 -0.1624
 3087W        W20611   6.542   5.059  13.406  0.2881  0.0156 -0.0502
 3088W        W20612  15.723   5.525  10.075  0.0915 -0.0576 -0.0815
 3089W        W20613   7.456  13.348   1.683 -0.1262 -0.0485  0.1431
 3090W        W20614  11.077   9.874  13.203 -0.0324  0.0733  0.0474
 3091W        W20615   1.328  15.977   3.703  0.2149  0.0167  0.1821
 3092W        W20616   2.364  13.559   2.220  0.1425 -0.0554 -0.1861
 3093W        W20617  13.417   2.139  12.525 -0.2632 -0.2069 -0.1750
 3094W        W20618   8.252   1.905  12.291  0.2324 -0.2706 -0.3542
 3095W        W20619   9.810   4.786   4.533  0.0358 -0.3667 -0.0510
 3096W        W20620   0.662   8.356  15.383 -0.0931 -0.0698 -0.1215
 3097W        W20621  13.029   9.027  15.575 -0.1788  0.0668  0.1394
 3098W        W20622   2.617  10.024  14.705 -0.2890  0.0231  0.1263
 3099W        W20623  14.846  14.036  13.111 -0.2432 -0.0791 -0.0329
 3100W        W20624  12.378   1.538   2.283 -0.1586  0.0273 -0.3578
 3101W        W20625   9.103   7.725   5.541 -0.0173  0.0607 -0.0310
 3102W        W20626   2.441  15.718  12.323 -0.0925 -0.2098  0.4109
 3103W        W20627   6.313  15.338   2.952  0.2106  0.0503 -0.2574
 3104W        W20628  12.116   0.309  12.178 -0.0280  0.0131 -0.0590
 3105W        W20629  16.578  10.717  15.382 -0.0325  0.1780 -0.1620
 3106W        W20630   5.280  16.950  13.827 -0.2947 -0.0348 -0.2959
 3107W        W20631   9.613  11.203  15.544  0.0147 -0.0702 -0.3342
 3108W        W20632   0.864  12.887   1.155 -0.2054 -0.0140  0.1228
 3109W        W20633   8.969  18.389  13.091 -0.1473 -0.1695 -0.0966
 3110W        W20634   9.142  17.743  12.200  0.1569 -0.2978 -0.2202
 3111W        W20635  10.518   6.248  10.622 -0.0269  0.1226  0.0111
 3112W        W20636   1.728  18.455   2.351  0.0383 -0.0587  0.1362
 3113W        W20637  17.847   6.226   0.221 -0.1567 -0.0239  0.0814
 3114W        W20638   7.973  16.304  11.481 -0.1790 -0.3109 -0.1376
 3115W        W20639  15.640   1.836   2.670 -0.3077  0.1854  0.0224
 3116W        W20640   0.099  18.063  15.342 -0.2064 -0.2934 -0.0690
 3117W        W20641  12.431  10.989   5.263  0.1638 -0.3355 -0.0488
 3118W        W20642  15.366  13.008   0.084  0.0953  0.0622 -0.1681
 3119W        W20643   7.425   1.129  13.416  0.2574  0.1564 -0.1819
 3120W        W20644   7.787  10.513   0.143  0.0453  0.3128  0.1560
 3121W        W20645   2.229  12.633  11.522 -0.2103 -0.0608  0.0519
 3122W        W20646  15.862   1.014  14.624  0.3233  0.0928  0.2517
 3123W        W20647   0.626   4.409  13.269 -0.0170  0.1771 -0.0254
 3124W        W20648   5.341  15.731   4.900 -0.3664  0.3038  0.4161
 3125W        W20649  11.296  14.055   5.192  0.0782  0.3137 -0.1463
 3126W        W20650   1.584   8.028  11.167 -0.1181 -0.0936  0.1593
 3127W        W20651  12.769   7.394  14.779  0.1708  0.2324 -0.0591
 3128W        W20652  17.213   6.427  11.489 -0.0987  0.0644  0.1316
 3129W        W20653  17.984  10.277  13.795 -0.1101 -0.2085 -0.0123
 3130W        W20654   0.630  11.264  13.589 -0.3562 -0.0069 -0.1810
 3131W        W20655   6.220   8.267  14.984 -0.1240  0.0486 -0.1709
 3132W        W20656   0.497  15.884   6.326  0.2473 -0.0699  0.0106
 3133W        W20657  14.388   2.981   3.631  0.2730  0.1458 -0.0085
 3134W        W20658   3.420  15.440   4.129  0.0354 -0.0451  0.0200
 3135W        W20659   8.353   8.157  11.763  0.0272  0.2337 -0.1893
 3136W        W20660  17.392   4.452  13.133  0.0941 -0.1248  0.1329
 3137W        W20661   3.841   5.975  15.221 -0.3776 -0.0797  0.0685
 3138W        W20662   7.395  14.725  15.712  0.1814  0.3624 -0.1747
 3139W        W20663   5.594   6.448  13.837  0.1651  0.0535  0.1736
 3140W        W20664   2.938  16.009   1.927 -0.0896 -0.4321 -0.0834
 3141W        W20665  18.080   7.684   2.678  0.0853  0.0662 -0.2871
 3142W        W20666   6.528  13.805  11.648  0.3305 -0.0936  0.0731
 3143W        W20667   1.150   6.048  13.319 -0.2386  0.2576  0.1518
 3144W        W20668   4.220   2.503  12.815 -0.0816  0.1239  0.0668
 3145W        W20669  10.561   0.984   1.493 -0.2616 -0.0808 -0.0546
 3146W        W20670   3.061   5.257   4.343 -0.2254  0.2093  0.0671
 3147W        W20671   9.642   9.770   1.613 -0.0414  0.1684  0.0858
 3148W        W20672  10.467   0.068  15.297  0.1575  0.1590  0.3416
 3149W        W20673   8.328  15.486   1.731  0.0083  0.1828 -0.0496
 3150W        W20674   2.820   6.994   4.413 -0.3032  0.2237 -0.1226
 3151W        W20675   3.341  11.608   0.233 -0.2347 -0.0150 -0.0474
 3152W        W20676  17.999   8.081   0.002  0.1010 -0.0824  0.1014
 3153W        W20677   9.370   5.685   0.485  0.0685  0.0483 -0.0929
 3154W        W20678  12.405   3.592  12.921  0.2813  0.3931 -0.1813
 3155W        W20679   4.655   7.433  13.145 -0.1344  0.0366  0.1319
 3156W        W20680  11.771   5.557   0.695  0.1015 -0.1995 -0.2026
 3157W        W20681  16.457   6.056   3.992 -0.1831 -0.1964  0.2037
 3158W        W20682   9.553  14.323  14.795  0.0352 -0.0323  0.2668
 3159W        W20683   0.453  16.083   4.410  0.0426  0.2960 -0.0906
 3160W        W20684   1.444   5.753  10.727 -0.0714  0.2100 -0.1038
 3161W        W20685   2.796  12.790   0.614 -0.3550  0.2708 -0.1063
 3162W        W20686   2.250  14.947   3.695 -0.3423  0.0210  0.3593
 3163W        W20687  11.286   0.037  13.760 -0.1156 -0.0283 -0.0041
 3164W        W20688   5.108   4.203   2.084 -0.2293 -0.2576 -0.0502
 3165W        W20689  14.055  15.649   4.420 -0.0832 -0.0603 -0.1009
 3166W        W20690  18.181   5.169   1.817 -0.1510 -0.0485  0.1835
 3167W        W20691   3.928  14.859   0.081 -0.2342  0.0138 -0.1480
 3168W        W20692  16.833  18.424  14.387  0.1450 -0.1932 -0.0828
 3169W        W20693   9.924   1.598  15.066 -0.3541 -0.0455  0.2666
 3170W        W20694  10.679  14.711  13.356 -0.1768  0.0858 -0.1154
 3171W        W20695   5.283  16.640   1.964 -0.3181  0.1393 -0.0702
 3172W        W20696   7.968   1.724  14.973  0.2966  0.0693  0.0163
 3173W        W20697  12.335   6.315   3.523 -0.0227 -0.0439  0.2539
 3174W        W20698  17.792   7.697   4.368 -0.2419  0.0169 -0.2001
 3175W        W20699  16.334   2.412   2.714  0.3142 -0.1903  0.0583
 3176W        W20700   4.936  12.981  15.622  0.1117 -0.0464  0.2816
 3177W        W20701  12.486  17.876   1.705  0.0442  0.0546 -0.0455
 3178W        W20702   4.937   4.868   0.414  0.4595  0.1255  0.0384
 3179W        W20703   8.062   5.533  13.366  0.1944  0.0778 -0.1727
 3180W        W20704   3.974  13.872   1.410  0.0635 -0.1801 -0.2171
 3181W        W20705   1.930   9.685   1.699  0.1358 -0.3334 -0.0307
 3182W        W20706  13.416   2.694  11.832 -0.1967 -0.2974  0.1664
 3183W        W20707  14.271   5.860   3.826  0.0523  0.6168 -0.1468
 3184W        W20708   3.846   7.892  13.611  0.3916 -0.0861 -0.3157
 3185W        W20709  10.541  12.091   4.314  0.4499 -0.2647 -0.1904
 3186W        W20710   1.296  16.164   4.382  0.1128 -0.1185 -0.0515
 3187W        W20711   9.806  12.452  14.902  0.1195 -0.3112 -0.0373
 3188W        W20712  12.222   9.520   0.034 -0.0288  0.1842 -0.1382
 3189W        W20713  14.839  11.984   2.097 -0.0948 -0.1177  0.0113
 3190W        W20714   9.105  16.107   0.950 -0.2793  0.3794  0.2132
 3191W        W20715   3.450   1.436  15.089  0.1501  0.0973  0.0847
 3192W        W20716   0.676   2.859   1.493  0.1251 -0.1913 -0.0326
 3193W        W20717   4.813   4.400  11.868 -0.0928  0.2364 -0.1074
 3194W        W20718  13.243  11.902   0.331  0.0173 -0.1929  0.1033
 3195W        W20719   3.684   2.426  12.412  0.0676 -0.1089  0.0790
 3196W        W20720  18.483   7.079   2.653 -0.0408  0.0439 -0.1720
 3197W        W20721  13.052  10.953  15.397  0.1081  0.4530 -0.1321
 3198W        W20722   3.168  14.467   1.698  0.4576 -0.3402 -0.2208
 3199W        W20723  16.049  10.791   2.795 -0.0694  0.0001  0.1567
 3200W        W20724   2.228   2.054   0.458  0.0012 -0.1836 -0.2353
 3201W        W20725  15.575   3.912   0.620 -0.1647 -0.0231 -0.0544
 3202W        W20726   7.315   4.031  10.031  0.1941 -0.0807  0.1216
 3203W        W20727   2.890   6.351  12.927  0.1549  0.3239  0.0394
 3204W        W20728  14.816   0.185  13.441  0.2619  0.1295  0.3345
 3205W        W20729   8.693  10.351   0.947  0.2985 -0.1229 -0.0750
 3206W        W20730  11.746   1.536   0.101 -0.0042 -0.1172  0.1262
 3207W        W20731   7.780   6.208   3.741 -0.2067  0.0552 -0.1220
 3208W        W20732  12.177  10.401  12.428  0.2780 -0.1598 -0.1267
 3209W        W20733  10.637   3.970  14.379 -0.1519 -0.0088  0.1011
 3210W        W20734  18.308   6.031  12.950 -0.1194  0.2615 -0.0094
 3211W        W20735  11.430  14.973  13.868 -0.0431 -0.0304  0.1842
 3212W        W20736  14.953  12.110  12.011  0.1255 -0.4330 -0.2260
 3213W        W20737   1.507   0.127  12.504  0.3141 -0.0803  0.1337
 3214W        W20738   4.812   8.685   0.345  0.1845 -0.0141 -0.2461
 3215W        W20739  17.660   7.979   2.814 -0.3711 -0.0088  0.1490
 3216W        W20740  16.750   5.567  12.556 -0.1873  0.3576 -0.2200
 3217W        W20741  17.171   0.009   3.750  0.0664 -0.0715 -0.0481
 3218W        W20742  12.586   5.332   1.396 -0.2909  0.1481 -0.0119
 3219W        W20743   0.403   1.624  11.854  0.1307 -0.2432  0.3245
 3220W        W20744  12.887  16.674   2.965 -0.1215  0.2303  0.3214
 3221W        W20745  11.760   7.897  13.735 -0.1620  0.3848  0.1418
 3222W        W20746   4.886  14.398   1.126  0.2056  0.1419  0.1968
 3223W        W20747   0.213  14.191   1.714 -0.1957 -0.5011  0.2704
 3224W        W20748   6.521   0.459   1.291 -0.2656 -0.0937 -0.2122
 3225W        W20749  14.630   9.315  12.924  0.1766 -0.0754 -0.3009
 3226W        W20750  10.475   1.940   4.349 -0.1186  0.2420 -0.0448
 3227W        W20751   3.335  10.887   1.595  0.0337 -0.0934  0.5115
 3228W        W20752   2.437   9.592  10.713 -0.0138 -0.1512 -0.1456
 3229W        W20753  15.062   5.332   2.184  0.0986 -0.2343 -0.0255
 3230W        W20754   6.840   7.415   3.309 -0.2470  0.1185  0.1514
 3231W        W20755   3.629   4.398   1.715  0.0982 -0.0031  0.2043
 3232W        W20756  12.873   6.899  11.692 -0.0008  0.0575 -0.2524
 3233W        W20757   7.111  16.119   1.370  0.0181  0.1205  0.0858
 3234W        W20758  16.476   4.289  11.469  0.3037 -0.0082 -0.2963
 3235W        W20759  14.149   5.146   3.310  0.1147  0.0074 -0.2470
 3236W        W20760   6.438   6.025   0.366 -0.1294 -0.4183  0.1142
 3237W        W20761   4.646  16.344  10.294  0.0322 -0.0111  0.1339
 3238W        W20762   6.789   5.826  10.541  0.1370 -0.0841  0.0338
 3239W        W20763   1.125   9.275   3.824  0.1736 -0.1528  0.1590
 3240W        W20764  11.155  10.370  11.844 -0.1299 -0.0837  0.0194
 3241W        W20765   6.411   8.907  14.282  0.0401 -0.1905 -0.2224
 3242W        W20766   6.261   0.638  10.920  0.2695 -0.0111  0.4428
 3243W        W20767  10.467  12.548  11.975  0.2660 -0.0913 -0.1523
 3244W        W20768  15.150   5.823  13.199  0.1487  0.1392  0.1183
 3245W        W20769  14.165  12.439  14.366 -0.0862 -0.1027 -0.2057
 3246W        W20770   3.647   1.876  14.929 -0.1702  0.0320 -0.1776
 3247W        W20771  16.085   2.499  11.557  0.0130  0.0601  0.1468
 3248W        W20772   5.217   5.050   2.239  0.0549  0.0938  0.4061
 3249W        W20773   0.917  17.744  12.516 -0.2313  0.1451  0.0207
 3250W        W20774   0.644   5.573  11.255  0.3441 -0.1680  0.2032
 3251W        W20775  14.046   1.791   4.403 -0.2121 -0.4459 -0.1893
 3252W        W20776  10.414   0.694  11.667 -0.2335 -0.0862 -0.3088
 3253W        W20777   7.616  15.922   2.288  0.0945  0.1010 -0.1005
 3254W        W20778   6.134  15.399  12.451  0.1397 -0.3719  0.0037
 3255W        W20779  17.900   4.405   1.158 -0.1816  0.1810 -0.0869
 3256W        W20780   3.794  17.307  14.354 -0.1272  0.3763  0.0315
 3257W        W20781   4.834  12.596  13.877  0.0235  0.1907 -0.1458
 3258W        W20782  18.027   8.941  12.816 -0.1968  0.0615  0.1614
 3259W        W20783   6.759   6.675  14.164 -0.0831  0.1815  0.0507
 3260W        W20784   6.664   5.025   3.066  0.2804  0.0464 -0.3598
 3261W        W20785   0.192  11.232   0.969  0.0845 -0.0151 -0.0981
 3262W        W20786  10.116   6.205   1.055 -0.1098 -0.0363 -0.1216
 3263W        W20787   3.511  15.868   2.183  0.0182  0.1750 -0.0330
 3264W        W20788   9.529   0.202  12.359 -0.5127 -0.1158  0.2567
 3265W        W20789   4.510  13.170   1.746 -0.0930  0.0212 -0.1812
 3266W        W20790   9.115   9.121  12.774 -0.1099 -0.1891  0.1618
 3267W        W20791   0.387   4.405  11.519 -0.2989 -0.0617  0.0387
 3268W        W20792   8.264   2.422   4.259  0.5404  0.1450 -0.0166
 3269W        W20793   4.718   7.554   5.449  0.0932  0.0234 -0.2860
 3270W        W20794   3.499   2.053  12.138 -0.0687  0.2438 -0.2407
 3271W        W20795   1.579   2.734   1.204  0.0822 -0.0824  0.1117
 3272W        W20796   1.835   1.072   1.685 -0.0546 -0.3352 -0.0066
 3273W        W20797  15.689   8.558   2.607 -0.0568  0.1973 -0.1213
 3274W        W20798  11.823  15.159  12.891 -0.3157  0.3171  0.0777
 3275W        W20799  17.412  13.757   0.000  0.0095 -0.1640  0.0395
 3276W        W20800  15.484  13.996   2.966 -0.1064  0.2643 -0.1444
 3277W        W20801   6.043   3.127  11.485  0.1192 -0.1192  0.0870
 3278W        W20802   8.948  10.855   0.943  0.0411  0.1978  0.2685
 3279W        W20803   1.033  11.048  11.940  0.0276 -0.1462 -0.1459
 3280W        W20804   3.426  15.356  13.703  0.4322 -0.0056 -0.1558
 3281W        W20805   9.061   2.239   4.019  0.0065 -0.1108  0.0631
 3282W        W20806   6.076  16.906  13.692 -0.0081 -0.1642  0.1416
 3283W        W20807   0.362  13.065   2.531  0.0040  0.1697  0.2532
 3284W        W20808  10.061   1.650  15.543 -0.0094 -0.0577 -0.0546
 3285W        W20809   2.510   2.670   4.088  0.2820 -0.1272  0.1678
 3286W        W20810  12.759  16.365   2.474 -0.0475  0.1433 -0.1359
 3287W        W20811  16.964   0.608   2.011  0.1776  0.3302 -0.2626
 3288W        W20812   3.888   1.521   4.471  0.2981 -0.1011  0.0567
 3289W        W20813  18.012  13.637  13.992  0.0134  0.1618 -0.1962
 3290W        W20814  11.483   5.882  10.846  0.1341  0.0070  0.0577
 3291W        W20815   6.408  17.134  15.557 -0.0835  0.0444  0.0477
 3292W        W20816  12.440  15.035  10.619 -0.0446  0.0098  0.1125
 3293W        W20817   4.332   6.418   1.308 -0.0269 -0.2552 -0.1082
 3294W        W20818   3.195  11.428   0.778  0.0361  0.0349  0.2145
 3295W        W20819   2.549  14.513   3.436 -0.2909  0.0248  0.1587
 3296W        W20820   2.054   5.057   1.332 -0.1846 -0.2880 -0.0568
 3297W        W20821   9.064  12.451  13.108 -0.1075  0.0105 -0.0155
 3298W        W20822  11.594  18.302   0.932  0.1038  0.3748  0.0171
 3299W        W20823   6.238  10.970   3.328 -0.0589 -0.0486  0.2168
 3300W        W20824  13.217   5.973  11.867  0.2584 -0.0431 -0.1206
 3301W        W20825   5.828   4.073  10.825  0.1597  0.0108 -0.1196
 3302W        W20826   3.943   2.957  12.701  0.0735 -0.1352  0.0411
 3303W        W20827   4.139  15.439  11.342 -0.1143  0.1124 -0.2633
 3304W        W20828   9.986   1.369   0.728 -0.1627 -0.1458 -0.4079
 3305W        W20829  17.946  17.276  11.783 -0.1395 -0.1514 -0.3541
 3306W        W20830   1.362   1.929  12.567 -0.1331  0.1291  0.2680
 3307W        W20831   4.672   8.774  12.477  0.1623 -0.4037  0.0368
 3308W        W20832   6.556  10.554  13.322 -0.0024  0.1652 -0.1751
 3309W        W20833  12.365  15.111  14.527  0.2280  0.0895  0.1675
 3310W        W20834  11.928   2.735  11.560  0.0937  0.2491 -0.0910
 3311W        W20835   7.199  13.113   4.589 -0.3234 -0.0368  0.1698
 3312W        W20836  17.378   9.961   4.564 -0.1577 -0.0549 -0.0262
 3313W        W20837   3.508   3.603   4.621  0.1993 -0.0865  0.3099
 3314W        W20838  14.021   4.632  15.393 -0.2493  0.0965  0.5387
 3315W        W20839  11.456   5.339  13.984  0.2201  0.0761  0.0429
 3316W        W20840   8.427  15.460  12.122  0.3368 -0.1523 -0.0363
 3317W        W20841   0.575   2.026   4.656  0.0477 -0.0088  0.0239
 3318W        W20842   6.760  13.680  15.496  0.1029 -0.1076 -0.1009
 3319W        W20843   2.729  12.433  13.418  0.0351  0.2267 -0.0931
 3320W        W20844   8.499   3.091   0.296  0.0064 -0.1814  0.1397
 3321W        W20845  13.012  18.347   2.504  0.1970  0.0217  0.3162
 3322W        W20846  10.975   5.793   2.749 -0.2606  0.2257  0.0218
 3323W        W20847   6.922  12.862  11.210 -0.0277  0.0255 -0.3296
 3324W        W20848  16.016  17.563   4.913 -0.2639  0.0602 -0.0373
 3325W        W20849   3.603  11.684  11.404  0.2192 -0.1952 -0.4327
 3326W        W20850   9.366   9.467  10.688  0.1056 -0.0074 -0.2201
 3327W        W20851  11.150  15.104  15.108  0.0339  0.0570  0.1657
 3328W        W20852  13.945  18.411  13.408  0.1136 -0.1804  0.1929
 3329W        W20853   3.142  11.073  14.442 -0.1053 -0.2490 -0.0331
 3330W        W20854   0.887   0.808   2.699  0.0614 -0.2814  0.0134
 3331W        W20855   6.760   4.854  13.029 -0.0287  0.0452  0.1438
 3332W        W20856  13.379   9.066  11.636  0.1852 -0.0523  0.4221
 3333W        W20857   7.404   2.000  14.444 -0.4312  0.0007  0.2718
 3334W        W20858   3.048  14.543  12.160 -0.0295  0.4001 -0.1393
 3335W        W20859   4.314   1.422  14.230 -0.1000  0.1498 -0.1136
 3336W        W20860   8.755  15.194  12.530 -0.0062  0.1622  0.0866
 3337W        W20861  17.385  11.304  15.462  0.0770  0.1561 -0.0062
 3338W        W20862  16.729   6.441   1.317  0.1116  0.1776 -0.0823
 3339W        W20863  10.485   9.861  14.479 -0.3132  0.0523 -0.3756
 3340W        W20864  16.562  13.274   1.339  0.0608  0.3422  0.1775
 3341W        W20865   0.031  10.619   4.589 -0.1734 -0.0082  0.4822
 3342W        W20866  14.137   0.300  12.554 -0.0711 -0.0291  0.0253
 3343W        W20867  11.062  15.969  13.072 -0.1780  0.0920 -0.0919
 3344W        W20868  10.278  17.616   4.478  0.0269 -0.0797 -0.1558
 3345W        W20869  17.941  17.905   2.578 -0.1483 -0.3026 -0.1948
 3346W        W20870   6.802  11.177   1.183 -0.0905 -0.0182  0.2159
 3347W        W20871  17.923   8.189   4.359  0.2685 -0.0047  0.0652
 3348W        W20872   7.869  10.001  14.308 -0.0928 -0.1240 -0.1493
 3349W        W20873  11.662  10.142  15.457 -0.0716  0.2079  0.0180
 3350W        W20874  10.131  13.853   1.872  0.1977 -0.3239 -0.1502
 3351W        W20875  14.704  13.712   4.493 -0.1655  0.2193 -0.0705
 3352W        W20876  15.308   9.553   0.176 -0.0442 -0.1312 -0.1031
 3353W        W20877   4.544  12.808   2.666  0.2070  0.1862  0.3360
 3354W        W20878   7.311  13.067   5.475  0.1757 -0.1113  0.2061
 3355W        W20879  16.607   2.073   3.379  0.0779  0.1195  0.1293
 3356W        W20880   3.000   3.022  15.028  0.1403  0.2529  0.2630
 3357W        W20881   5.439  17.565   0.154  0.1608 -0.1398 -0.1526
 3358W        W20882   7.323   2.171   4.405 -0.0848  0.1115 -0.0533
 3359W        W20883  12.024  11.851   3.161 -0.0703  0.2627 -0.0234
 3360W        W20884   7.694   9.379  15.531  0.1425 -0.0448 -0.0478
 3361W        W20885   7.339  10.362  11.705 -0.0424 -0.2747  0.0856
 3362W        W20886   1.816   2.062   1.618  0.1287  0.1867 -0.3583
 3363W        W20887   0.556   3.695  13.665  0.0619 -0.0471  0.0766
 3364W        W20888   4.879   2.420   0.835  0.0163 -0.1325 -0.0197
 3365W        W20889   5.302  13.965   0.523 -0.0808  0.1257 -0.3079
 3366W        W20890  16.042   6.604   0.290 -0.4295 -0.2656  0.4546
 3367W        W20891  10.882  14.759   2.484  0.3319 -0.1861  0.0499
 3368W        W20892  11.319   1.413   3.753  0.1269 -0.0113 -0.3348
 3369W        W20893  11.419  13.069   3.748  0.0696  0.0483 -0.0771
 3370W        W20894  13.289  13.177   1.543 -0.1317  0.2488 -0.1804
 3371W        W20895   6.387  14.376   1.398  0.1176 -0.0136  0.1600
 3372W        W20896   3.689  13.370   4.271  0.0085 -0.0192 -0.3073
 3373W        W20897  12.746   0.472  12.815 -0.0902  0.0858 -0.3003
 3374W        W20898   8.965   1.011  14.220  0.2042 -0.3897  0.0650
 3375W        W20899  10.026   2.298   1.015 -0.1797 -0.1872 -0.3108
 3376W        W20900   6.188   4.064  11.575 -0.0949  0.0779 -0.2482
 3377W        W20901   5.939   0.070   2.393  0.1936 -0.3044  0.0808
 3378W        W20902  14.050  14.222   0.904 -0.1229  0.2690  0.1098
 3379W        W20903  12.999   7.469   1.092  0.3813  0.0531 -0.3545
 3380W        W20904  15.026   9.611  14.136  0.3018 -0.0851  0.0274
 3381W        W20905  12.122  12.533  13.873  0.0847 -0.0339  0.0762
 3382W        W20906   3.811   2.393  10.293 -0.1559 -0.0952 -0.0392
 3383W        W20907   9.007   0.764   5.058  0.0540 -0.1077  0.1714
 3384W        W20908  11.110  12.254  10.063 -0.0869 -0.3607  0.3635
 3385W        W20909   6.847  17.410   2.086  0.3873 -0.2444 -0.0593
 3386W        W20910  11.466   7.196   2.074 -0.0620 -0.1576 -0.2118
 3387W        W20911   4.692  16.044  11.348  0.2514  0.0351 -0.3290
 3388W        W20912  13.159   5.550   4.943  0.0606 -0.0134 -0.3530
 3389W        W20913   7.331   9.384  11.592 -0.1422 -0.0323 -0.1458
 3390W        W20914   3.505  10.670  14.626 -0.0130  0.0319  0.2061
 3391W        W20915   0.743   7.009   0.672  0.2348  0.1854  0.2778
 3392W        W20916   1.872   9.652   2.719 -0.2297  0.0460 -0.1092
 3393W        W20917   0.044   4.271  12.358 -0.1448  0.0081  0.3118
 3394W        W20918  16.329  12.820  12.585  0.3397  0.0545 -0.0818
 3395W        W20919   5.071  14.841  12.844  0.3676  0.0152  0.2037
 3396W        W20920   5.614   2.964   4.137 -0.1400  0.2769 -0.2553
 3397W        W20921   4.822   8.178  12.425  0.3368  0.0000 -0.0198
 3398W        W20922   6.312   9.872  14.632  0.3468 -0.0549 -0.0215
 3399W        W20923  14.372   0.750  14.636 -0.3519 -0.0548 -0.1367
 3400W        W20924  13.229   9.503  11.901  0.1863 -0.1310 -0.2824
 3401W        W20925   6.271  13.684  10.236 -0.2475 -0.1611  0.5307
 3402W        W20926   0.932  12.522   5.370  0.2116  0.0115  0.0406
 3403W        W20927   7.834  15.149   2.681 -0.6521 -0.3058  0.1048
 3404W        W20928   7.987   6.357  13.817 -0.2308  0.0897  0.0639
 3405W        W20929  16.705  14.327  15.548  0.2341  0.3142 -0.0495
 3406W        W20930   3.170  11.084   0.286  0.3994  0.0384 -0.1312
 3407W        W20931   2.122   2.640  12.288  0.2617  0.1660  0.2953
 3408W        W20932   5.887   7.432  14.992  0.0623  0.0575  0.1373
 3409W        W20933   4.659   7.993   3.877  0.0016 -0.2724  0.0143
 3410W        W20934  17.323   8.640   2.568  0.0678 -0.0009  0.3669
 3411W        W20935  10.311   2.248   2.850 -0.1659 -0.1666  0.2783
 3412W        W20936   2.898   0.044   3.923 -0.1468 -0.5995  0.2388
 3413W        W20937   0.599   7.103   0.191  0.2737  0.0674  0.5225
 3414W        W20938  17.054  14.422   0.191  0.3153 -0.0524  0.0738
 3415W        W20939  16.937  14.071   2.696 -0.0185 -0.0021 -0.3617
 3416W        W20940  11.444  13.403  12.816 -0.2953 -0.0577  0.2783
 3417W        W20941   3.670  14.200   2.908  0.0691  0.2355  0.0093
 3418W        W20942  17.431   2.408  13.369  0.0437  0.1023 -0.1415
 3419W        W20943  15.800  17.451  13.243 -0.1145 -0.4958 -0.0498
 3420W        W20944  11.807  12.966  14.070  0.2278  0.0455 -0.2766
 3421W        W20945  12.955  14.889   1.034 -0.0058 -0.2258  0.1190
 3422W        W20946  12.509  16.760   1.129  0.1712  0.2764  0.2347
 3423W        W20947   3.726   7.045   3.481 -0.1512 -0.0755 -0.0154
 3424W        W20948  18.111  10.354  12.555  0.0131  0.0824 -0.3407
 3425W        W20949  15.968   3.623  13.313  0.0557 -0.1266 -0.1588
 3426W        W20950   4.105  13.541  14.263 -0.0907 -0.2833 -0.0597
 3427W        W20951  12.080   1.290  11.913 -0.2100  0.5508  0.0888
 3428W        W20952  15.927   2.224   2.275  0.0538 -0.0055 -0.3675
 3429W        W20953  16.425  14.000  13.681  0.0257  0.0138  0.4008
 3430W        W20954   6.961  17.918  11.950 -0.0732 -0.0054 -0.6197
 3431W        W20955  13.334   7.161   0.310 -0.4427 -0.1987  0.1418
 3432W        W20956   6.693   6.920   2.960 -0.1536 -0.1821 -0.1289
 3433W        W20957  15.391  12.835   2.701 -0.0571 -0.2087 -0.1989
 3434W        W20958  15.083  13.461  13.685 -0.1353  0.1794 -0.1890
 3435W        W20959  11.157  13.625  14.530 -0.1932  0.0514  0.0288
 3436W        W20960   6.855   0.552   3.192  0.1483  0.3112  0.2027
 3437W        W20961   7.544   9.648  14.540 -0.1015 -0.1472 -0.2012
 3438W        W20962  15.793   9.754   4.130 -0.3312 -0.2788  0.0419
 3439W        W20963   7.370  17.151  15.428 -0.0829 -0.1139 -0.1839
 3440W        W20964  18.107  15.660  14.955 -0.2812  0.0036 -0.1670
 3441W        W20965   3.290  14.873  14.945  0.0064 -0.0174  0.1139
 3442W        W20966   8.346   7.974  13.952 -0.2032  0.2010  0.3124
 3443W        W20967   3.958   1.348   2.105 -0.4111  0.1541 -0.0534
 3444W        W20968   5.996  15.550   1.118 -0.1955 -0.0551 -0.1294
 3445W        W20969   5.402   5.236  14.312 -0.0409 -0.0206  0.2268
 3446W        W20970   9.757  11.531  13.615  0.2602  0.0600 -0.1059
 3447W        W20971   8.075   4.177   0.703 -0.2217 -0.0211  0.3081
 3448W        W20972  16.482   8.172  15.396  0.2117  0.1067  0.1502
 3449W        W20973   8.722  10.148  13.297 -0.1519  0.4500 -0.0019
 3450W        W20974  13.452   1.505  10.808  0.0182 -0.1301 -0.0031
 3451W        W20975   7.811  13.950  14.053 -0.0473 -0.1759 -0.2552
 3452W        W20976  14.557   9.774   3.640 -0.0825  0.2448  0.1943
 3453W        W20977   3.396   1.947   2.866  0.2173  0.0513  0.1000
 3454W        W20978   8.221  13.209  13.362  0.0603 -0.0919 -0.2950
 3455W        W20979  15.936  13.887  14.985 -0.1283  0.2318  0.2126
 3456W        W20980   1.923   6.685   4.467  0.0684 -0.1026 -0.3112
 3457W        W20981   4.794  17.523  14.091 -0.0953  0.1845  0.0062
 3458W        W20982  17.854   6.139  15.284 -0.0484 -0.0026 -0.0151
 3459W        W20983  15.004  12.512   1.801 -0.0411 -0.1483  0.1697
 3460W        W20984  13.733  10.205  14.491  0.2969  0.1864  0.0798
 3461W        W20985  18.312  16.366   5.269  0.0613  0.1260 -0.1403
 3462W        W20986  14.840   0.829   2.016  0.0631 -0.0879  0.0924
 3463W        W20987   4.323  10.367  14.204 -0.0023 -0.2766 -0.0629
 3464W        W20988   2.986  10.594  14.938 -0.1697 -0.1392  0.0164
 3465W        W20989  13.981   6.186  15.360 -0.0869 -0.0223 -0.4308
 3466W        W20990   8.873  16.013  11.279 -0.2029  0.0056  0.2555
 3467W        W20991  17.326  10.072   3.205 -0.0737  0.0560 -0.3786
 3468W        W20992   1.168  17.669   2.180  0.1684  0.0487  0.0007
 3469W        W20993  13.875  16.761  11.527  0.2786 -0.1023  0.0675
 3470W        W20994   4.748   6.275  15.288 -0.0517  0.0835  0.2037
 3471W        W20995  12.011  10.697  14.869  0.5030 -0.4344 -0.1632
 3472W        W20996  17.050  17.937  10.756 -0.0527 -0.2217 -0.1088
 3473W        W20997   3.736   6.396  11.400  0.1216 -0.1350 -0.1393
 3474W        W20998   5.273  15.473  12.518  0.2256 -0.1984  0.3277
 3475W        W20999  15.043  11.964  10.674 -0.1541  0.0296 -0.2201
 3476W        W21000   9.538  11.108   3.439  0.0404  0.0133  0.1300
 3477W        W21001  16.330  16.374  13.497 -0.1795 -0.1943  0.0736
 3478W        W21002  10.397  17.250   4.198  0.0537  0.3445 -0.0999
 3479W        W21003  12.169   6.759  12.339 -0.1112  0.0704  0.0927
 3480W        W21004  11.568   6.817  14.343  0.1145 -0.1551  0.2733
 3481W        W21005  15.950  12.662   3.510  0.0037  0.0181 -0.1143
 3482W        W21006   7.043   0.543  13.958 -0.2208  0.0515  0.0290
 3483W        W21007   3.850  16.054  14.511 -0.1339  0.0773  0.1870
 3484W        W21008  11.752   6.463  14.767  0.1678 -0.1295 -0.0069
 3485W        W21009   2.555  14.310  13.383 -0.1766 -0.1918 -0.1660
 3486W        W21010  17.891  12.304   1.365 -0.0435  0.1680  0.1551
 3487W        W21011   7.530   9.205  13.336  0.0362  0.0431 -0.0792
 3488W        W21012   8.665  18.221  14.457 -0.1581 -0.2145  0.1487
 3489W        W21013   9.514   4.485  11.777 -0.2647 -0.1116  0.2919
 3490W        W21014   4.890   7.924   3.412  0.1220  0.0452  0.1827
 3491W        W21015  15.906   3.419  12.044 -0.1146 -0.0818 -0.3506
 3492W        W21016   1.856   5.208   0.880 -0.0033 -0.2073  0.0722
 3493W        W21017  10.724  10.547  15.474 -0.1312  0.1266 -0.2345
 3494W        W21018  15.769   7.359   4.372  0.2747 -0.1679  0.2265
 3495W        W21019   9.960  17.831   0.613 -0.1510 -0.2872 -0.0278
 3496W        W21020   2.333  12.858  10.815  0.1085 -0.3168 -0.0517
 3497W        W21021  12.902   7.238  11.262 -0.1225 -0.0348 -0.1183
 3498W        W21022   0.216   6.349   0.124 -0.1708  0.1412  0.1335
 3499W        W21023   7.584  12.210   0.821  0.2070  0.4049 -0.1358
 3500W        W21024  15.053   7.857  12.787 -0.0530 -0.1717  0.0856
 3501W        W21025  15.792   2.215   1.598 -0.0053  0.1602 -0.2087
 3502W        W21026   6.038   0.921  12.318 -0.1729 -0.0399  0.0910
 3503W        W21027  13.806   9.751  14.224 -0.0977  0.0398 -0.1905
 3504W        W21028  13.866  15.276  12.786  0.0736  0.1146 -0.0005
 3505W        W21029  18.207  11.897  15.465 -0.0999  0.2421  0.3380
 3506W        W21030  16.424  12.422  13.447  0.0094 -0.0285 -0.2443
 3507W        W21031   8.974  14.978   3.883  0.0295  0.0853  0.1991
 3508W        W21032   9.160   8.578   0.311 -0.1902 -0.0958  0.3636
 3509W        W21033   7.933   0.600  12.975  0.0503 -0.1391  0.0266
 3510W        W21034   9.802   5.125  15.477 -0.2865  0.0878  0.0880
 3511W        W21035  13.806  11.322  14.929 -0.0363 -0.0195 -0.0166
 3512W        W21036   3.103  14.517   3.481 -0.2295  0.1140  0.1346
 3513W        W21037   9.668  14.329  15.339 -0.1320  0.0548 -0.0332
 3514W        W21038  12.271   4.132  12.774  0.3700 -0.2117 -0.0983
 3515W        W21039  16.230  14.268   4.753  0.0685 -0.2483 -0.0682
 3516W        W21040  17.806  11.638   3.068  0.2512  0.1520  0.2686
 3517W        W21041   5.895   5.900  11.378  0.0008 -0.0311 -0.2176
 3518W        W21042   1.582  12.279   1.325  0.4546  0.0521  0.1354
 3519W        W21043   8.243   7.621   2.171 -0.2283  0.3825 -0.2501
 3520W        W21044  17.570   9.515   4.514  0.1587  0.1715 -0.0267
 3521W        W21045   1.912   9.289   1.380 -0.1952  0.2612 -0.0933
 3522W        W21046  17.182  11.326  13.181  0.0800 -0.0366  0.0538
 3523W        W21047  12.523   9.512  14.352  0.0466  0.0806 -0.0313
 3524W        W21048   3.008  12.212   4.438  0.3645 -0.0299 -0.4532
 3525W        W21049   6.369   6.836  12.247  0.0343  0.0897  0.0285
 3526W        W21050   0.814   6.714  13.327  0.3396  0.3500  0.0096
 3527W        W21051   3.150   0.140  15.254  0.0819 -0.2585 -0.0251
 3528W        W21052   2.307   3.258   0.307  0.0222 -0.0308 -0.2321
 3529W        W21053   6.463  12.505  11.275 -0.1236 -0.1898 -0.1938
 3530W        W21054  12.771  15.742  11.777 -0.0611 -0.3017  0.2903
 3531W        W21055   1.901  13.364   2.247 -0.1670 -0.0320  0.3500
 3532W        W21056  10.311  12.477  11.523  0.2295  0.2195 -0.3426
 3533W        W21057   8.856  15.879  14.225  0.1664  0.2233 -0.1250
 3534W        W21058   8.432  13.031  11.611 -0.0790 -0.0690  0.2760
 3535W        W21059  13.024   9.730  12.417 -0.2237 -0.0277  0.3700
 3536W        W21060  14.448  12.584  11.903 -0.0246 -0.5905 -0.1373
 3537W        W21061   2.679   9.125  15.181 -0.1957 -0.0198 -0.0820
 3538W        W21062  10.088  12.318  12.301  0.2762  0.0217  0.0408
 3539W        W21063  16.535   2.930   4.279  0.1812  0.0921 -0.0752
 3540W        W21064   8.530  13.244   0.348  0.0724  0.3044 -0.0332
 3541W        W21065   1.534  11.689  13.146  0.2025 -0.2778 -0.0833
 3542W        W21066   7.910   4.740   1.274  0.3408 -0.1916 -0.1004
 3543W        W21067  14.454  16.295   3.807  0.0809  0.4731  0.0986
 3544W        W21068   3.808  14.622  14.653  0.1140 -0.2077 -0.1028
 3545W        W21069   7.090   0.858   4.687 -0.0055  0.2229  0.0854
 3546W        W21070   7.550  15.243   2.328  0.1602 -0.1666  0.1293
 3547W        W21071  17.412   1.012  13.185  0.1087  0.0329 -0.1535
 3548W        W21072   5.922  16.871   5.612 -0.0716  0.2417 -0.2337
 3549W        W21073   5.128   9.398   2.446  0.2361 -0.0085 -0.0805
 3550W        W21074  15.810  10.425   5.348  0.3566 -0.0495 -0.1793
 3551W        W21075   4.792   5.804   3.184 -0.2595  0.3035 -0.1696
 3552W        W21076   4.011  17.951   0.658 -0.1353  0.2290 -0.0175
 3553W        W21077   6.528  16.263   4.393 -0.2175 -0.2794 -0.2665
 3554W        W21078  12.586  16.121   3.024  0.2069 -0.3591  0.4054
 3555W        W21079   7.965  11.964  12.950 -0.1340  0.1525  0.1742
 3556W        W21080   2.616   2.521  12.284 -0.2961  0.1425 -0.2079
 3557W        W21081  18.320  12.534   0.534 -0.1043 -0.2074  0.1372
 3558W        W21082  15.662   3.327   1.452  0.0058  0.0373 -0.3798
 3559W        W21083   0.109   4.089  11.811  0.0682 -0.0769 -0.0566
 3560W        W21084  17.243   8.818  14.332 -0.1211 -0.1408 -0.1702
 3561W        W21085   2.319   4.715  13.255 -0.2898 -0.1636 -0.0444
 3562W        W21086  10.705  18.112  11.592  0.0144 -0.1767 -0.1830
 3563W        W21087   5.925  18.234  11.796 -0.3362 -0.2324 -0.1291
 3564W        W21088   2.250  13.904  12.630  0.0207  0.0323  0.0303
 3565W        W21089   8.301  14.846   4.656 -0.1260  0.2057  0.1726
 3566W        W21090  14.751   5.179  11.107 -0.2149  0.0631  0.0740
 3567W        W21091  18.025  16.219   2.359 -0.1452  0.1173  0.1441
 3568W        W21092   6.764  17.729   2.788  0.2785  0.0151 -0.0247
 3569W        W21093   0.869  12.168  14.983 -0.0581 -0.0354 -0.0466
 3570W        W21094   7.673   3.247  15.677 -0.1713  0.1605 -0.2343
 3571W        W21095   9.410   7.770  12.758 -0.1784  0.2112  0.3319
 3572W        W21096   5.635   2.601   5.000 -0.0477  0.5061 -0.0122
 3573W        W21097  13.158  14.068   0.989  0.1555 -0.1927 -0.4124
 3574W        W21098  17.579  11.242   1.917 -0.2568 -0.3460 -0.2123
 3575W        W21099  11.701  16.195   5.278  0.1983 -0.3102  0.0583
 3576W        W21100  15.892  17.596   0.743 -0.0879 -0.3851 -0.1231
 3577W        W21101   5.875  17.275  11.864 -0.1568 -0.3399  0.1601
 3578W        W21102  12.170   6.148   4.324 -0.1400  0.1851 -0.3009
 3579W        W21103   6.786  12.518  13.608  0.2074 -0.1327  0.1167
 3580W        W21104  17.366   6.196  11.929  0.4428 -0.0929 -0.2087
 3581W        W21105  12.518  14.459  11.175 -0.3242  0.3843 -0.0934
 3582W        W21106  17.410   3.277  11.051 -0.0204  0.4300  0.1407
 3583W        W21107   8.045  14.582  11.864 -0.1600 -0.1001 -0.1668
 3584W        W21108   8.103  11.622  11.584  0.0489  0.2226  0.3098
 3585W        W21109   2.986   7.085   1.041  0.0813  0.1820 -0.3090
 3586W        W21110  16.005   7.671   0.464  0.1506  0.1912  0.2718
 3587W        W21111   3.647   2.460  11.319 -0.1075 -0.0127  0.0628
 3588W        W21112   4.782  13.609  11.558  0.0759  0.1663 -0.2849
 3589W        W21113  14.482   4.457  13.924 -0.0295 -0.1661  0.0882
 3590W        W21114   1.791   7.822  11.601  0.2005  0.2496  0.0792
 3591W        W21115  12.482   4.811  14.999 -0.1319 -0.1927 -0.1406
 3592W        W21116  16.552   3.483  12.541  0.2985 -0.3070  0.3731
 3593W        W21117   3.088  16.631   0.839  0.1895 -0.1547  0.4556
 3594W        W21118  12.456  10.885  12.340  0.0942 -0.1632 -0.0297
 3595W        W21119   2.840  10.915  14.102 -0.0239  0.0859 -0.1096
 3596W        W21120   6.712   8.852  11.794 -0.2533 -0.1954 -0.2971
 3597W        W21121   7.536  10.045   1.540  0.0236 -0.0856  0.0823
 3598W        W21122   8.916   2.519   1.996  0.0907 -0.2189 -0.0388
 3599W        W21123   5.199  17.932   2.668 -0.1256 -0.6367 -0.2957
 3600W        W21124  14.392  17.114  14.621 -0.0864  0.0811  0.0630
 3601W        W21125   9.972   4.228   1.942 -0.2137  0.0284 -0.1217
 3602W        W21126  12.835   5.054   4.293  0.4486 -0.0757 -0.0271
 3603W        W21127  17.663   8.648   2.180  0.3005  0.0520 -0.0684
 3604W        W21128  15.764   6.352   2.041  0.1565  0.0111  0.0395
 3605W        W21129  18.317  10.721  13.445  0.1049 -0.0320  0.2532
 3606W        W21130   9.520  11.556   3.023  0.1960  0.2496  0.2124
 3607W        W21131   4.468   5.619   2.497 -0.2596  0.3169  0.1078
 3608W        W21132   1.643   0.839   2.168 -0.0918 -0.1937 -0.0982
 3609W        W21133  15.647   0.136   3.319  0.1318  0.0161  0.3038
 3610W        W21134   9.695   9.509   3.196  0.1844 -0.0545 -0.0547
 3611W        W21135  11.204   0.341   3.718  0.1276 -0.2146 -0.0381
 3612W        W21136   4.661   1.283   1.035 -0.3268 -0.0050  0.1844
 3613W        W21137   9.392  15.497  13.495  0.0776 -0.1303 -0.2197
 3614W        W21138  17.731  17.096  12.272  0.0203  0.1274 -0.0265
 3615W        W21139  16.430  11.985  10.656  0.2638 -0.3577 -0.1991
 3616W        W21140  10.330   0.234  13.650  0.2967  0.0351  0.2602
 3617W        W21141   8.223   5.543  15.498 -0.1459 -0.2187  0.0642
 3618W        W21142   1.732   3.201  14.524 -0.3627  0.3948 -0.0489
 3619W        W21143  17.423  10.596   3.050 -0.1444 -0.0582 -0.1534
 3620W        W21144   3.651   9.248   3.145 -0.0837  0.0054  0.2943
 3621W        W21145   4.362   2.336  11.155  0.1096 -0.0705 -0.1880
 3622W        W21146   6.472   9.651  15.516 -0.0850  0.1134  0.2029
 3623W        W21147   2.615  16.649  10.331  0.0249  0.2492  0.1330
 3624W        W21148   6.191   7.428  14.534  0.1210 -0.1905 -0.4060
 3625W        W21149  15.108   4.346  12.300 -0.0076 -0.0513  0.0296
 3626W        W21150  10.779  12.058   1.705  0.1731 -0.0340 -0.2402
 3627W        W21151   1.476   4.828  14.990 -0.3308 -0.0677  0.1065
 3628W        W21152  13.817  11.579  12.301 -0.2288  0.0989  0.4496
 3629W        W21153   3.261  10.335   1.236  0.0016  0.0965  0.1518
 3630W        W21154   6.367   3.730  15.641 -0.2285 -0.0915 -0.2711
 3631W        W21155   0.071  14.458  11.733  0.2241 -0.0543  0.0030
 3632W        W21156  18.374   7.109  13.432  0.2150  0.2998  0.1428
 3633W        W21157   2.178  10.575  13.416 -0.5236  0.0313  0.3644
 3634W        W21158   9.051   6.960  13.309 -0.0597 -0.4354 -0.3960
 3635W        W21159  14.494   9.962  11.112 -0.0371  0.2817  0.0373
 3636W        W21160  13.508  11.226   2.191  0.2189 -0.3184 -0.0539
 3637W        W21161   7.494  14.379  12.363  0.0584  0.0234  0.0684
 3638W        W21162  13.566   5.100  14.475 -0.0840  0.0529 -0.2903
 3639W        W21163  12.710   5.092   2.774 -0.0552 -0.2232  0.0046
 3640W        W21164   9.344  10.030  11.002  0.1693  0.1635  0.2065
 3641W        W21165   3.926   5.204   1.146  0.3067 -0.1438 -0.3294
 3642W        W21166   9.361  14.487   1.849 -0.0765 -0.0331  0.2698
 3643W        W21167   2.932   3.735  11.569 -0.1725 -0.3044 -0.0192
 3644W        W21168  11.068   1.106   2.195 -0.0545  0.1445 -0.0118
 3645W        W21169   2.677  16.807  13.535  0.2554  0.0692  0.0727
 3646W        W21170  11.618   0.538  15.024 -0.0561 -0.0313  0.1909
 3647W        W21171   5.758  14.790  12.114  0.1242 -0.2038  0.1568
 3648W        W21172   0.645   7.560   1.823 -0.1108 -0.2487  0.1563
 3649W        W21173   5.055  14.172  14.752 -0.4292  0.2457 -0.0282
 3650W        W21174   7.453  10.205   3.907  0.0663 -0.0762 -0.0642
 3651W        W21175  14.994  11.919   0.311 -0.1918  0.1336 -0.2961
 3652W        W21176  12.955   1.314   4.638  0.1509  0.0923 -0.0059
 3653W        W21177  13.283  11.785   2.969  0.2538 -0.0409  0.1442
 3654W        W21178   6.217  15.235  15.113 -0.1665  0.2089  0.0188
 3655W        W21179  11.376  16.590   1.246  0.0068 -0.4271 -0.1671
 3656W        W21180  12.969   6.018   0.944 -0.3814 -0.1787  0.0751
 3657W        W21181  10.976  10.460   3.168 -0.3211  0.0909 -0.1003
 3658W        W21182   3.467   2.859   0.943  0.5115  0.3922 -0.1200
 3659W        W21183  10.818   0.288  13.852  0.3526  0.0341  0.1122
 3660W        W21184   2.757   9.494  13.654  0.1199 -0.1332 -0.2413
 3661W        W21185   3.904   0.040   2.882  0.0903 -0.2454 -0.3400
 3662W        W21186  16.257  12.916  15.229 -0.1070  0.0434 -0.0621
 3663W        W21187   0.819   0.475  14.390 -0.1815  0.0617 -0.1905
 3664W        W21188  16.347  16.742  13.155 -0.2203 -0.2455  0.3202
 3665W        W21189  16.584  14.926   3.012 -0.0202  0.0214 -0.0854
 3666W        W21190  15.406  12.586  11.995  0.0912  0.1729  0.0249
 3667W        W21191   3.444   7.482  13.635 -0.1003  0.0666 -0.3119
 3668W        W21192   6.360  15.583  11.424  0.0992  0.0436  0.1740
 3669W        W21193  13.687   9.084  13.333 -0.2878  0.1660  0.2509
 3670W        W21194  16.795   3.837  11.883 -0.2306 -0.0114  0.0576
 3671W        W21195  18.408   7.488   0.682  0.3283 -0.0521 -0.1841
 3672W        W21196  16.557  11.639   1.022 -0.1390 -0.1566  0.1040
 3673W        W21197  10.053   9.069   1.728  0.1442  0.0625 -0.2875
 3674W        W21198   9.669  15.678  14.834  0.0277  0.0600  0.0078
 3675W        W21199  12.567  10.598   1.672  0.0528  0.0606  0.0208
 3676W        W21200  13.612   6.782   0.224  0.3366 -0.0082  0.2326
 3677W        W21201  13.524   5.592  11.554 -0.0622  0.2746 -0.2616
 3678W        W21202   2.004  15.150  11.590  0.4341 -0.1381 -0.0961
 3679W        W21203  17.041  10.674  12.850  0.1802 -0.1906  0.0830
 3680W        W21204   1.712   7.882  14.608 -0.0715  0.0555  0.0181
 3681W        W21205  12.694  15.533   5.241 -0.2524  0.0349 -0.1907
 3682W        W21206  11.963   1.274   2.164 -0.1293  0.4778 -0.1297
 3683W        W21207  14.475  18.309  14.943  0.1650  0.2006  0.1586
 3684W        W21208  16.193  15.747   0.824 -0.0147  0.0126  0.2892
 3685W        W21209  15.879  16.302  11.574 -0.1143 -0.4007  0.1436
 3686W        W21210  16.669   8.405  12.789  0.2357 -0.0698 -0.1057
 3687W        W21211  12.020  12.118   4.609  0.1020  0.0453  0.0439
 3688W        W21212  14.916   1.149   2.330 -0.1501  0.4050 -0.0335
 3689W        W21213   5.481  16.134   5.179 -0.0196 -0.2004 -0.4202
 3690W        W21214   6.919  18.447  13.843 -0.3082 -0.0506 -0.1222
 3691W        W21215  12.328   8.488   1.079 -0.2703 -0.1443 -0.1719
 3692W        W21216   7.963   5.278   4.527  0.2503  0.0527  0.3007
 3693W        W21217   5.086   2.344   0.228 -0.2324  0.2475  0.1574
 3694W        W21218  13.983  15.706   1.526 -0.1059 -0.0194  0.0916
 3695W        W21219   9.824   5.079   1.776 -0.2255 -0.2967 -0.1811
 3696W        W21220  18.171  11.145  11.993 -0.2266  0.0742 -0.1767
 3697W        W21221   3.165  14.306  11.319  0.0027 -0.0258 -0.2612
 3698W        W21222   8.136  17.368  10.814  0.0691 -0.0802 -0.0429
 3699W        W21223  10.081  18.108  11.213  0.2223 -0.0967  0.1757
 3700W        W21224  11.642   9.664  11.880 -0.0718  0.4111  0.0103
 3701W        W21225   1.701  17.018   4.013  0.2989  0.1723 -0.0269
 3702W        W21226   7.194  16.600   3.970  0.2735  0.0905  0.1440
 3703W        W21227  17.231   5.043  11.521 -0.0505  0.0531  0.0117
 3704W        W21228  14.125   4.841  14.498  0.0730  0.0502  0.0471
 3705W        W21229  10.249   1.003   2.294  0.2586 -0.1361  0.1663
 3706W        W21230   6.150   9.477  14.344  0.2738 -0.3159  0.0397
 3707W        W21231   0.105   8.346   2.033  0.0612 -0.0298 -0.1812
 3708W        W21232   1.564  15.775   1.275 -0.2312 -0.0190 -0.1317
 3709W        W21233  11.124  10.331  14.819 -0.1062 -0.0721  0.1316
 3710W        W21234   3.764   3.991  14.189  0.1334  0.1687  0.0315
 3711W        W21235  15.526  14.733  14.895 -0.3506  0.1780  0.1306
 3712W        W21236   0.738   8.591   3.481 -0.0371 -0.0936 -0.1505
 3713W        W21237   5.296   2.273  13.985  0.0043 -0.0400  0.2693
 3714W        W21238   6.667   9.683  14.942  0.2071  0.0232  0.0246
 3715W        W21239  11.706  17.148   0.179  0.0795  0.0309  0.0120
 3716W        W21240  18.322   7.347  10.829 -0.3493 -0.1214  0.1918
 3717W        W21241  13.320   2.694   1.522 -0.1048  0.0492  0.1016
 3718W        W21242  17.839   7.244  13.372 -0.0767 -0.2473 -0.2639
 3719W        W21243   2.915   5.877  10.039 -0.0525  0.1467 -0.1268
 3720W        W21244   4.426   5.945   2.886 -0.0040 -0.0045  0.0257
 3721W        W21245  16.944  15.874  12.752 -0.2505  0.1274  0.3009
 3722W        W21246  15.634  13.320  11.525  0.1389 -0.0527 -0.2289
 3723W        W21247   6.786  13.578   3.325 -0.1716  0.1201 -0.1271
 3724W        W21248  14.396   9.066  11.579 -0.0892 -0.1303  0.1049
 3725W        W21249   6.434   5.201  11.504  0.0087  0.3334 -0.2427
 3726W        W21250   0.932   2.757   5.636  0.0775 -0.3164  0.1694
 3727W        W21251   8.891   6.949  14.240  0.1564  0.0611 -0.0503
 3728W        W21252  17.881  10.788  11.312  0.2268 -0.3054  0.1982
 3729W        W21253   1.829   0.485   1.667  0.0493 -0.2667 -0.0674
 3730W        W21254  15.101  12.095   1.367 -0.0387 -0.1690  0.2150
 3731W        W21255   5.530   3.997   2.340 -0.0180  0.1427 -0.3746
 3732W        W21256  11.870   8.506  13.373  0.4000 -0.0315  0.1247
 3733W        W21257  10.827   9.295  13.981 -0.2863 -0.2920  0.3205
 3734W        W21258   1.304  13.022  13.368  0.0100  0.4841  0.2860
 3735W        W21259   7.145  17.683  14.610 -0.2224  0.1717  0.1889
 3736W        W21260  15.632   6.175  11.299  0.0572  0.3044 -0.1359
 3737W        W21261   0.023   9.699  12.795 -0.0722 -0.2913  0.0686
 3738W        W21262  12.684  13.213   2.240 -0.0250  0.1232  0.0847
 3739W        W21263   0.078  11.690   1.462 -0.2477 -0.1691  0.0667
 3740W        W21264  13.713  15.942   3.638  0.0953  0.0776 -0.0973
 3741W        W21265  10.874  17.483  11.395 -0.1043 -0.2475 -0.2925
 3742W        W21266   3.285   0.171   3.619  0.2222 -0.1384  0.0437
 3743W        W21267   4.328   8.684   0.180  0.1275  0.3911  0.0634
 3744W        W21268   2.221   6.561   3.441  0.1807  0.1240 -0.4495
 3745W        W21269  14.993  12.267  13.224 -0.1353 -0.2438 -0.2228
 3746W        W21270   5.694   0.168   4.123  0.0789 -0.0122 -0.0652
 3747W        W21271   3.092   3.475  14.861 -0.4144  0.2400 -0.0575
 3748W        W21272  18.045   7.112   3.692  0.0302 -0.0932 -0.2933
 3749W        W21273  15.204  10.620   0.179  0.0169  0.0618  0.1141
 3750W        W21274  16.171  11.569  13.318  0.0494  0.1832  0.0589
 3751W        W21275  15.784  15.555   1.097  0.0539  0.2803  0.0928
 3752W        W21276  12.925  10.930   1.282  0.0581 -0.0057  0.1818
 3753W        W21277   0.381   5.258   1.000 -0.2724  0.1750  0.1309
 3754W        W21278  14.830   5.850   2.715 -0.0356  0.1287  0.0984
 3755W        W21279   7.821  16.152  15.203 -0.0633 -0.0401 -0.1032
 3756W        W21280  14.224  17.706   2.591  0.2060  0.1249  0.0151
 3757W        W21281   5.848  16.181   2.614 -0.3056 -0.1159  0.0106
 3758W        W21282   9.796  18.210  12.503 -0.1684 -0.2684 -0.1058
 3759W        W21283  11.028  16.035  12.208  0.1286  0.0630 -0.3258
 3760W        W21284   4.450   8.266  10.334  0.0104 -0.0538 -0.3271
 3761W        W21285  14.490  15.579  12.312  0.1357  0.0235 -0.0592
 3762W        W21286  16.498  13.878   4.920 -0.1404 -0.0144  0.0083
 3763W        W21287   1.104   5.078   0.363  0.1552 -0.3596 -0.1632
 3764W        W21288   0.954   7.156   1.653 -0.0722 -0.1849  0.1625
 3765W        W21289   3.136  10.425  11.657  0.1105  0.0750 -0.0999
 3766W        W21290  10.580  12.935  14.422 -0.0443 -0.1159 -0.5207
 3767W        W21291   8.856   4.901  14.379 -0.2371 -0.3947 -0.1305
 3768W        W21292   3.926   3.734  14.579 -0.1197 -0.1194 -0.2714
 3769W        W21293   7.949  17.652   0.483 -0.1162  0.1796 -0.2079
 3770W        W21294  13.361  15.572   3.758  0.2017  0.0077 -0.0937
 3771W        W21295   9.035  16.148  15.194 -0.2706 -0.1174  0.1038
 3772W        W21296   5.071   7.063   1.276  0.2171 -0.3879  0.0049
 3773W        W21297   4.397  12.911   3.239 -0.2234  0.3357 -0.0056
 3774W        W21298   8.281   3.293  12.616 -0.1208 -0.0852 -0.1455
 3775W        W21299  10.407   9.996   1.300  0.0686  0.1011  0.0279
 3776W        W21300   9.378   6.233   1.493 -0.0619 -0.0809  0.0040
 3777W        W21301   1.350  16.415   2.820 -0.0210  0.0993  0.1705
 3778W        W21302  15.209   2.518  12.661  0.2247 -0.0931 -0.2845
 3779W        W21303  14.537  18.113  12.199  0.0085 -0.1692  0.0686
 3780W        W21304  15.531   2.611   0.937  0.2134 -0.0152  0.1188
 3781W        W21305  10.474   8.502   1.573 -0.1173  0.2120 -0.0492
 3782W        W21306  15.940  12.222   2.700 -0.2912  0.2261 -0.4846
 3783W        W21307   7.365   8.597   4.347  0.0135  0.0058  0.1722
 3784W        W21308  18.472  16.842   5.032 -0.1017 -0.4024 -0.2505
 3785W        W21309   2.411  14.738  14.995 -0.1256 -0.0182 -0.2090
 3786W        W21310   6.735   2.779  15.623 -0.1586 -0.2695  0.3768
 3787W        W21311   4.987   3.458   4.459  0.2328 -0.2205  0.1142
 3788W        W21312   9.444   3.297  15.300 -0.1870 -0.1894  0.0011
 3789W        W21313  18.352  14.990  12.497 -0.1953  0.1997 -0.1975
 3790W        W21314   9.664  13.306  13.186  0.1603 -0.0946 -0.0186
 3791W        W21315   1.505  16.617   4.202 -0.0923 -0.2733 -0.5705
 3792W        W21316   4.345  12.292  15.180  0.0043 -0.0968 -0.0044
 3793W        W21317   6.219  11.595   3.232 -0.2821 -0.1394 -0.1333
 3794W        W21318   6.916  11.410  13.532 -0.1267 -0.0101  0.0340
 3795W        W21319   9.208  15.971  12.311  0.0607 -0.0510  0.2517
 3796W        W21320  16.788   9.589  14.385  0.1285 -0.0376  0.0984
 3797W        W21321   4.524   8.844  14.499 -0.0653  0.1465  0.3772
 3798W        W21322  11.049  10.673   0.138  0.1900 -0.1786  0.0694
 3799W        W21323  11.162   7.567   3.919  0.2025 -0.2395  0.3101
 3800W        W21324  10.880   7.069   1.776  0.3677  0.1820 -0.1933
 3801W        W21325   4.004  15.575  14.706  0.1766  0.0648 -0.0633
 3802W        W21326  17.720  15.211   4.345 -0.1387 -0.0646  0.1187
 3803W        W21327   6.619   4.240  13.911 -0.1254  0.4539 -0.3127
 3804W        W21328  16.339   7.045   3.211  0.0717 -0.0216 -0.1814
 3805W        W21329  14.292   4.146  12.241  0.1759 -0.1446 -0.0206
 3806W        W21330   2.787   4.885   3.968 -0.1314  0.1642 -0.3028
 3807W        W21331  11.178   4.894   2.151 -0.1926 -0.2821 -0.0576
 3808W        W21332  11.768  12.840   4.129  0.3178  0.1838  0.0655
 3809W        W21333  16.533   4.093  12.328 -0.3630  0.1003  0.1213
 3810W        W21334   7.789  10.595   5.395 -0.0936  0.1522  0.1144
 3811W        W21335   2.471   9.062   3.523  0.0757 -0.4641 -0.2274
 3812W        W21336   5.020  15.499   2.624  0.4299 -0.2170  0.3309
 3813W        W21337  14.309   4.116   1.773 -0.2779  0.3968  0.1759
 3814W        W21338  10.189   7.596  11.570 -0.1098  0.1126  0.1209
 3815W        W21339   2.901  10.539  14.449  0.1484 -0.0787 -0.1600
 3816W        W21340   6.673   9.844  13.757 -0.2151 -0.1523  0.0475
 3817W        W21341   3.462   8.115  13.938 -0.1869  0.2714 -0.0684
 3818W        W21342  12.824   5.952   4.938  0.3429  0.1247  0.0533
 3819W        W21343  10.421  15.058   0.421  0.0335  0.1948 -0.2167
 3820W        W21344  17.618  14.245   4.957  0.0109  0.2222  0.3031
 3821W        W21345   0.882   3.222   1.177  0.4838  0.2396 -0.0304
 3822W        W21346   7.882   5.150   1.654  0.3404  0.1632  0.1546
 3823W        W21347  13.588  14.165   4.093 -0.2843 -0.0524  0.0730
 3824W        W21348  12.551   9.623  11.550 -0.1087 -0.1248 -0.2774
 3825W        W21349  13.780  15.024   0.536  0.0454 -0.0646  0.4150
 3826W        W21350   1.425   4.114  11.480  0.0820 -0.3804 -0.4135
 3827W        W21351  13.034  13.643  15.279 -0.1407  0.1389 -0.1082
 3828W        W21352  13.217  17.926  15.185 -0.2535 -0.0444  0.1798
 3829W        W21353   1.065  11.702  11.254  0.1035 -0.0090  0.0809
 3830W        W21354   8.410  11.193  13.757  0.1388  0.1974  0.2322
 3831W        W21355  16.524   3.366   0.495  0.0501 -0.1028  0.0888
 3832W        W21356  16.158   1.822  14.554 -0.0198  0.1399  0.1134
 3833W        W21357  16.972   7.312   3.800  0.0097  0.1817  0.1985
 3834W        W21358  14.006   2.004  11.801  0.0256  0.5195 -0.0098
 3835W        W21359   4.037   4.685   0.932  0.0646 -0.1576  0.1223
 3836W        W21360  10.134  15.073  12.337 -0.2410 -0.2614  0.1980
 3837W        W21361   5.072  16.777  14.651 -0.2146  0.0374 -0.0857
 3838W        W21362   6.864  15.885  14.416  0.1181  0.2786  0.3709
 3839W        W21363   8.938   1.455   3.682  0.2510 -0.1011  0.1188
 3840W        W21364   5.411  13.156  13.913 -0.1935  0.1194 -0.3177
 3841W        W21365   2.888  16.350  15.032  0.0857  0.2349  0.0938
 3842W        W21366   0.142  18.397  14.323  0.2761 -0.1020 -0.0062
 3843W        W21367  12.683   5.554   0.940  0.2096 -0.0386  0.1712
 3844W        W21368   1.985   6.687   2.235  0.0912  0.2342 -0.2182
 3845W        W21369  17.481   6.505   3.457 -0.2957 -0.3674  0.1478
 3846W        W21370   4.982  14.104  13.553 -0.2088 -0.1387  0.0007
 3847W        W21371  18.315   9.547   3.751  0.0147 -0.1560  0.0556
 3848W        W21372   0.169   6.846  12.335  0.3251  0.0069  0.1488
 3849W        W21373   3.436   1.236   1.829 -0.1110 -0.1042  0.1127
 3850W        W21374   9.623  10.719   1.095 -0.0179 -0.2531 -0.1427
 3851W        W21375   7.221   7.707  10.318  0.2448 -0.2957  0.0904
 3852W        W21376   4.247   9.098   1.102 -0.0500  0.0750 -0.0642
 3853W        W21377   5.098  13.145   0.959  0.2243 -0.0772 -0.0321
 3854W        W21378  14.474  15.959  15.150  0.0639 -0.6001 -0.1098
 3855W        W21379   5.705   2.148   3.170  0.0464  0.1443 -0.1153
 3856W        W21380   0.693   8.265  12.465  0.0906 -0.5997  0.2714
 3857W        W21381  10.068   6.314   1.596 -0.1089  0.0481  0.0105
 3858W        W21382   9.015  18.366  11.486 -0.2658 -0.1022  0.2702
 3859W        W21383   8.567   5.719   1.588 -0.1788  0.3884  0.0040
 3860W        W21384   3.182   0.060  14.544 -0.0154  0.2278  0.0739
 3861W        W21385   5.737   4.275   2.745 -0.3368  0.2022  0.2120
 3862W        W21386   1.733   5.883  15.557  0.0711  0.0671 -0.3080
 3863W        W21387   2.884   0.154  14.099 -0.2283  0.1699  0.0550
 3864W        W21388  17.311  17.085   1.008 -0.0986  0.0614  0.1132
 3865W        W21389   4.654  16.807   3.329  0.0776 -0.0659 -0.2486
 3866W        W21390   2.086   4.383   4.884  0.3824  0.3531 -0.1127
 3867W        W21391   6.663  15.283  12.536  0.0658  0.0040  0.2519
 3868W        W21392   3.726   4.876  12.423  0.0622  0.2638  0.1984
 3869W        W21393  12.601  16.258  15.639 -0.1045  0.0936 -0.0799
 3870W        W21394  14.493   4.559   2.648 -0.0338  0.3666  0.0227
 3871W        W21395  17.038  14.547  13.895 -0.2097  0.1811  0.1797
 3872W        W21396   6.593  13.250  14.144  0.1232 -0.0257  0.0838
 3873W        W21397   8.638  11.712  12.505 -0.1214 -0.3018 -0.1831
 3874W        W21398  10.833   6.034   2.271 -0.1855 -0.1156  0.1458
 3875W        W21399  14.885   0.128  11.715 -0.0414  0.0244  0.0677
 3876W        W21400  11.028   2.978  12.590  0.0503  0.1023  0.0954
 3877W        W21401   2.375   1.228   1.600 -0.0960 -0.1316 -0.0832
 3878W        W21402  15.067  11.152   0.894 -0.1287 -0.1319  0.0154
 3879W        W21403   0.712  17.626   3.498  0.2053 -0.0791  0.3189
 3880W        W21404  11.297  17.251  11.927  0.0516 -0.0999 -0.0529
 3881W        W21405  17.057  16.767  15.314  0.4203  0.1265  0.0506
 3882W        W21406   8.756   9.106  11.467 -0.2981 -0.1511  0.3329
 3883W        W21407   7.378   6.159   0.750  0.2805  0.1260  0.0694
 3884W        W21408   4.261  14.180   5.058  0.2690  0.0839 -0.1740
 3885W        W21409  10.818   5.777  10.632 -0.2074 -0.0139 -0.1651
 3886W        W21410   3.094   5.732  11.140  0.2055  0.3678  0.2013
 3887W        W21411  11.423  12.554  11.925  0.3913  0.1247  0.0559
 3888W        W21412   4.748  10.122  10.858 -0.1827 -0.1525  0.4239
 3889W        W21413   3.230  17.187  15.117 -0.5023  0.0028  0.0308
 3890W        W21414   1.827   9.450   4.655  0.2419 -0.1210  0.1683
 3891W        W21415   8.771   1.892  13.345 -0.0069 -0.2823  0.0014
 3892W        W21416   5.254   4.161  10.956 -0.0905 -0.0494 -0.0767
 3893W        W21417  17.431   7.068  13.700 -0.4180 -0.0332 -0.1908
 3894W        W21418  14.855  17.442   3.337 -0.0672 -0.0986 -0.0398
 3895W        W21419   5.504  11.193  12.147 -0.2527  0.2314 -0.0401
 3896W        W21420  16.737   2.935   2.788  0.2518 -0.0996 -0.0768
 3897W        W21421  16.824   1.675  10.227 -0.0481  0.2418  0.0983
 3898W        W21422   8.555   9.430  14.602 -0.1514  0.0269  0.0135
 3899W        W21423   9.414  14.074   3.388 -0.0897 -0.2056  0.0703
 3900W        W21424  12.143   0.415   4.931  0.0819  0.0654  0.1454
 3901W        W21425  11.130  17.978  15.042 -0.1799  0.0486  0.1149
 3902W        W21426  18.232   0.753  13.706 -0.3302 -0.2123  0.0983
 3903W        W21427  18.303   6.491  10.664 -0.3119  0.4025  0.0504
 3904W        W21428  12.419   6.399   0.390  0.3912 -0.1339 -0.2158
 3905W        W21429   4.832   9.019   2.000 -0.0826 -0.0788  0.0534
 3906W        W21430   3.905  13.897  13.591  0.0057 -0.0063 -0.4681
 3907W        W21431  17.139   9.600   2.371 -0.0539 -0.2758 -0.1889
 3908W        W21432  15.883   2.920   3.223  0.1068 -0.1824 -0.2410
 3909W        W21433   6.641   1.550   1.173 -0.0945  0.2025  0.0120
 3910W        W21434   0.904   7.801  11.284 -0.1379 -0.0671  0.2921
 3911W        W21435   1.612  13.257  10.051 -0.2357 -0.4809 -0.0040
 3912W        W21436   0.538  14.415   1.394 -0.1952  0.1496 -0.1842
 3913W        W21437  13.700   5.542  13.805 -0.3242 -0.3094 -0.1070
 3914W        W21438   9.226  12.376  14.535  0.1292  0.1218 -0.3003
 3915W        W21439  16.657   0.489  14.964  0.0298 -0.2928  0.3802
 3916W        W21440  15.045  12.255   3.394  0.2809  0.1653  0.0767
 3917W        W21441  12.985   4.412   0.884  0.1845 -0.1456  0.1272
 3918W        W21442  15.948   0.433  12.384  0.2999 -0.3067 -0.1988
 3919W        W21443  15.235   1.571  12.335  0.3062 -0.0268  0.0670
 3920W        W21444  14.214   8.712  12.816 -0.0105  0.2696  0.1115
 3921W        W21445  13.070  15.805   2.731 -0.0155  0.1135  0.0740
 3922W        W21446  12.375  13.906   1.772  0.3554 -0.1624 -0.0989
 3923W        W21447  16.755   0.843  12.255 -0.2142 -0.0340 -0.3624
 3924W        W21448   8.722   6.435   3.202 -0.2133  0.1790 -0.0982
 3925W        W21449   8.199   5.099  12.074 -0.0748 -0.1073  0.1341
 3926W        W21450   2.316   0.762   1.945 -0.0522  0.2441  0.0774
 3927W        W21451  16.867   9.033  15.115  0.1686  0.2646 -0.0390
 3928W        W21452   9.150   6.725   1.686 -0.3336 -0.5499  0.0526
 3929W        W21453  13.376   8.213  12.341 -0.1435  0.3915 -0.2496
 3930W        W21454  15.314   3.853  11.008 -0.1759 -0.0838 -0.0545
 3931W        W21455  15.081  15.373   4.737 -0.0183 -0.0365 -0.0330
 3932W        W21456  12.180   9.348   3.657 -0.0796 -0.3062 -0.4236
 3933W        W21457  17.239   0.161  11.467  0.3386  0.0225  0.0497
 3934W        W21458  14.219   5.340   3.867 -0.1992 -0.2024 -0.1086
 3935W        W21459  16.311  18.480   0.885  0.1805  0.1074  0.0877
 3936W        W21460   0.119  16.896  12.450  0.0534  0.1564 -0.4375
 3937W        W21461  17.666   8.650   4.111 -0.0729 -0.2662 -0.0704
 3938W        W21462   3.501  13.093   3.524 -0.3912  0.1801  0.1168
 3939W        W21463  10.859   0.453  11.021  0.2331  0.2116  0.0383
 3940W        W21464  11.510  13.897  13.144  0.0184  0.2222  0.3109
 3941W        W21465   5.981   2.402   3.533 -0.4081 -0.0191 -0.3252
 3942W        W21466   6.341   8.321  13.184 -0.2179 -0.1833 -0.1790
 3943W        W21467  10.968  11.335   4.206 -0.0019  0.3226 -0.0719
 3944W        W21468  16.707  15.836   1.014  0.0494 -0.1192  0.0837
 3945W        W21469   1.134   8.778   2.078 -0.0607  0.2699  0.3051
 3946W        W21470   7.913   5.122   2.197 -0.2779 -0.1066  0.0636
 3947W        W21471  12.198  11.586   4.559 -0.1568  0.2553 -0.2324
 3948W        W21472   6.624  11.370  13.991  0.1762  0.0342  0.4927
 3949W        W21473  12.831  11.642   2.023 -0.1090  0.3126  0.2106
 3950W        W21474   1.037  10.598  12.730  0.2512 -0.1040  0.1263
 3951W        W21475   0.983   6.850  12.877 -0.1134 -0.0191  0.1615
 3952W        W21476   1.163  13.322  13.867 -0.2637  0.0350 -0.0629
 3953W        W21477   7.178   9.484   4.194  0.0232 -0.1924  0.0532
 3954W        W21478  17.793   3.538  11.656 -0.2988 -0.2465  0.0085
 3955W        W21479  15.658  14.212  13.446 -0.2176 -0.0205 -0.2905
 3956W        W21480  16.980  13.288   1.036 -0.2215 -0.2072  0.0890
 3957W        W21481  15.241   7.796  14.127 -0.0205  0.0667 -0.0964
 3958W        W21482   2.385  11.055  14.969  0.1682  0.0475 -0.0462
 3959W        W21483   6.997  18.346   2.146 -0.1314  0.2654 -0.0621
 3960W        W21484   9.264   2.983  12.951  0.1852  0.0744  0.0205
 3961W        W21485   1.651  18.044   0.464 -0.2207 -0.0367 -0.0606
 3962W        W21486  14.742   0.605  12.997  0.1270  0.3770 -0.0392
 3963W        W21487   9.821  10.469  13.263 -0.2519  0.2597 -0.0185
 3964W        W21488   9.311   2.965  11.199 -0.1517 -0.4378 -0.0640
 3965W        W21489   2.766  15.232  11.384  0.1750  0.1737 -0.3495
 3966W        W21490   6.753  15.342  13.038 -0.0059 -0.0364  0.1459
 3967W        W21491   9.969  15.649  12.923 -0.1525 -0.0864 -0.0964
 3968W        W21492  12.555  18.476   1.781 -0.0009 -0.0150  0.0235
 3969W        W21493  14.653  13.380  12.389 -0.1411 -0.1890 -0.1564
 3970W        W21494   1.598   9.145   5.419  0.0148  0.1925  0.3046
 3971W        W21495  17.794   5.977  13.925  0.0197  0.0930 -0.1076
 3972W        W21496   0.308  17.367  14.529  0.2502 -0.3639 -0.1810
 3973W        W21497   4.369  13.094   0.273  0.0637  0.0336  0.0865
 3974W        W21498  16.180   2.104  11.848  0.2363  0.1337 -0.0280
 3975W        W21499  15.109  13.287  11.378 -0.1251 -0.2436  0.0642
 3976W        W21500  12.801   7.110   2.841 -0.1123 -0.0895 -0.2442
 3977W        W21501   3.637   5.721   1.373  0.0863  0.1013  0.0222
 3978W        W21502   4.409   4.256  11.530 -0.3740 -0.2230  0.1668
 3979W        W21503  10.076  13.142  11.236 -0.2353  0.1318 -0.2843
 3980W        W21504   1.586   7.292  12.900  0.0319 -0.0540  0.1798
 3981W        W21505   0.356   5.310   1.565 -0.0310 -0.1819  0.0802
 3982W        W21506  15.475   8.235  14.165  0.1182  0.0043 -0.3118
 3983W        W21507   2.372   6.101   3.705  0.0346  0.2713 -0.1766
 3984W        W21508  12.263   4.095   2.842  0.3661 -0.2873  0.0176
 3985W        W21509  15.883   5.349  10.958  0.0512 -0.2643 -0.1843
 3986W        W21510  17.709   8.017  10.743 -0.0943 -0.0603 -0.0915
 3987W        W21511   8.066   0.659  14.394 -0.0493 -0.1295 -0.2760
 3988W        W21512  13.632  18.150  15.446  0.1130 -0.0902 -0.2335
 3989W        W21513   0.497   4.784   4.461 -0.2139  0.0693 -0.3070
 3990W        W21514   0.595   9.529   2.180  0.2155 -0.0676  0.0333
 3991W        W21515   4.923  14.745   1.487  0.0407  0.1541 -0.1619
 3992W        W21516  16.242   9.329   4.120  0.1802 -0.1435 -0.1082
 3993W        W21517  13.442  12.995   4.428 -0.2400  0.1268  0.5568
 3994W        W21518  13.163  12.901   0.139 -0.0855 -0.0549 -0.0272
 3995W        W21519   6.028  17.578  12.873 -0.1347  0.1687 -0.2788
 3996W        W21520   7.292   9.928   4.341 -0.2011  0.1506  0.0425
 3997W        W21521   6.462   2.996   4.696  0.1925  0.1810 -0.0294
 3998W        W21522   0.255  10.691  15.664 -0.2413  0.1730  0.0551
 3999W        W21523  18.290  17.298   1.567  0.0242  0.0385 -0.4168
 4000W        W21524   4.770   4.256   2.546 -0.3420  0.0390 -0.1633
 4001W        W21525   0.913   1.794   3.938 -0.0267  0.0339 -0.0251
 4002W        W21526   6.115   0.797  14.858  0.0066 -0.2843  0.2054
 4003W        W21527  13.158   4.882  14.185 -0.0719 -0.1549 -0.0174
 4004W        W21528   0.729  11.860   4.669  0.1645  0.0103 -0.1241
 4005W        W21529   6.648  16.659  14.978 -0.0474 -0.1307  0.1209
 4006W        W21530  15.252   4.610  10.010 -0.0111 -0.2655 -0.2528
 4007W        W21531   6.778   4.644  13.596 -0.2510  0.3229  0.0512
 4008W        W21532   2.345   3.700   0.058  0.2758  0.0421 -0.2061
 4009W        W21533   2.386  15.132  11.916  0.1516 -0.0644 -0.1079
 4010W        W21534  16.427   6.525  12.812  0.1367 -0.2496  0.0332
 4011W        W21535  18.012   2.207   2.219 -0.1842  0.1531 -0.2400
 4012W        W21536   4.358  17.017   2.063  0.0976  0.0830 -0.1984
 4013W        W21537   4.642   4.363   1.992  0.1053 -0.2389 -0.1680
 4014W        W21538  16.105   7.610  15.267  0.0779  0.0073  0.2326
 4015W        W21539   5.701   5.387   0.526  0.2591  0.2629  0.2725
 4016W        W21540   0.820  15.825   2.540 -0.0991 -0.1962 -0.3167
 4017W        W21541  16.648  14.802  15.665  0.2433  0.1301 -0.0963
 4018W        W21542   8.843  18.116  11.045  0.2591 -0.0139 -0.1823
 4019W        W21543  10.125  16.844  11.116  0.0008 -0.2114  0.2385
 4020W        W21544   2.070   2.482   1.390 -0.0611  0.1230 -0.2123
 4021W        W21545  12.007  15.509   0.546 -0.3697  0.3567  0.1343
 4022W        W21546  10.490   7.721  14.316  0.1921  0.1294  0.1301
 4023W        W21547  16.490  12.695   5.307 -0.1640 -0.1669  0.2641
 4024W        W21548   2.953   3.522  11.022  0.0523 -0.0008  0.0138
 4025W        W21549   0.957  15.366  10.321  0.0768 -0.2999 -0.1310
 4026W        W21550   2.696   2.805  15.392  0.0145  0.1797  0.0473
 4027W        W21551   4.212   8.447  13.464  0.1742 -0.0054 -0.0595
 4028W        W21552   5.223   3.557  14.350  0.2427 -0.0690  0.1019
 4029W        W21553   2.771  16.063  12.957 -0.0449 -0.0635  0.1855
 4030W        W21554   9.733  17.013   4.836 -0.1063 -0.3294 -0.5572
 4031W        W21555  13.991   5.267   2.346 -0.3272 -0.2792  0.0620
 4032W        W21556   6.757   9.765   4.094 -0.2580  0.3163 -0.3638
 4033W        W21557  12.949  17.321   2.987  0.0280 -0.1655 -0.2370
 4034W        W21558  14.427   0.474   1.222 -0.0401  0.2689  0.1111
 4035W        W21559   1.448  13.113  15.045  0.0162  0.0139 -0.1749
 4036W        W21560   0.568   3.242   3.540 -0.0900 -0.1817 -0.2440
 4037W        W21561   4.165   6.222  11.149  0.2952  0.1168 -0.0670
 4038W        W21562   8.115   4.017  15.407  0.1646 -0.0283  0.1643
 4039W        W21563   8.251   5.750   0.249 -0.1801  0.2786 -0.2728
 4040W        W21564   9.540   3.924   0.768 -0.0361  0.0193  0.2461
 4041W        W21565  17.577   3.947   4.053 -0.3254  0.3552 -0.3097
 4042W        W21566   9.321  16.854   4.659  0.2340 -0.1463 -0.0408
 4043W        W21567   4.790  13.872  10.120  0.1671  0.0214 -0.4077
 4044W        W21568  10.961   2.121   3.432  0.1332  0.1819 -0.1478
 4045W        W21569   2.269  10.001  15.044 -0.1121 -0.0882  0.1989
 4046W        W21570  16.016   4.705   2.076 -0.1922  0.0417 -0.0146
 4047W        W21571  11.705  14.239   1.317 -0.0058 -0.0478  0.1434
 4048W        W21572  13.409  14.892   2.680  0.0187 -0.1544 -0.4027
 4049W        W21573   1.428  17.102  14.022 -0.1979 -0.1387 -0.0455
 4050W        W21574  16.035   2.653  14.576 -0.0145  0.0379 -0.0970
 4051W        W21575   7.159   9.811  12.820 -0.1514  0.0212  0.0124
 4052W        W21576  11.346  10.743  14.751 -0.1230  0.7013 -0.0777
 4053W        W21577   0.995   7.826   2.190  0.0219  0.1526 -0.4080
 4054W        W21578   6.168   4.848  13.629 -0.0146 -0.0145 -0.1665
 4055W        W21579  16.708  13.287  14.740 -0.1204  0.1115 -0.0847
 4056W        W21580   2.989  15.671   0.916  0.0218  0.1213  0.1628
 4057W        W21581  11.573  14.578  14.677  0.3106 -0.3822  0.1218
 4058W        W21582   3.268  11.809   4.170  0.1687  0.1771  0.2355
 4059W        W21583   1.091   3.181   0.732 -0.2022  0.1549 -0.3003
 4060W        W21584   4.541  14.075  11.497  0.0282  0.0997 -0.1826
 4061W        W21585  10.843  17.428   0.532  0.0298  0.0242  0.0339
 4062W        W21586  15.516   1.060   0.597 -0.0271  0.1945  0.3446
 4063W        W21587  10.553   5.692   3.003 -0.1395 -0.1083 -0.2202
 4064W        W21588  11.145   8.458   2.030  0.1381 -0.1256 -0.0938
 4065W        W21589  15.484  16.194  13.955  0.0872  0.0560  0.0259
 4066W        W21590  14.374   0.300  14.207  0.1591 -0.1284  0.0277
 4067W        W21591   6.110   6.279   4.311 -0.0535 -0.0574 -0.0898
 4068W        W21592   8.131  12.386  10.680 -0.0119  0.1067  0.1685
 4069W        W21593  15.915  16.277  14.824  0.3022  0.1139 -0.0281
 4070W        W21594   9.330   7.531   1.218 -0.0287 -0.0699  0.0258
 4071W        W21595   7.619  15.547   2.756  0.3087  0.0266  0.2543
 4072W        W21596  17.495  11.831   2.284 -0.3087 -0.0012 -0.1617
 4073W        W21597   9.241  17.855  10.854 -0.3959 -0.0346 -0.0527
 4074W        W21598   4.875  10.364   1.330  0.0012 -0.3912 -0.5043
 4075W        W21599   2.886   9.724   1.754  0.2409 -0.2827 -0.3300
 4076W        W21600   2.875   6.174  11.302  0.1932  0.2188  0.2490
 4077W        W21601   7.379   2.082  13.545 -0.1327  0.0508 -0.1751
 4078W        W21602   9.742   5.376  12.556 -0.1001 -0.1277 -0.1166
 4079W        W21603  10.185  17.247   0.882  0.0240  0.0835  0.3310
 4080W        W21604   1.438  13.831  11.682  0.1083  0.1689  0.0662
 4081W        W21605  12.364  14.275  14.108  0.0980  0.1168 -0.2028
 4082W        W21606  11.917   7.485  15.393  0.0723 -0.3340 -0.0519
 4083W        W21607   4.356   1.286  15.353 -0.0627 -0.0568 -0.0347
 4084W        W21608   2.659   4.175  12.913 -0.1463  0.1960  0.3703
 4085W        W21609   8.003   5.442  11.809  0.1813  0.0293 -0.0751
 4086W        W21610   1.895  18.187  14.200 -0.3901 -0.0685  0.0574
 4087W        W21611   7.244  11.207  14.797  0.1061  0.0540 -0.1423
 4088W        W21612  14.167  15.250   3.174 -0.1982  0.0751 -0.1586
 4089W        W21613   6.840   2.721   2.077 -0.1781 -0.2835 -0.1093
 4090W        W21614  10.755   1.646   3.455 -0.0402 -0.0360 -0.0227
 4091W        W21615  15.748   1.444   0.992  0.4278 -0.1295  0.1551
 4092W        W21616   0.040  15.414   0.645  0.1956 -0.0261 -0.0501
 4093W        W21617  17.683   1.650  12.652 -0.1157 -0.0549  0.2389
 4094W        W21618  16.869  10.870   1.440  0.0811  0.1419 -0.1631
 4095W        W21619   7.510   4.135  14.507 -0.3186 -0.1551  0.0696
 4096W        W21620   8.981  18.183   3.334  0.0856 -0.1528  0.2610
 4097W        W21621  13.858  14.700   2.927 -0.1669 -0.1425  0.2997
 4098W        W21622   6.563   5.403   3.386  0.0067  0.0606 -0.1316
 4099W        W21623   8.520  10.853  13.247  0.0163  0.0995 -0.0712
 4100W        W21624  14.040   9.559   2.890  0.1774 -0.2460  0.1477
 4101W        W21625   2.714  14.952   0.359  0.0173 -0.1247  0.2420
 4102W        W21626   2.602  14.697   4.859 -0.0762  0.1866 -0.3640
 4103W        W21627  16.906  16.294   0.726  0.0295 -0.0912  0.4527
 4104W        W21628   4.547  17.715   1.414 -0.4091  0.1353  0.0572
 4105W        W21629   7.928   3.764  11.798 -0.1894 -0.2915  0.1492
 4106W        W21630   2.503  14.150   2.235 -0.0226 -0.0821 -0.0430
 4107W        W21631  15.008   7.543  11.389 -0.0379 -0.1752 -0.3259
 4108W        W21632  12.377   3.323   0.416  0.0012  0.1983 -0.0741
 4109W        W21633  15.072  13.074   2.292 -0.0297 -0.2892 -0.0850
 4110W        W21634   7.656  16.794  14.097 -0.0683 -0.1605  0.1735
 4111W        W21635   1.635   2.469   3.132 -0.1619 -0.0644 -0.1085
 4112W        W21636  13.670  16.894  14.650  0.0120  0.1238  0.1329
 4113W        W21637  12.145   5.825   2.299 -0.2688  0.1761 -0.5807
 4114W        W21638  13.541   6.659  13.506  0.0444  0.2089 -0.2490
 4115W        W21639  17.566  11.128  12.674 -0.0382 -0.1126 -0.1140
 4116W        W21640  13.757   8.917  12.846 -0.0109 -0.0199  0.1547
 4117W        W21641  14.101   6.707  14.747  0.0352 -0.2669 -0.0748
 4118W        W21642  16.188   2.442   1.679 -0.2624  0.0890 -0.0764
 4119W        W21643   9.583   7.664   5.432 -0.0580 -0.1395 -0.1263
 4120W        W21644  15.454  11.578  12.796 -0.0225 -0.0250 -0.0366
 4121W        W21645  13.895   6.441  12.088  0.0941  0.0338 -0.2360
 4122W        W21646   7.192   5.500   3.982 -0.1408  0.0166 -0.2209
 4123W        W21647   7.251   3.855   4.425 -0.2171 -0.2426  0.0430
 4124W        W21648  17.564  17.017   1.812  0.3370  0.0688 -0.1024
 4125W        W21649   7.201   9.621  13.296 -0.3191 -0.0884  0.0428
 4126W        W21650  17.233  12.995  10.625  0.1824 -0.4143  0.4286
 4127W        W21651   1.061   6.068   1.324  0.1067 -0.3146 -0.1058
 4128W        W21652   7.688   8.352   4.667 -0.2048 -0.1008  0.0015
 4129W        W21653  12.779   1.448  14.240 -0.1959 -0.1394 -0.0227
 4130W        W21654   4.574   9.193   3.213 -0.0063 -0.1474  0.1309
 4131W        W21655  13.557   4.587   3.838  0.0376  0.2765 -0.2032
 4132W        W21656  15.552  14.183   1.968  0.0385  0.4140 -0.1582
 4133W        W21657   0.013   4.648  13.616  0.1477 -0.0595 -0.1816
 4134W        W21658  18.088  17.569   5.116  0.1641  0.0150  0.1830
 4135W        W21659   0.644  18.140  12.221 -0.0579 -0.2874  0.2578
 4136W        W21660   4.831   9.633   1.651  0.0283  0.0017  0.0438
 4137W        W21661  12.106  15.139   3.978  0.2162 -0.2075  0.0934
 4138W        W21662   3.613  13.537   4.740  0.0809  0.0125 -0.1978
 4139W        W21663  11.959  12.023   2.676 -0.1474 -0.1351  0.1475
 4140W        W21664   1.960   9.372   5.125 -0.3769 -0.0789  0.2357
 4141W        W21665   3.495  11.106  10.572 -0.2273  0.0586 -0.0484
 4142W        W21666  11.114  12.855  12.676 -0.0321  0.0918 -0.3165
 4143W        W21667   0.717   4.584   1.228  0.1329 -0.5102 -0.1737
 4144W        W21668  17.248  10.029  11.630  0.1522  0.0909  0.2437
 4145W        W21669  11.650   7.502   3.820 -0.2288 -0.5309  0.1087
 4146W        W21670   1.493   2.765   3.490 -0.1162 -0.1511 -0.2650
 4147W        W21671   9.797   5.647  11.541  0.0011  0.4006 -0.0555
 4148W        W21672  15.911   5.633  12.543 -0.0704  0.3089  0.0632
 4149W        W21673  10.034  16.745   3.574 -0.3486  0.1918 -0.1315
 4150W        W21674   6.921   9.108  13.113 -0.2185 -0.2799  0.0582
 4151W        W21675  13.222  12.517   0.920  0.3684 -0.0124 -0.1207
 4152W        W21676   5.779   1.669   2.026 -0.1269  0.1437  0.0083
 4153W        W21677  11.064  17.124   1.813 -0.3100 -0.3420 -0.0527
 4154W        W21678  17.235  14.698   4.757 -0.1212 -0.0447 -0.1278
 4155W        W21679   3.438  17.793   2.466  0.4443 -0.2323 -0.0821
 4156W        W21680  15.628   5.157  12.486  0.2989 -0.0232  0.3102
 4157W        W21681  12.702  11.567   4.472 -0.0168 -0.0825 -0.1465
 4158W        W21682  17.288  17.130  14.996 -0.3401  0.0804  0.3123
 4159W        W21683   9.724   3.146   4.915  0.3410  0.0337 -0.2486
 4160W        W21684   2.234   9.330  14.435 -0.3846 -0.1115  0.1349
 4161W        W21685   5.167   4.691   0.002 -0.1382  0.0721  0.0222
 4162W        W21686  14.820  10.908  11.477 -0.0604  0.2171 -0.2739
 4163W        W21687   2.504   0.477  14.345 -0.0541  0.0230 -0.0228
 4164W        W21688   0.178   3.983   5.477  0.2032  0.1968  0.0631
 4165W        W21689   2.642   5.825  14.652  0.0105 -0.3422  0.1895
 4166W        W21690  14.184   4.319   2.393 -0.0407 -0.0605  0.0020
 4167W        W21691  16.047   3.652  11.489  0.0272 -0.1496 -0.2094
 4168W        W21692   9.417   1.974  12.906 -0.2790 -0.2051 -0.0019
 4169W        W21693   2.276   9.189   1.734 -0.3923 -0.0160  0.2284
 4170W        W21694  16.874   0.313  12.214 -0.0150  0.0101  0.3853
 4171W        W21695   0.541   9.626   4.496  0.3140 -0.1034 -0.2999
 4172W        W21696   5.366   9.030   4.246  0.3503  0.1227 -0.0334
 4173W        W21697   1.800   0.331  14.796  0.0017  0.1775 -0.0595
 4174W        W21698   7.685   4.207  10.697  0.0692 -0.1245 -0.2832
 4175W        W21699   5.830   0.545   5.576  0.0352  0.2758  0.0584
 4176W        W21700   6.639  15.532   2.014  0.0333 -0.3830 -0.2066
 4177W        W21701   0.250  10.993  11.797 -0.2353 -0.2495  0.0292
 4178W        W21702   5.161  17.573  15.052 -0.1330  0.0592 -0.0615
 4179W        W21703   3.575   6.578   1.686  0.0953 -0.0619  0.2131
 4180W        W21704   6.218  15.877   4.569 -0.0769  0.0791 -0.1256
 4181W        W21705  14.565  13.509  13.839  0.2644 -0.0598  0.1776
 4182W        W21706  13.345  17.701  15.620 -0.1083 -0.1446 -0.2332
 4183W        W21707   5.652  13.702   3.932  0.1922 -0.3976 -0.1799
 4184W        W21708   7.402  15.727  12.079 -0.0882 -0.1521 -0.2372
 4185W        W21709   9.875   7.744   3.859 -0.1578 -0.2107  0.1542
 4186W        W21710   1.489  11.480  13.775  0.0443  0.2976 -0.1996
 4187W        W21711   7.508  18.394  10.088  0.0242  0.2877 -0.0002
 4188W        W21712   0.012   4.533   3.687  0.1412 -0.1221 -0.0925
 4189W        W21713  16.985  15.098   3.926  0.0072 -0.2100  0.1085
 4190W        W21714   5.162   6.793   9.744 -0.2949 -0.1117  0.0295
 4191W        W21715   7.998   0.090  12.150 -0.0675  0.2783  0.3139
 4192W        W21716   5.104  12.079   1.286 -0.0242 -0.0845  0.1915
 4193W        W21717   1.600  10.152  15.165  0.3237  0.2910 -0.1739
 4194W        W21718  17.072   6.196  15.644  0.2638 -0.1419  0.2878
 4195W        W21719   3.738  17.593   2.763  0.2849 -0.0260  0.1481
 4196W        W21720   8.750   1.639   2.335 -0.1971 -0.0739 -0.3087
 4197W        W21721   8.674   8.487  11.958  0.0902  0.1487  0.0271
 4198W        W21722  14.742   6.915  11.236  0.0635 -0.0789  0.1495
 4199W        W21723   6.183   8.133  11.987  0.1220 -0.2347  0.1090
 4200W        W21724  12.460  15.299  13.467  0.0321  0.2014 -0.1501
 4201W        W21725   8.491   5.936  12.676  0.3239  0.0930 -0.4530
 4202W        W21726   2.912  17.375   0.057  0.1371  0.3112 -0.1553
 4203W        W21727   1.389   5.499  14.245  0.0279 -0.2465 -0.1142
 4204W        W21728   2.710  17.132  13.157  0.0535  0.3222  0.0722
 4205W        W21729   1.640   8.290  14.402 -0.3473 -0.1729  0.1051
 4206W        W21730   9.446   3.075  14.718  0.0850  0.2657  0.0962
 4207W        W21731  16.434   7.374  12.200 -0.0116  0.1277 -0.3838
 4208W        W21732  13.339  11.222  11.474 -0.0146 -0.1478  0.0278
 4209W        W21733   1.177  15.274  15.710 -0.1418  0.2168 -0.0043
 4210W        W21734   4.789  18.478  12.319  0.1355 -0.3832 -0.1754
 4211W        W21735  14.768  14.691  11.474 -0.1984 -0.0019 -0.1242
 4212W        W21736  10.570   8.394  12.586 -0.1318  0.0765 -0.0822
 4213W        W21737   4.193   7.656  15.120 -0.0725  0.1834 -0.1220
 4214W        W21738   8.415   8.407  14.057  0.1559 -0.1997  0.0395
 4215W        W21739   5.762  10.343   3.051 -0.0345  0.0315 -0.2367
 4216W        W21740  17.859   2.199   2.771 -0.0057 -0.2172  0.5636
 4217W        W21741   0.850   9.765   0.879 -0.1051  0.0394  0.2981
 4218W        W21742   2.517  11.867   1.674 -0.0865 -0.1988  0.2161
 4219W        W21743  14.952  18.124   1.442 -0.1244  0.0718 -0.1587
 4220W        W21744   6.297  15.429   0.716 -0.0561 -0.0762  0.0579
 4221W        W21745   5.001   9.391   3.734  0.1922 -0.0008 -0.1780
 4222W        W21746   4.695  17.237   3.035 -0.0902  0.1639 -0.0044
 4223W        W21747   6.075   1.295  13.119  0.0527  0.0338 -0.0848
 4224W        W21748  17.623  13.725  13.313 -0.0510 -0.2543 -0.1358
 4225W        W21749  17.139  17.693  13.190  0.2778 -0.1280  0.2224
 4226W        W21750   2.538   9.181   2.133  0.2434 -0.1850  0.0895
 4227W        W21751   8.937   6.340  11.958  0.2388  0.4670 -0.0907
 4228W        W21752  13.741  10.410   3.231 -0.2048 -0.1475  0.0683
 4229W        W21753  18.351  17.965   2.969  0.0575 -0.0179 -0.1255
 4230W        W21754  10.884   8.275  11.691  0.6965  0.0758 -0.0103
 4231W        W21755   2.570  14.856  12.301 -0.0081  0.0260  0.3000
 4232W        W21756   8.223   4.095  11.536 -0.0881 -0.2301  0.1911
 4233W        W21757   9.498  17.787   0.354 -0.3142  0.0281  0.1002
 4234W        W21758  11.675  13.771   4.231 -0.1715 -0.2383 -0.0430
 4235W        W21759  12.273   5.501  15.488  0.2681 -0.2752  0.1200
 4236W        W21760  15.550   2.623  11.437  0.0845 -0.0034  0.1393
 4237W        W21761  14.813  15.586   2.684 -0.1714  0.1553  0.1302
 4238W        W21762  14.447   1.988   4.077 -0.1736 -0.2106 -0.1294
 4239W        W21763  13.692   1.836  15.507  0.2465 -0.1856 -0.1545
 4240W        W21764   0.230  13.879   3.586  0.0628 -0.2589  0.3274
 4241W        W21765  12.966   2.825  11.569 -0.0720 -0.0378 -0.0361
 4242W        W21766  12.232  12.250  10.379  0.0490  0.0514 -0.0354
 4243W        W21767   0.781  13.730  15.260 -0.1456 -0.1650 -0.1336
 4244W        W21768  10.377   9.341  12.127 -0.0334  0.0171  0.0816
 4245W        W21769  12.092   2.669   1.678  0.1168  0.2856  0.1300
 4246W        W21770   3.600   0.258  10.634 -0.2060 -0.0374  0.0197
 4247W        W21771  17.224   9.754   0.877 -0.2822 -0.1555 -0.1285
 4248W        W21772   2.319  13.023  13.420 -0.1452  0.0006  0.0195
 4249W        W21773  15.655   0.539   2.611  0.2368 -0.1362  0.0087
 4250W        W21774  13.951  18.052  14.805 -0.0402 -0.2772 -0.1668
 4251W        W21775  16.804  11.194  15.410 -0.0641 -0.0097  0.0079
 4252W        W21776   0.017   9.881  14.932 -0.0246  0.0650  0.2303
 4253W        W21777  10.231  14.859   1.322 -0.2398 -0.0399  0.1215
 4254W        W21778   4.040  17.728  13.001  0.2323  0.0052  0.1656
 4255W        W21779  10.770  17.403   0.003 -0.0030  0.0528 -0.1511
 4256W        W21780   2.035   2.832   0.982 -0.2362  0.1506  0.1823
 4257W        W21781   5.787  13.186  15.154 -0.1046  0.1526  0.1851
 4258W        W21782  16.066  15.248  13.867  0.0408  0.2398 -0.1388
 4259W        W21783  12.140  14.323  14.581 -0.0360  0.0646  0.0722
 4260W        W21784   2.255  16.371  14.455  0.3955 -0.2614  0.1128
 4261W        W21785   7.234  15.403   3.115  0.0912  0.1589 -0.1107
 4262W        W21786  11.014  14.087  10.854 -0.2623 -0.2124 -0.2451
 4263W        W21787  13.013   1.662   4.289  0.3300 -0.3830 -0.0519
 4264W        W21788   3.764  12.044   0.290 -0.1473 -0.0482 -0.1132
 4265W        W21789  17.858  18.126   1.403  0.1398 -0.0350 -0.3937
 4266W        W21790   8.498  11.628   4.762 -0.0101  0.2096  0.2924
 4267W        W21791   2.613   5.948   2.272 -0.1107  0.0401  0.1105
 4268W        W21792   5.982  17.963   4.570  0.1778  0.1577 -0.1607
 4269W        W21793  14.274   8.209  12.363 -0.1118  0.1364 -0.1496
 4270W        W21794  14.403  17.025   0.464 -0.0355  0.0514 -0.1475
 4271W        W21795  16.158   5.296  15.158  0.1678  0.3238 -0.2400
 4272W        W21796  15.872   5.209   2.009  0.2229  0.0929  0.1904
 4273W        W21797  12.400  16.250   0.426 -0.0723 -0.1611 -0.1760
 4274W        W21798   6.875  12.395   0.803 -0.3495  0.0803  0.0942
 4275W        W21799  14.509  16.633  14.367 -0.2589  0.0081  0.1967
 4276W        W21800  10.918   0.173   2.471 -0.0173  0.2233 -0.3779
 4277W        W21801   2.674  14.452   1.873 -0.1887 -0.2611  0.3357
 4278W        W21802  18.062  16.784  11.726  0.0936 -0.2822  0.1372
 4279W        W21803   3.910  11.377   1.995 -0.0923 -0.1433  0.0532
 4280W        W21804  12.905   2.742   1.839  0.2718 -0.2128  0.1643
 4281W        W21805   1.458  16.642  14.977 -0.0092 -0.1379  0.1277
 4282W        W21806   0.247  13.973   2.643 -0.0748  0.0369 -0.1592
 4283W        W21807  14.865   7.733  14.408 -0.1408  0.2718 -0.0685
 4284W        W21808   1.319   7.610  11.069 -0.3082 -0.0302 -0.2347
 4285W        W21809   7.418   1.151   4.246  0.2409 -0.1659 -0.1639
 4286W        W21810  17.426  18.096  12.507  0.0004  0.1975 -0.2127
 4287W        W21811  18.291   7.764  12.324 -0.0457 -0.2116 -0.4453
 4288W        W21812   0.439  13.215  15.230  0.4442 -0.1340 -0.2262
 4289W        W21813   0.489   5.259   3.923 -0.2834 -0.1388  0.0498
 4290W        W21814  17.963  11.237   0.355 -0.0220  0.0185  0.0995
 4291W        W21815   8.938   2.407   2.802  0.0523 -0.1666 -0.1086
 4292W        W21816   8.801   9.403   1.499  0.0447  0.0626  0.1086
 4293W        W21817   1.929   7.979   4.130 -0.1591 -0.1053 -0.3790
 4294W        W21818  15.248  11.632   1.185 -0.1537 -0.0499 -0.3754
 4295W        W21819   3.800   1.004  12.898  0.3614  0.0278 -0.1221
 4296W        W21820   5.288   0.841   3.910  0.0295 -0.0169  0.1471
 4297W        W21821  10.241   2.750  11.805  0.0464  0.3795 -0.0966
 4298W        W21822  13.610  11.420   1.430 -0.3542  0.2056 -0.3861
 4299W        W21823   9.217  13.070  11.178  0.0506 -0.2817 -0.0201
 4300W        W21824   1.925   9.478  12.632 -0.0016  0.0935 -0.1005
 4301W        W21825  16.026  12.555  14.192 -0.0200 -0.0409  0.1447
 4302W        W21826  14.347   1.111  13.635 -0.1311  0.1240  0.0552
 4303W        W21827   0.611  14.874   0.010  0.0056  0.2064  0.0468
 4304W        W21828   1.979   9.101   2.270  0.2038 -0.0687  0.0286
 4305W        W21829   8.302  17.557   3.204 -0.0704  0.2540  0.0005
 4306W        W21830   3.900   2.459   3.039 -0.0514  0.0985 -0.2867
 4307W        W21831   9.993  15.848   3.691  0.1723  0.1332  0.2665
 4308W        W21832   5.508   1.684   3.122  0.3903 -0.2594 -0.1439
 4309W        W21833   2.813   2.026   1.704  0.1912  0.0641  0.4799
 4310W        W21834   5.352   2.753  15.711  0.0409  0.2164  0.2852
 4311W        W21835  14.752  18.080   0.841  0.0168 -0.1537 -0.2862
 4312W        W21836   8.815   9.356  11.919 -0.1001 -0.4452 -0.0809
 4313W        W21837   9.155   1.849   4.830 -0.1661 -0.0670  0.1596
 4314W        W21838  18.406   2.813   0.242  0.0448 -0.2283 -0.3294
 4315W        W21839   1.627  12.500  11.726 -0.1205 -0.1214 -0.2236
 4316W        W21840  14.107   1.247  12.519  0.1937  0.2174 -0.1203
 4317W        W21841  13.649  12.529   4.321 -0.0619 -0.0315 -0.2874
 4318W        W21842   3.801   6.909  13.751 -0.4196  0.0435 -0.0136
 4319W        W21843   0.229  10.238   3.018  0.0277  0.2559 -0.0040
 4320W        W21844  10.850   7.841   5.068 -0.0938  0.0598 -0.0965
 4321W        W21845  13.581   2.298  15.364 -0.2001 -0.1496 -0.0195
 4322W        W21846  16.241   9.795   0.781  0.2940  0.0759 -0.0087
 4323W        W21847   9.588  14.244   4.856  0.0647 -0.0810 -0.2309
 4324W        W21848   6.216  13.527  13.460 -0.0691  0.3571  0.1534
 4325W        W21849  10.881   5.614   3.641 -0.1469  0.2669  0.2098
 4326W        W21850  13.588   0.344   0.656  0.0441  0.1401 -0.2951
 4327W        W21851   1.350   3.630   5.816 -0.2513  0.0062 -0.2020
 4328W        W21852   9.222   8.675  13.082  0.0308 -0.2052 -0.0177
 4329W        W21853  14.291   3.611   2.578 -0.1048 -0.1610  0.2770
 4330W        W21854  16.389   5.193   1.853  0.0691  0.0336  0.1228
 4331W        W21855  17.207   3.307   2.052  0.0476  0.1145 -0.1238
 4332W        W21856   4.371   3.921   1.930 -0.0221 -0.2125 -0.0315
 4333W        W21857  17.504   7.584  13.730 -0.0468 -0.1242 -0.0631
 4334W        W21858  15.771   4.015   4.757  0.6079  0.0958  0.0815
 4335W        W21859   9.678   0.234   2.018  0.1976  0.0218 -0.0767
 4336W        W21860   0.798  16.999  11.858 -0.0056  0.2558 -0.1421
 4337W        W21861   7.892   0.913   0.784 -0.0018 -0.2096 -0.3859
 4338W        W21862  10.922   1.486   4.683  0.1112 -0.1730  0.2611
 4339W        W21863   2.216  17.699  13.772  0.2538 -0.0914 -0.0788
 4340W        W21864   3.681   8.170  13.196  0.1985  0.2060  0.6289
 4341W        W21865   7.831   3.302  11.822  0.3519 -0.0400  0.1591
 4342W        W21866  14.797  11.481   2.188 -0.1264  0.2011 -0.1301
 4343W        W21867   9.399   9.476  13.824  0.2800  0.0048  0.0640
 4344W        W21868   7.277   7.516   2.688 -0.0665  0.1068  0.1066
 4345W        W21869   9.491  17.632   3.490 -0.2863  0.2215 -0.0394
 4346W        W21870  11.565   9.258   1.632 -0.0954 -0.1652  0.1440
 4347W        W21871   8.938   6.215  14.835 -0.0456  0.1278  0.2033
 4348W        W21872  18.434   6.833   3.408 -0.0753 -0.0829 -0.2460
 4349W        W21873  14.618  13.595  15.016  0.1726  0.2274  0.1085
 4350W        W21874   8.642  14.812   2.925 -0.0871 -0.2108  0.0960
 4351W        W21875   7.178  15.984  13.497 -0.2074  0.2241 -0.0618
 4352W        W21876  13.039   2.235   3.706  0.2917 -0.1122 -0.0604
 4353W        W21877  10.938  14.849   5.069 -0.3059  0.1270 -0.3600
 4354W        W21878   3.743  16.514  13.183  0.0995 -0.1536 -0.1388
 4355W        W21879   4.453  14.956   3.886  0.0007  0.0943 -0.0077
 4356W        W21880  18.028   6.195   2.109  0.1691  0.1503  0.1717
 4357W        W21881   1.269   3.726   0.138  0.1221 -0.0534 -0.0975
 4358W        W21882   3.372   5.562  15.700  0.3010  0.0316  0.1200
 4359W        W21883   8.725  15.445   0.154 -0.1783  0.1481 -0.0949
 4360W        W21884  17.269   5.735  14.809  0.3796 -0.0850  0.1618
 4361W        W21885   9.255   5.068  15.468 -0.2013  0.2058 -0.2879
 4362W        W21886   0.852   9.558  13.006 -0.0253 -0.1722  0.1442
 4363W        W21887  18.110  10.121  15.083 -0.0301 -0.2868  0.0212
 4364W        W21888   7.832   1.539   2.115  0.3022  0.3515  0.3004
 4365W        W21889   6.955  15.089   3.982  0.2017 -0.0215  0.0951
 4366W        W21890  15.516   4.418  15.483  0.1614 -0.4675 -0.1053
 4367W        W21891   7.020  15.824  10.713 -0.1519  0.1712 -0.0672
 4368W        W21892   0.009  17.364   2.771 -0.0377  0.3583 -0.3330
 4369W        W21893  14.184   2.462  11.838 -0.1525  0.0400  0.1596
 4370W        W21894   6.472   8.255   0.885 -0.0790  0.0761 -0.0690
 4371W        W21895   6.036  13.095   0.812 -0.1072  0.0371 -0.0230
 4372W        W21896  10.433   8.940  14.700 -0.0235  0.1435 -0.2027
 4373W        W21897  12.801   8.417  10.147  0.0237  0.2141  0.0749
 4374W        W21898  13.597  10.290  12.963 -0.0339  0.1278  0.2221
 4375W        W21899   4.386   9.825   5.050  0.2663 -0.2227  0.1596
 4376W        W21900   7.165   1.810   0.347 -0.2576  0.3084 -0.1764
 4377W        W21901  14.194   7.258  12.765 -0.4285  0.0896 -0.2815
 4378W        W21902   4.503   5.529   4.122  0.1006  0.1275  0.2986
 4379W        W21903   0.965   6.883   4.398 -0.0935 -0.3373 -0.0624
 4380W        W21904   2.691   8.380  13.708 -0.0218  0.2432 -0.1187
 4381W        W21905  16.178   7.823  15.690  0.1869 -0.3266 -0.1034
 4382W        W21906   8.597  11.076  15.299 -0.2270  0.1833 -0.0585
 4383W        W21907  13.815  18.324  11.760  0.1129  0.1020 -0.1107
 4384W        W21908  12.115   6.945   5.569  0.3236  0.0853 -0.0443
 4385W        W21909  15.457  12.110  13.399  0.0186  0.2945  0.0362
 4386W        W21910   7.282  15.534  10.434  0.0094 -0.4645 -0.1058
 4387W        W21911  17.569   5.596  10.506 -0.0527 -0.0470 -0.0376
 4388W        W21912  15.936  15.360   1.525  0.1588  0.1741  0.0270
 4389W        W21913   7.006   4.114   1.053  0.1627 -0.0002  0.1416
 4390W        W21914   6.684   7.506  14.796 -0.0993 -0.0737  0.0636
 4391W        W21915  14.247  10.114   3.908  0.1089 -0.0668 -0.1861
 4392W        W21916  10.969   9.271  15.655  0.0785 -0.0729  0.3933
 4393W        W21917  16.691   8.985   2.603  0.0789 -0.3039 -0.1863
 4394W        W21918  13.838  14.744   0.080 -0.1878 -0.3011 -0.0463
 4395W        W21919  17.767  18.472  11.285  0.1333 -0.1115 -0.0903
 4396W        W21920   3.441   6.254   2.504  0.1004 -0.1011 -0.2884
 4397W        W21921   2.103  11.611  13.368  0.2823  0.3896 -0.2570
 4398W        W21922   3.968  10.363  11.055  0.2173 -0.0326  0.1027
 4399W        W21923   1.620  16.714   2.336 -0.1264  0.3151  0.1155
 4400W        W21924  14.209   4.992   0.902  0.1659 -0.2035  0.3483
 4401W        W21925   1.430  14.275   3.638  0.3275 -0.2384  0.1422
 4402W        W21926   1.335   6.432   3.612  0.2381 -0.0397 -0.4377
 4403W        W21927   3.831  15.178   3.978 -0.1724 -0.0568  0.3115
 4404W        W21928  13.389   0.398  14.117  0.0720 -0.2310  0.0330
 4405W        W21929   3.054  15.802  14.894 -0.1310  0.1581 -0.0635
 4406W        W21930  15.456  11.227   4.678  0.2916 -0.1951 -0.2641
 4407W        W21931   9.261   2.213  15.679  0.1200 -0.2109 -0.0111
 4408W        W21932  15.443  16.490  11.767 -0.3364  0.0808 -0.1071
 4409W        W21933   3.783  18.435  10.200 -0.0774  0.0622  0.3224
 4410W        W21934  13.745   2.500  14.947  0.1201 -0.0265 -0.1236
 4411W        W21935  10.723   5.789   4.993  0.2164 -0.1882  0.2473
 4412W        W21936   7.415   1.244  12.552 -0.2065  0.0468 -0.0656
 4413W        W21937  17.917   8.669   0.758  0.4011  0.3294 -0.5364
 4414W        W21938   6.110   5.456  12.449 -0.1445 -0.0857  0.0461
 4415W        W21939  16.927   0.928  10.984 -0.2101 -0.0887  0.0595
 4416W        W21940  10.880  14.889   4.563 -0.0826  0.2243  0.1087
 4417W        W21941  15.912  18.273   2.953  0.0082  0.2799 -0.0209
 4418W        W21942  17.452   8.193   2.356 -0.0273  0.0806  0.0956
 4419W        W21943   5.460   0.593  11.617  0.4767 -0.0182 -0.1425
 4420W        W21944  14.834   3.374  13.627  0.2814  0.1116 -0.1112
 4421W        W21945  16.937  15.867   4.062 -0.2378 -0.3138 -0.2145
 4422W        W21946  10.747  17.865   9.957  0.1501  0.0545  0.5375
 4423W        W21947  12.312  12.051  15.032  0.0586  0.0275 -0.1948
 4424W        W21948  12.516   4.615   3.497  0.0991 -0.3042 -0.1821
 4425W        W21949   8.552   8.537  13.510  0.0460 -0.0730  0.1373
 4426W        W21950   0.068   2.846  11.531  0.1564  0.4003  0.0826
 4427W        W21951   3.552   5.815   2.737  0.3086  0.0875  0.2338
 4428W        W21952   0.563   0.871   0.391  0.1891  0.2052 -0.3533
 4429W        W21953  10.291   3.307  13.715 -0.0232  0.1029 -0.1542
 4430W        W21954  13.566  13.568   3.192 -0.2797  0.2915 -0.1783
 4431W        W21955  15.135  13.405  15.550 -0.3519  0.3176 -0.0752
 4432W        W21956   1.900   5.058  14.882 -0.1255  0.1490 -0.0980
 4433W        W21957   5.843  11.271   3.438 -0.2224  0.1385  0.4583
 4434W        W21958   4.760  15.906  15.119 -0.1829  0.2541 -0.1764
 4435W        W21959   5.100   9.326  12.769  0.0054 -0.0094 -0.0491
 4436W        W21960   7.746   8.519   0.256  0.0277  0.2237 -0.0627
 4437W        W21961   5.633   8.892   0.796 -0.1077  0.3898  0.2000
 4438W        W21962  10.842  10.413   1.911 -0.0014 -0.0332  0.0240
 4439W        W21963   7.441   8.308  13.817 -0.2783  0.2842  0.1113
 4440W        W21964   5.272   3.028  14.430 -0.2523 -0.2289 -0.3802
 4441W        W21965   3.110  13.455   1.879  0.1147  0.1209  0.1044
 4442W        W21966   6.449   0.624   0.796 -0.1938 -0.0471 -0.2341
 4443W        W21967   4.780  15.650   4.684 -0.0744  0.1517  0.1185
 4444W        W21968   5.601  17.133  11.472  0.1418  0.1817  0.1316
 4445W        W21969  16.406   3.355  15.593 -0.0534  0.0703  0.2780
 4446W        W21970  11.509   8.884  13.331  0.1682 -0.1126  0.1800
 4447W        W21971   7.695   6.360   1.446 -0.0426 -0.1628  0.2993
 4448W        W21972   5.684  12.005   2.381  0.0467  0.2287 -0.1761
 4449W        W21973  10.890  15.237   2.321  0.1207  0.0399  0.1283
 4450W        W21974   5.756  11.115  15.510 -0.0314  0.5146  0.3046
 4451W        W21975  10.002  13.208   1.361 -0.1030 -0.1291  0.0516
 4452W        W21976   7.587  14.084   0.797  0.0030 -0.1726 -0.0345
 4453W        W21977   1.784   7.187   0.520 -0.2203 -0.0928 -0.1274
 4454W        W21978  12.099   7.346  11.759  0.4505  0.0205  0.0728
 4455W        W21979   2.708  15.199   0.861 -0.0551  0.2483 -0.2483
 4456W        W21980  13.526  16.199   5.104 -0.3616 -0.0645  0.1463
 4457W        W21981  12.857   5.517   4.561  0.2694  0.3555 -0.1295
 4458W        W21982  13.445  14.692   1.944  0.2325  0.0670  0.2166
 4459W        W21983  17.045  17.233  15.526 -0.2056 -0.0044 -0.3017
 4460W        W21984  18.155  13.382  13.432  0.0394  0.0257 -0.0028
 4461W        W21985  14.430  16.500   3.335  0.0897  0.0549 -0.0968
 4462W        W21986   5.911  18.379   1.376  0.0009  0.0188  0.2872
 4463W        W21987   8.072  10.990  15.566 -0.1219 -0.2080  0.0172
 4464W        W21988   7.410   4.760   0.408  0.0828  0.0856 -0.0242
 4465W        W21989   3.621  17.024  13.044  0.1135  0.0184 -0.1051
 4466W        W21990   9.358  16.136   2.380  0.0684 -0.0282 -0.1185
 4467W        W21991  17.790  14.444   2.504  0.0045  0.0615  0.1198
 4468W        W21992  10.138   8.533  15.000 -0.1191  0.1593 -0.0206
 4469W        W21993  14.670  16.254   2.373  0.1956 -0.2912 -0.0518
 4470W        W21994   7.155  15.948   1.909 -0.2830 -0.0888 -0.2541
 4471W        W21995  12.250  10.670   4.047 -0.2270 -0.1972 -0.0607
 4472W        W21996  16.786  11.179  12.209 -0.1050  0.0252 -0.1220
 4473W        W21997   0.776   9.426  14.494  0.2042 -0.1502  0.2158
 4474W        W21998  14.150   3.705   0.554  0.2200  0.1924  0.2394
 4475W        W21999  16.600   5.520   3.928 -0.1058 -0.0438  0.1112
 4476W        W22000  14.857   7.441   3.330 -0.3070  0.2560 -0.1473
 4477W        W22001   8.435   6.003  14.642  0.1645 -0.1282  0.0705
 4478W        W22002  15.078   1.532  14.561  0.0191 -0.2006 -0.1447
 4479W        W22003   2.531  11.849   1.181  0.0396 -0.0395 -0.1395
 4480W        W22004  16.072   5.692   1.153 -0.0596  0.2023  0.0388
 4481W        W22005  12.356   8.749   1.618  0.1766  0.0577  0.0197
 4482W        W22006   5.381   9.583   4.187 -0.0023 -0.1312  0.2042
 4483W        W22007  12.158  14.585   1.345 -0.3744 -0.0331  0.0770
 4484W        W22008  15.694  17.363   1.287  0.0173 -0.0989 -0.1606
 4485W        W22009   2.621   1.022  11.279  0.1047 -0.2586 -0.0760
 4486W        W22010   1.604  16.173   2.438  0.2516  0.1846  0.4293
 4487W        W22011   4.530  15.067   2.798  0.3996 -0.1908 -0.1429
 4488W        W22012   0.079   0.334  12.291  0.3635 -0.0525 -0.0815
 4489W        W22013  15.705   8.467   1.570 -0.0601  0.0637  0.1061
 4490W        W22014   3.815   7.243   0.794 -0.1691  0.0366  0.4356
 4491W        W22015   2.159  10.278  10.121 -0.0188 -0.0125 -0.2224
 4492W        W22016   9.216  16.425  11.554  0.0059 -0.1519 -0.2510
 4493W        W22017  11.727  11.065   2.763  0.0075 -0.2824  0.2376
 4494W        W22018  13.498   8.877   0.459 -0.2896 -0.2282  0.0174
 4495W        W22019   4.773   5.325  13.601  0.2852 -0.2518  0.0177
 4496W        W22020   2.241   2.271   2.948  0.0952  0.0589 -0.0385
 4497W        W22021  10.986  10.102  12.324 -0.2505 -0.0062  0.1104
 4498W        W22022   4.437  18.415   3.790  0.0199 -0.2496 -0.1188
 4499W        W22023   4.050   0.562  11.544  0.0693 -0.3132  0.0937
 4500W        W22024  17.249   5.659   0.609  0.0798 -0.4066  0.1068
 4501W        W22025  15.027   3.042  12.888 -0.2523  0.1357  0.3451
 4502W        W22026  13.852   5.217   1.123  0.1644 -0.2719  0.0644
 4503W        W22027  10.117   3.054   4.639  0.1581  0.2481  0.1033
 4504W        W22028   1.375   5.199  12.961  0.2130  0.4920 -0.1251
 4505W        W22029   6.378   6.013   4.035 -0.0252  0.3796  0.1250
 4506W        W22030  12.032   1.933  14.621  0.2003 -0.1396 -0.2625
 4507W        W22031  18.322   4.207   5.186 -0.2723  0.1612  0.2861
 4508W        W22032   6.817  12.002  12.939 -0.0104 -0.0388  0.2799
 4509W        W22033  17.991  16.472  13.397  0.2705  0.1779  0.0857
 4510W        W22034  17.938   4.621  14.995 -0.0026 -0.1590 -0.1378
 4511W        W22035   1.272   3.573  12.106  0.1718  0.0650 -0.1412
 4512W        W22036   7.592  18.174   4.867  0.2618  0.0772 -0.3093
 4513W        W22037   5.322   8.235  13.580  0.1124  0.3001  0.1788
 4514W        W22038   6.673   0.971   1.306 -0.1280 -0.0229  0.1633
 4515W        W22039  13.806   9.153   2.319 -0.2203 -0.0497  0.1787
 4516W        W22040   4.273  12.528   1.125 -0.1108  0.3521  0.0884
 4517W        W22041   8.856  15.729   4.521 -0.1840  0.0121 -0.5498
 4518W        W22042  16.559   4.751   9.770 -0.1318 -0.1677  0.0021
 4519W        W22043  18.397   2.352   2.585 -0.3040  0.1120 -0.2510
 4520W        W22044   7.297   2.028  15.508  0.0984 -0.0359  0.3725
 4521W        W22045  11.406   2.018   2.076 -0.0092  0.0730 -0.0407
 4522W        W22046  15.262   0.230   0.020  0.3065  0.0109 -0.1715
 4523W        W22047   8.189  14.673  14.515  0.2596  0.0441  0.1173
 4524W        W22048   8.205   4.724   3.739  0.0330 -0.0548 -0.0728
 4525W        W22049  16.343  16.378  11.217  0.1212  0.1462  0.2383
 4526W        W22050  14.844   6.969   0.031  0.2165  0.0825  0.0380
 4527W        W22051   5.393  18.271   0.645 -0.1651 -0.0398 -0.1597
 4528W        W22052  16.452  10.344   2.231 -0.2044  0.1208  0.1646
 4529W        W22053   2.410  10.892  13.798  0.0683  0.0587 -0.2703
 4530W        W22054   2.125   0.103  14.549 -0.0168 -0.0710  0.3117
 4531W        W22055  10.307   1.319   0.296 -0.0339 -0.0227  0.0357
 4532W        W22056  16.993  11.338   3.251 -0.4261 -0.1325  0.4005
 4533W        W22057  15.021  15.180  10.493  0.2505 -0.0098  0.0518
 4534W        W22058   7.162   5.618   1.934 -0.3144  0.0208 -0.0857
 4535W        W22059   8.806   4.773  14.872 -0.1223 -0.3304 -0.0695
 4536W        W22060  16.096  14.727   4.468 -0.1095  0.0281 -0.0114
 4537W        W22061   7.286  14.329   0.368  0.1330  0.1305 -0.3383
 4538W        W22062  16.187   7.473  10.652  0.1936  0.0738 -0.1847
 4539W        W22063   6.609   8.004  12.239 -0.1197  0.1091  0.1492
 4540W        W22064   4.917  13.176   3.493 -0.0943  0.0526 -0.2929
 4541W        W22065   2.635   0.426   4.159 -0.1534  0.2183 -0.1156
 4542W        W22066  13.759   8.599   5.155  0.0365 -0.2268  0.0638
 4543W        W22067   0.536  11.202  12.168  0.0096 -0.0619 -0.2161
 4544W        W22068   9.522   0.149   0.657 -0.4196 -0.0547  0.1414
 4545W        W22069   2.063   7.797  12.167 -0.0400 -0.0772  0.0536
 4546W        W22070   1.165  11.247  14.040 -0.0539  0.1759  0.0288
 4547W        W22071   3.311   6.280   1.335  0.1441 -0.0741  0.3560
 4548W        W22072   8.214  17.006  12.975 -0.0296 -0.2267 -0.0308
 4549W        W22073   0.226  16.853  12.975 -0.1101 -0.1331  0.0762
 4550W        W22074   0.030  11.100  12.501  0.0136  0.1502 -0.0675
 4551W        W22075  14.397  16.978   4.591 -0.2475  0.2842 -0.2525
 4552W        W22076  13.925  11.707   1.719 -0.2583 -0.4943 -0.3537
 4553W        W22077  14.946   6.082   0.494  0.4025 -0.2200 -0.1840
 4554W        W22078  11.425  16.664  14.553  0.0680 -0.1028  0.1751
 4555W        W22079  11.376   3.742  12.848 -0.0185  0.0548  0.3760
 4556W        W22080  16.606   6.444  12.311  0.3306 -0.0062 -0.0604
 4557W        W22081  10.632  13.154  12.091  0.0109  0.0586  0.1489
 4558W        W22082   9.944  16.741   2.580  0.0354 -0.0753  0.2099
 4559W        W22083  10.893   7.873  15.454  0.0425 -0.1898  0.0150
 4560W        W22084   0.105  14.975  11.577 -0.3070 -0.0427  0.0164
 4561W        W22085  13.209   4.856  13.628  0.0113 -0.2279 -0.1466
 4562W        W22086  16.984   4.707  12.885 -0.1172  0.2553  0.3776
 4563W        W22087   6.207  15.920   2.323 -0.2677  0.1828 -0.1592
 4564W        W22088   0.920  14.234  12.543  0.0962 -0.5503  0.0711
 4565W        W22089  14.261  10.716   2.374  0.1457  0.1921  0.1734
 4566W        W22090  15.252  10.650  14.157  0.1679 -0.1077  0.2984
 4567W        W22091  10.028   8.432  13.934 -0.0983  0.1971  0.1905
 4568W        W22092  10.072   7.204   2.185  0.2993 -0.1378  0.0811
 4569W        W22093  11.575   5.447   1.910 -0.0983  0.1040  0.4050
 4570W        W22094  10.972  14.888  14.165  0.1334 -0.1743 -0.0458
 4571W        W22095   6.280  10.959   3.812 -0.1396 -0.2367  0.1108
 4572W        W22096  11.518  14.492   2.502  0.2486  0.0124 -0.0302
 4573W        W22097  10.038   3.215   4.108 -0.2108 -0.2556  0.0996
 4574W        W22098  10.833   9.669   2.651  0.2591 -0.0650  0.1875
 4575W        W22099  11.863  16.246  14.532  0.2458 -0.2622 -0.1409
 4576W        W22100  14.577   8.847   3.280  0.4038 -0.3888  0.0042
 4577W        W22101   9.263   9.772   3.388  0.0621  0.1234 -0.1079
 4578W        W22102  11.684   3.691   3.434  0.0675 -0.2196  0.2525
 4579W        W22103   2.658  10.450   3.913 -0.2756  0.0606  0.0355
 4580W        W22104   2.356   8.330  15.117 -0.3595  0.3090 -0.2062
 4581W        W22105  13.551   0.440   3.602  0.1345 -0.0164  0.1052
 4582W        W22106   5.668   8.501   3.020  0.1031 -0.0543 -0.2497
 4583W        W22107   9.156   3.427  13.224  0.0612  0.1541  0.1852
 4584W        W22108   1.301   2.528   0.824 -0.3037  0.0539  0.0701
 4585W        W22109   0.447   2.632   4.385  0.0703 -0.0227  0.0379
 4586W        W22110  17.896  10.564  15.695  0.5169 -0.0177 -0.1145
 4587W        W22111   2.970  17.298   4.169 -0.0529 -0.0784  0.1854
 4588W        W22112   8.935   3.106   1.053  0.0234  0.0685  0.3603
 4589W        W22113  13.913  18.467   4.309  0.0140 -0.1711  0.1433
 4590W        W22114  10.772   8.336   2.372  0.5431 -0.1316 -0.2986
 4591W        W22115  15.402   2.478   4.254 -0.0342 -0.1818 -0.0316
 4592W        W22116  13.966   4.313  14.194  0.2950 -0.1622  0.0817
 4593W        W22117  13.861   7.731   3.225 -0.1140 -0.0501  0.4223
 4594W        W22118   0.346   3.000   1.975  0.2470  0.0955 -0.0157
 4595W        W22119   0.938   8.943  14.277  0.3365 -0.2030 -0.1347
 4596W        W22120   9.155  13.308  10.510 -0.1757 -0.1130  0.2948
 4597W        W22121   7.703   0.876  12.564  0.0901 -0.3375  0.0711
 4598W        W22122  16.504  14.450  14.484  0.1106  0.2047 -0.0242
 4599W        W22123   7.492  16.183   4.608  0.0082 -0.0130 -0.1985
 4600W        W22124  10.812  16.355   3.116  0.3088 -0.0363  0.0538
 4601W        W22125   9.113  13.495  11.005 -0.3382 -0.1612 -0.1544
 4602W        W22126  16.813   3.902  11.281 -0.2779 -0.2669 -0.1902
 4603W        W22127   9.526  12.772  14.455  0.0321 -0.1874  0.1078
 4604W        W22128  17.410   2.973   1.717  0.2458 -0.0352 -0.1382
 4605W        W22129   5.239  15.228   2.093  0.3236 -0.1879 -0.1167
 4606W        W22130  11.893   0.705   1.821  0.0049  0.1207  0.0076
 4607W        W22131  17.706  18.407   2.140  0.0459  0.2623 -0.3941
 4608W        W22132  13.786   6.549  15.077 -0.0889  0.2714  0.5156
 4609W        W22133   1.658  13.382   5.288 -0.0741  0.2922  0.1736
 4610W        W22134   1.602  15.488  15.628 -0.1957 -0.0294 -0.2958
 4611W        W22135  10.241  16.155   4.591  0.0658  0.2511 -0.3134
 4612W        W22136  11.510  16.314  13.302  0.1213  0.1042  0.4131
 4613W        W22137  13.323   9.584  14.185 -0.2880  0.1754 -0.3733
 4614W        W22138  11.137  14.670  15.526 -0.0680  0.3435  0.2293
 4615W        W22139   7.542  18.127   0.608  0.1036 -0.2322  0.0243
 4616W        W22140   7.876   3.688  14.675 -0.0382 -0.0233 -0.0369
 4617W        W22141   4.287   1.947  11.374  0.0207  0.0433 -0.3073
 4618W        W22142  12.749   9.518   4.143  0.3309  0.2004 -0.0395
 4619W        W22143  15.328  15.748  15.388  0.1147 -0.2861 -0.0864
 4620W        W22144  15.781   9.444  13.493 -0.0790  0.1054  0.1575
 4621W        W22145  13.788   0.140   1.900 -0.1090 -0.0508  0.0934
 4622W        W22146  16.453   4.999   2.950  0.0338  0.2451 -0.0093
 4623W        W22147  10.102  15.374   0.240  0.2761 -0.0867  0.3520
 4624W        W22148  13.686  17.044  12.437  0.0908  0.0024 -0.4694
 4625W        W22149   1.875   1.577   0.284  0.1001  0.0802 -0.4221
 4626W        W22150   0.074  14.599   3.957 -0.2487  0.3479  0.0547
 4627W        W22151   1.537  12.701  14.704 -0.2095 -0.0676 -0.1732
 4628W        W22152  12.237  13.825  11.246  0.0456  0.0612  0.0239
 4629W        W22153   1.288  10.851   4.337  0.2345  0.0925 -0.2204
 4630W        W22154  10.769  17.156  12.670 -0.0045 -0.1126  0.1205
 4631W        W22155   3.610   2.291  13.312  0.0811 -0.0273 -0.4484
 4632W        W22156  12.086  11.127  15.224 -0.0117  0.2088  0.1967
 4633W        W22157  17.916  13.850   3.258  0.1553  0.0628 -0.0458
 4634W        W22158   6.919   8.202  12.786  0.3451  0.2945 -0.1910
 4635W        W22159   3.891  17.410   0.803  0.0938  0.2047 -0.0074
 4636W        W22160   5.156  13.250   3.035  0.0394 -0.3185  0.1184
 4637W        W22161  15.204   7.481   2.243 -0.2591  0.0412 -0.4327
 4638W        W22162  17.517   4.833  12.817 -0.0273  0.1206  0.1338
 4639W        W22163  11.876  14.198   2.689  0.0970  0.0004 -0.2840
 4640W        W22164   3.792   3.047   0.622 -0.0313  0.2066  0.2588
 4641W        W22165  18.064  16.571  15.650 -0.0973 -0.0986 -0.4328
 4642W        W22166   8.495   7.693   2.612 -0.2943  0.3044 -0.0904
 4643W        W22167  11.866   4.745   2.342 -0.2400 -0.0120  0.2954
 4644W        W22168   5.385   1.053   0.583  0.1055  0.0407 -0.0181
 4645W        W22169   7.692   4.756   1.831 -0.3219  0.2759 -0.0689
 4646W        W22170  14.858   6.695  15.303 -0.2708 -0.2426  0.2544
 4647W        W22171   8.343  14.936  11.683 -0.3698  0.0409  0.2633
 4648W        W22172   2.036   9.141  15.350  0.0682  0.0891  0.0367
 4649W        W22173  13.731  16.079   2.572 -0.0132 -0.0211  0.0658
 4650W        W22174   4.085   8.586  10.460  0.0030  0.0095  0.0156
 4651W        W22175   4.519   0.128  14.942  0.0297 -0.2228 -0.3526
 4652W        W22176   1.481   4.921  11.108 -0.0448  0.1363 -0.0716
 4653W        W22177  13.455   8.640   0.890  0.3655 -0.5079  0.1777
 4654W        W22178  14.377  16.810   0.942 -0.2733  0.0057 -0.1030
 4655W        W22179   8.411   8.006   0.466  0.0600 -0.0854 -0.0862
 4656W        W22180   7.396   5.681  15.089  0.2946  0.1818  0.1256
 4657W        W22181   1.950   4.931  12.498  0.1936  0.0917 -0.1180
 4658W        W22182   5.766  12.846   2.169 -0.0547  0.0350 -0.0573
 4659W        W22183   2.961   6.274  11.846 -0.0578 -0.0117 -0.2996
 4660W        W22184  12.825   5.309   3.764 -0.2639 -0.1803 -0.1496
 4661W        W22185   4.087  12.268   2.399  0.0905  0.3524  0.0390
 4662W        W22186   0.144   4.349   0.867 -0.1287  0.1718 -0.0396
 4663W        W22187   1.935   1.901   0.823 -0.2478 -0.3284 -0.1829
 4664W        W22188  12.924   9.790   1.389  0.0773  0.1250 -0.2554
 4665W        W22189  17.457  16.609   1.357  0.3512 -0.2400  0.0287
 4666W        W22190   9.871   3.146   2.583  0.1236  0.0901  0.0770
 4667W        W22191   9.135  15.473  13.974 -0.0548 -0.1921  0.0551
 4668W        W22192  15.641   6.246   2.597  0.4029 -0.0531  0.0041
 4669W        W22193  12.204   9.133  14.589  0.2012  0.0521 -0.0473
 4670W        W22194   0.294   4.888  11.548  0.3663 -0.3062  0.0093
 4671W        W22195  15.868   7.589  14.826  0.0559 -0.1256  0.2681
 4672W        W22196   2.305  10.125   1.808  0.0555 -0.1599 -0.0676
 4673W        W22197   7.691  12.382  13.991 -0.1383 -0.1362 -0.1541
 4674W        W22198  10.739  13.762   0.420  0.0331 -0.1758  0.1252
 4675W        W22199  18.279   4.825   5.026 -0.1058  0.1941 -0.2116
 4676W        W22200   5.873   7.451  13.393  0.3425  0.2290  0.1619
 4677W        W22201   9.602   1.031   4.226 -0.0269 -0.0881  0.4152
 4678W        W22202  15.871  12.774   1.913 -0.0278  0.2596 -0.2101
 4679W        W22203   0.857  17.189   1.683 -0.3760  0.1128 -0.2629
 4680W        W22204   5.198   5.542  12.622  0.0825  0.3984 -0.0239
 4681W        W22205   4.404  18.292   0.185 -0.2968 -0.1433 -0.0995
 4682W        W22206   1.386  16.649   3.652 -0.1063 -0.0311  0.2727
 4683W        W22207   3.932   6.358   3.848  0.2147  0.1153  0.2070
 4684W        W22208   3.888   2.123  12.798  0.0282  0.0056  0.1259
 4685W        W22209   8.363   6.495  10.851 -0.0450 -0.1244 -0.1973
 4686W        W22210   0.819  11.227   1.097  0.0083 -0.2724 -0.0243
 4687W        W22211   9.434   2.083   2.718  0.0173 -0.2662  0.1935
 4688W        W22212   5.979   9.391   9.957 -0.1639  0.2709  0.1717
 4689W        W22213   2.620  15.147   5.179 -0.5685 -0.0169  0.1791
 4690W        W22214  16.974  13.119  11.567 -0.0422 -0.1033 -0.1921
 4691W        W22215  17.306   2.920  13.553  0.2434 -0.1262 -0.1077
 4692W        W22216  13.420   4.016   4.639 -0.1216  0.0969  0.1275
 4693W        W22217  11.411  11.173  12.543  0.2103 -0.1698  0.1015
 4694W        W22218   6.409   6.178   2.006 -0.2994  0.2591  0.2536
 4695W        W22219   0.540  12.676   2.919  0.6288  0.0012 -0.0967
 4696W        W22220  18.086   0.108  14.405  0.3383 -0.1007 -0.1800
 4697W        W22221  10.962   7.347  15.478  0.2390 -0.0066 -0.0971
 4698W        W22222  14.922   9.398   3.554 -0.1026 -0.0826  0.3167
 4699W        W22223   6.180   0.131  12.680  0.0572 -0.1825 -0.1092
 4700W        W22224   0.111  15.181  12.028  0.0069  0.2461 -0.0352
 4701W        W22225  16.479   1.528  11.515 -0.2694  0.0224 -0.0262
 4702W        W22226  13.819   5.250   0.102 -0.0796 -0.4451  0.1514
 4703W        W22227  13.595   7.504  15.276 -0.2558 -0.3993 -0.1642
 4704W        W22228  15.101  15.387  13.078 -0.1314 -0.0798  0.4143
 4705W        W22229  10.546  13.286   3.842 -0.1166  0.2047 -0.3425
 4706W        W22230  10.618  17.808   5.771  0.0240  0.1588  0.0422
 4707W        W22231   9.221  14.482  13.058  0.0511  0.4041 -0.0054
 4708W        W22232   7.617  16.143  12.186  0.3388 -0.3395 -0.0165
 4709W        W22233  12.475  13.861   5.088 -0.0892  0.1348 -0.1174
 4710W        W22234   5.767   5.386  15.711 -0.0500 -0.0620  0.3161
 4711W        W22235  18.023  13.760  12.278 -0.0331 -0.3712 -0.0136
 4712W        W22236  16.127   0.732   2.602 -0.2599  0.1658 -0.0394
 4713W        W22237  16.832   7.079   3.105  0.0420 -0.0157  0.1659
 4714W        W22238  14.506  12.297  14.009 -0.4013 -0.2055 -0.0799
 4715W        W22239   2.183  14.771   5.126 -0.1484 -0.0835  0.0432
 4716W        W22240   2.983   0.562   1.176 -0.0954  0.4307  0.1726
 4717W        W22241  11.799  14.249   5.266 -0.0397  0.1625  0.1399
 4718W        W22242  16.209   5.514   2.194 -0.0745  0.0998 -0.0993
 4719W        W22243  15.897  14.091   4.433 -0.0035 -0.1848 -0.1273
 4720W        W22244  17.023   4.323  12.137 -0.1356  0.0203 -0.0460
 4721W        W22245  16.116  13.812  13.356 -0.2158  0.1104  0.1660
 4722W        W22246  11.414   1.363   4.644 -0.2316  0.1080  0.1661
 4723W        W22247   3.239  16.519   0.244 -0.0533  0.1282  0.1767
 4724W        W22248   9.173   6.372   2.081  0.0574 -0.1513 -0.1091
 4725W        W22249   3.748   4.369   0.568  0.2685 -0.0094  0.2854
 4726W        W22250  10.071  11.290   3.746 -0.0692 -0.0565  0.1538
 4727W        W22251  17.253   5.137  12.035 -0.0954 -0.1329  0.3204
 4728W        W22252  16.101   4.253   2.456  0.0639  0.1166  0.0340
 4729W        W22253   8.325  15.279  13.783  0.1354 -0.2234  0.0398
 4730W        W22254   1.254  17.503   2.688  0.2536  0.4504 -0.2569
 4731W        W22255  14.849  15.352   3.751  0.0236  0.0955 -0.2040
 4732W        W22256  12.205   2.828   3.583  0.0281  0.3349  0.2849
 4733W        W22257  11.840   5.891   1.835  0.0178 -0.1427 -0.2610
 4734W        W22258   2.135   5.302   0.427 -0.0468 -0.4341  0.0140
 4735W        W22259   5.870   4.338  13.279  0.0707 -0.2861  0.0014
 4736W        W22260   8.655  17.222   3.426  0.0599  0.1571 -0.0310
 4737W        W22261  15.739   9.850   2.780  0.1752  0.3022  0.1186
 4738W        W22262   5.535  12.525   4.148  0.2066  0.0685  0.0080
 4739W        W22263   6.274  18.327   4.580 -0.0656  0.0858 -0.3059
 4740W        W22264   3.033  13.325  13.424  0.2914 -0.1235 -0.0419
 4741W        W22265  10.430   2.313  11.560  0.0212 -0.1621  0.1520
 4742W        W22266  13.294   9.729  15.093 -0.0095  0.0126 -0.2666
 4743W        W22267   4.051   9.446  11.718 -0.1020  0.0001  0.2002
 4744W        W22268  12.217   3.597  15.222 -0.1044 -0.2714 -0.3328
 4745W        W22269  13.869  14.158  14.082  0.3358 -0.0448  0.0253
 4746W        W22270   2.465   4.230   4.560 -0.2387  0.0283 -0.3390
 4747W        W22271  10.465   2.842   1.879  0.0894  0.0191  0.0941
 4748W        W22272   7.365   9.085   4.392  0.1873 -0.0438  0.0349
 4749W        W22273   7.404   6.262  10.871  0.1905  0.0332  0.3012
 4750W        W22274   8.776   5.835   3.541 -0.1548  0.0712 -0.1332
 4751W        W22275   7.052  15.001  13.395  0.2700 -0.0188  0.0663
 4752W        W22276   7.366   0.643   1.865  0.0158 -0.0218  0.1176
 4753W        W22277   9.391  13.359  13.690 -0.0850 -0.0105 -0.2236
 4754W        W22278   8.238  13.171   2.138 -0.0773  0.2968  0.1710
 4755W        W22279  17.439   3.801   2.405 -0.1460  0.0629 -0.1576
 4756W        W22280  14.860   2.986   1.959 -0.3050  0.0750  0.1475
 4757W        W22281   1.469  11.919  10.152  0.1549  0.1304  0.0386
 4758W        W22282   4.839  10.607   3.434  0.0708  0.0980 -0.0748
 4759W        W22283   6.063  15.943  12.723  0.3168 -0.1210  0.1339
 4760W        W22284  17.839   6.317  10.884  0.2265  0.1513  0.0846
 4761W        W22285  13.976   4.730  11.549  0.0467 -0.0105  0.1006
 4762W        W22286  10.216  10.165  13.586 -0.0124 -0.0412  0.4940
 4763W        W22287   9.516  11.040  12.403  0.0553 -0.1251  0.1194
 4764W        W22288  13.581   6.849  14.349 -0.0856  0.0717 -0.0514
 4765W        W22289  12.571   4.996   1.876 -0.3252 -0.0986 -0.4425
 4766W        W22290  15.216   4.327  13.463 -0.4057  0.1068  0.0441
 4767W        W22291  18.037  12.675  15.034 -0.1464 -0.2567  0.1444
 4768W        W22292  12.464  16.195  12.198 -0.2049  0.0265 -0.2422
 4769W        W22293   5.802   2.531  15.429  0.3415  0.3472  0.0930
 4770W        W22294  16.839   0.080  15.222 -0.2088 -0.1681 -0.4340
 4771W        W22295   2.984   7.730  15.604 -0.0438 -0.0001  0.0339
 4772W        W22296   0.505   2.118  14.033 -0.0134  0.0073  0.0053
 4773W        W22297  14.867   6.646  10.784 -0.2335  0.1318  0.1177
 4774W        W22298  18.155  12.921  10.902 -0.0535 -0.0135  0.1100
 4775W        W22299   1.466  14.378   4.646  0.0387 -0.1908  0.0521
 4776W        W22300   2.876   5.917  12.555 -0.4621  0.0649  0.3214
 4777W        W22301   6.868   5.479  15.722  0.0836 -0.0868  0.0230
 4778W        W22302  16.266   0.983  14.242  0.4520  0.2173 -0.2397
 4779W        W22303  14.722   0.510  13.897 -0.0983 -0.0139 -0.2468
 4780W        W22304   9.491   5.737   4.356 -0.1006 -0.1413 -0.1080
 4781W        W22305  13.995  18.160   0.563 -0.2270  0.0609  0.0390
 4782W        W22306   8.456   8.443  15.387 -0.1301 -0.0285 -0.1982
 4783W        W22307  13.434   8.160  13.387  0.0134 -0.0774  0.2018
 4784W        W22308   6.885  12.556   3.291 -0.2720  0.2899 -0.2537
 4785W        W22309  18.326   6.435  12.229 -0.0543  0.0569  0.0190
 4786W        W22310   1.018   3.662   0.829  0.0819 -0.1042  0.2811
 4787W        W22311  13.685  17.231   3.995 -0.0774  0.0671 -0.4308
 4788W        W22312   4.426   0.708   0.906 -0.2188  0.0357 -0.2420
 4789W        W22313  16.692  13.906  15.203 -0.0595 -0.0886 -0.0436
 4790W        W22314  15.484  15.501   4.353  0.0009  0.5055  0.3511
 4791W        W22315  16.895   7.900   1.472 -0.1002 -0.0806  0.1455
 4792W        W22316   3.040   4.122   5.727 -0.1349 -0.0274 -0.0254
 4793W        W22317  14.640  12.654   3.887 -0.1600  0.3622  0.1231
 4794W        W22318   7.846  13.308  12.898  0.1479 -0.1295  0.1939
 4795W        W22319   1.011  13.482  14.412 -0.0100 -0.1976 -0.3406
 4796W        W22320   0.527   7.294  15.363  0.2398  0.4143 -0.1120
 4797W        W22321  18.268   6.444   2.795 -0.2010 -0.0116  0.0691
 4798W        W22322   8.216  16.261  13.464 -0.0613 -0.1977  0.0682
 4799W        W22323   1.896  15.112  14.370 -0.0560  0.1510  0.0148
 4800W        W22324   2.228  17.660  11.564 -0.5502 -0.1039  0.1105
 4801W        W22325   6.049  16.370  12.337  0.0903 -0.1504  0.2144
 4802W        W22326   8.898  16.098   4.155  0.1902  0.0514 -0.2164
 4803W        W22327  10.580  10.860   1.840  0.0049  0.2008 -0.0458
 4804W        W22328   9.874  14.040  11.960 -0.1807 -0.0232  0.0747
 4805W        W22329  13.582   5.024  13.952 -0.0537 -0.0374 -0.1235
 4806W        W22330  15.101   9.110  13.893 -0.1006  0.0957  0.0522
 4807W        W22331   5.479   9.148   4.695  0.0837 -0.2329  0.0750
 4808W        W22332   2.879  15.253   2.773 -0.0254 -0.0301  0.0233
 4809W        W22333   1.867  14.408   0.045 -0.1261 -0.0528  0.1066
 4810W        W22334  13.854  12.389   1.731  0.1162 -0.3748  0.1701
 4811W        W22335   5.981  11.509   4.024 -0.2424  0.0940 -0.2743
 4812W        W22336  15.959  11.840  15.685  0.1258 -0.2620  0.0720
 4813W        W22337  11.661  12.434   3.667  0.2040  0.0082  0.1416
 4814W        W22338  15.937  17.799   2.749  0.0219  0.0373 -0.3549
 4815W        W22339  17.435   7.336   4.254 -0.1050 -0.2287 -0.2307
 4816W        W22340   0.588  17.830   2.350  0.0660 -0.1411  0.0011
 4817W        W22341  17.119   0.408   5.267 -0.1132  0.0688  0.0230
 4818W        W22342   1.734   1.671   5.279  0.0704  0.0679 -0.3652
 4819W        W22343  13.015   3.652  12.166 -0.5468  0.2081 -0.1368
 4820W        W22344  18.467  13.316   1.737 -0.0542 -0.1959  0.0528
 4821W        W22345   4.450   6.917   1.767 -0.0438 -0.2280 -0.2240
 4822W        W22346  10.523  13.482   5.206  0.0268 -0.1030 -0.0924
 4823W        W22347   2.297   8.469   3.530 -0.0834 -0.1719 -0.1229
 4824W        W22348  12.988   4.386   3.687 -0.1783  0.3143 -0.1055
 4825W        W22349  12.069  14.769  14.771  0.0394 -0.0718  0.0697
 4826W        W22350   2.435  18.475  14.189  0.1009 -0.0763 -0.1208
 4827W        W22351   1.326   8.314   2.207  0.1747 -0.1347 -0.0720
 4828W        W22352  10.175  15.689  15.139 -0.1449 -0.0007  0.1488
 4829W        W22353   3.412   0.863  14.507 -0.3569 -0.1333 -0.1199
 4830W        W22354  16.888  17.781  11.613 -0.4373 -0.1170 -0.2973
 4831W        W22355  17.795  11.373   2.550  0.0645 -0.1360 -0.1551
 4832W        W22356   8.719   8.163   3.710  0.1961  0.4564 -0.3302
 4833W        W22357   6.372   4.692  12.723  0.1954  0.0290 -0.0210
 4834W        W22358  11.455  16.075   4.063  0.1784  0.0686 -0.0070
 4835W        W22359  13.892   5.632   3.559 -0.0379  0.0013 -0.0842
 4836W        W22360   8.145  15.877   9.979  0.1003 -0.1424 -0.2477
 4837W        W22361  15.523   4.670   4.146 -0.0280 -0.0211  0.0364
 4838W        W22362  18.366  10.636   0.285 -0.0268 -0.2125  0.2047
 4839W        W22363   3.302   6.723   4.347 -0.1431 -0.0448 -0.0679
 4840W        W22364   4.359  12.689  12.433  0.1509 -0.0066 -0.1923
 4841W        W22365   7.077   3.582   1.187 -0.1954  0.0426  0.0332
 4842W        W22366   9.674   1.516   5.368 -0.1046  0.1712  0.1139
 4843W        W22367   5.947  12.186  13.090  0.0244  0.0925 -0.2385
 4844W        W22368  17.018  16.608  12.357 -0.0362 -0.2339  0.0773
 4845W        W22369  10.730   5.532   2.340 -0.1941  0.0012 -0.3534
 4846W        W22370  17.943   1.167   2.347  0.3777  0.1279  0.0879
 4847W        W22371   4.050  13.584  15.456 -0.1814 -0.0918 -0.0790
 4848W        W22372  15.005   1.989   1.859 -0.3717  0.2460  0.4241
 4849W        W22373  15.285   6.036   0.143  0.0650  0.1135  0.1309
 4850W        W22374   7.032  10.974   0.785  0.2130  0.0431 -0.1097
 4851W        W22375   5.196   0.757  15.307 -0.1424  0.1368 -0.1185
 4852W        W22376   6.965   9.071  14.087  0.0587 -0.1180 -0.2834
 4853W        W22377  14.908   7.291  14.735 -0.2947  0.2133  0.3190
 4854W        W22378  13.962   2.066   1.528  0.0765 -0.1967  0.1844
 4855W        W22379   1.441  18.285   4.418 -0.3740  0.2620  0.0672
 4856W        W22380  10.168  12.462  15.272  0.1142 -0.0665  0.2548
 4857W        W22381  13.601  16.673   4.066 -0.0826  0.3013  0.2552
 4858W        W22382  12.791   3.034  13.515  0.1328 -0.3766 -0.0961
 4859W        W22383  11.626   5.312  10.249 -0.0107 -0.0222 -0.1864
 4860W        W22384   0.718   6.317  15.702  0.2241 -0.1025  0.0859
 4861W        W22385  10.124  10.280   3.607 -0.3314  0.1351 -0.1355
 4862W        W22386   1.329   9.893   3.926  0.0835  0.0083 -0.0005
 4863W        W22387   1.208  10.295  11.973 -0.1762 -0.2327 -0.1980
 4864W        W22388   8.721  13.550  15.556 -0.0817  0.2911  0.0570
 4865W        W22389   2.063  16.868   2.685  0.0396 -0.0564  0.1808
 4866W        W22390   9.630   7.795   0.283 -0.1018  0.1221 -0.0157
 4867W        W22391   5.334  13.776   2.191 -0.1485 -0.0298  0.0763
 4868W        W22392   5.926   3.085  14.086 -0.0655  0.0569  0.0230
 4869W        W22393  12.991  12.451   3.939 -0.1537  0.3572  0.0229
 4870W        W22394  11.671   4.968   4.217 -0.1202  0.0693 -0.1971
 4871W        W22395  10.137   1.117   1.677 -0.3782 -0.1717 -0.1203
 4872W        W22396   8.817  13.306  15.070 -0.0649 -0.1863 -0.2975
 4873W        W22397   1.988   2.864  14.199  0.2546  0.3118 -0.0372
 4874W        W22398   2.827   7.490   3.130  0.1138  0.1639 -0.1236
 4875W        W22399  13.460   8.636  13.624 -0.0142  0.0049 -0.1702
 4876W        W22400   0.845   6.354   1.831  0.1155 -0.0977  0.0943
 4877W        W22401  15.880  14.565  10.702 -0.1629 -0.0517 -0.1500
 4878W        W22402   0.064  14.380  13.726 -0.1116  0.0515  0.0093
 4879W        W22403   3.976  18.280  15.625 -0.2432  0.1670 -0.1236
 4880W        W22404  11.360  11.250   3.154  0.1045  0.0423 -0.1082
 4881W        W22405  17.998  16.316   1.873  0.1844  0.0645  0.1153
 4882W        W22406  10.338  13.664  15.669  0.1356  0.1209  0.1079
 4883W        W22407   0.177   0.666   3.796 -0.1223 -0.0821 -0.1592
 4884W        W22408  14.021  16.900  14.215  0.1878 -0.1138 -0.2340
 4885W        W22409   6.348   4.183  15.306  0.4883 -0.0902  0.2345
 4886W        W22410   2.197  11.908  14.750 -0.0492  0.3650  0.1127
 4887W        W22411   7.657   9.708   5.097 -0.2487  0.1788  0.0101
 4888W        W22412   6.930  14.960  14.997  0.0179 -0.0677 -0.2314
 4889W        W22413   2.195  16.042  13.720  0.1314  0.2973  0.0983
 4890W        W22414  14.300  11.756  13.635  0.1051 -0.3339  0.0917
 4891W        W22415   2.992   3.787   3.270 -0.3324 -0.0350  0.1088
 4892W        W22416   1.421  11.979   3.125 -0.2589 -0.3680 -0.0888
 4893W        W22417   5.731   3.505   3.112  0.1385 -0.1101 -0.0926
 4894W        W22418   6.047   5.228  10.196  0.2099  0.2673 -0.3954
 4895W        W22419  11.477  10.163   3.935  0.3252  0.1669  0.1473
 4896W        W22420   1.593  16.958  14.627  0.0294 -0.0343  0.0305
 4897W        W22421  17.976   5.219   1.232  0.2448 -0.2926  0.0129
 4898W        W22422  11.148   5.075  10.988 -0.0957 -0.3465 -0.1843
 4899W        W22423  12.822   9.725   2.102  0.1508  0.4436  0.3147
 4900W        W22424  12.452   2.758   0.922 -0.1401  0.3914 -0.0753
 4901W        W22425   6.065   8.348   2.631 -0.0011 -0.0887 -0.4966
 4902W        W22426   1.931  13.166   0.730  0.0132  0.0382  0.1865
 4903W        W22427   5.203  17.884   3.522  0.1101 -0.0003 -0.2292
 4904W        W22428  14.914  17.228   3.856  0.0593 -0.1936  0.0211
 4905W        W22429  17.739  12.003  12.781  0.0036 -0.2920 -0.0596
 4906W        W22430  16.859   1.086   3.160  0.2805 -0.2101  0.1818
 4907W        W22431   5.326   7.761   5.157  0.4037  0.3600  0.2204
 4908W        W22432   7.585   9.548   1.274  0.0671  0.0473  0.0013
 4909W        W22433  18.448  10.811   3.791 -0.0243 -0.0361 -0.2388
 4910W        W22434  14.060  16.684  10.652  0.0755 -0.0871  0.2564
 4911W        W22435   1.390  16.465   0.577 -0.2817  0.0742 -0.1643
 4912W        W22436   3.911   9.538  12.209 -0.0251  0.0653 -0.1292
 4913W        W22437   0.464  13.207   1.890 -0.0202 -0.1786 -0.3626
 4914W        W22438   2.256  14.745   9.887  0.0409  0.0250 -0.2005
 4915W        W22439  16.076   2.889   0.780 -0.5269  0.2101 -0.4969
 4916W        W22440  11.470  15.593   4.071  0.0256  0.2288  0.1316
 4917W        W22441  11.627  16.050  11.290 -0.2904  0.1611  0.0129
 4918W        W22442  15.232   5.956   2.510 -0.2232 -0.0440  0.0163
 4919W        W22443   2.474   5.719  12.881 -0.3335 -0.1282 -0.2128
 4920W        W22444  13.636   2.290  12.075 -0.0444  0.0500  0.1054
 4921W        W22445  13.660   1.074   0.329 -0.2517 -0.1635 -0.2995
 4922W        W22446   8.171   6.997  13.104  0.2766  0.1787 -0.1300
 4923W        W22447  12.722  17.956  12.625  0.0245  0.0302 -0.1458
 4924W        W22448  12.430   8.644   0.598 -0.1915  0.2367  0.0502
 4925W        W22449   4.234  16.329  14.403 -0.1780  0.0008  0.1377
 4926W        W22450   0.974  11.281   0.085 -0.1824  0.0583  0.0476
 4927W        W22451   3.266   0.592   2.497 -0.0791 -0.1482  0.1895
 4928W        W22452  11.105  15.454   3.624 -0.0107  0.1652 -0.3520
 4929W        W22453   1.163  14.491  13.688 -0.2237  0.2712 -0.0540
 4930W        W22454  12.813   5.842   3.651  0.1494 -0.0790  0.0904
 4931W        W22455  13.893   6.918   5.554 -0.0868 -0.1875  0.1421
 4932W        W22456   0.814  12.093  11.830  0.0832 -0.2037 -0.0480
 4933W        W22457  14.483  12.999   1.292 -0.0576  0.0985  0.0529
 4934W        W22458  13.936  16.803   2.867 -0.2192 -0.0946 -0.0495
 4935W        W22459   9.228  15.376   0.133 -0.2253 -0.1551  0.1839
 4936W        W22460   0.209  13.462  13.473  0.1562 -0.0703 -0.1315
 4937W        W22461   7.777   3.791   0.460  0.0669 -0.2078  0.2538
 4938W        W22462   7.029   4.365  14.225 -0.2485 -0.0954 -0.2873
 4939W        W22463  14.630  15.737  15.575 -0.2468  0.0548  0.0888
 4940W        W22464  16.635   7.409  12.624 -0.0625 -0.1019 -0.3416
 4941W        W22465   1.495   9.481   5.036  0.2028 -0.0338 -0.0099
 4942W        W22466  15.475  14.561  11.881 -0.0496  0.0179 -0.1999
 4943W        W22467   3.084   8.092  12.595 -0.3994 -0.0342  0.0287
 4944W        W22468  17.902  10.762   4.089  0.0108 -0.5878 -0.1420
 4945W        W22469   3.845  11.307   3.078 -0.4306  0.1859  0.1947
 4946W        W22470   6.704   7.214  11.136  0.1749 -0.0579 -0.0055
 4947W        W22471  16.763   8.488   4.571  0.2682  0.1628 -0.1631
 4948W        W22472   9.580  16.222  13.770  0.0877 -0.0162 -0.3766
 4949W        W22473   2.165  10.640   1.954  0.0119 -0.0993 -0.1858
 4950W        W22474  11.883   2.313  15.565 -0.1242  0.1035 -0.0737
 4951W        W22475  15.041   1.732  15.044  0.1436 -0.2769 -0.0116
 4952W        W22476  16.661  13.452  10.667 -0.2430  0.0208 -0.3697
 4953W        W22477   0.738  15.716   0.619 -0.0247 -0.0847 -0.1432
 4954W        W22478   8.535  17.055  15.196 -0.1162 -0.0073  0.0751
 4955W        W22479   6.553  17.628   0.894 -0.2264 -0.0373  0.3055
 4956W        W22480  13.653  16.155  13.765 -0.0767  0.0213 -0.4068
 4957W        W22481  14.805   5.304   4.366  0.1567  0.0189  0.0040
 4958W        W22482   5.652   9.650  13.093  0.0511  0.0282  0.0426
 4959W        W22483   1.988   6.114  12.965 -0.0440 -0.0227 -0.1694
 4960W        W22484  16.572   3.530  11.572 -0.2208  0.1854 -0.2361
 4961W        W22485   6.526  11.578  11.966 -0.0229  0.1209 -0.1110
 4962W        W22486  13.308   1.647  11.337  0.1282 -0.0284  0.1273
 4963W        W22487   4.770  15.170  13.174  0.1840  0.1254 -0.3753
 4964W        W22488   8.658   5.726  15.675 -0.0994  0.1613 -0.1828
 4965W        W22489  16.424  15.873  12.573 -0.1027  0.0011 -0.1912
 4966W        W22490  15.562   9.041  15.638 -0.3332 -0.2036 -0.0494
 4967W        W22491   4.600  18.396  13.382  0.0843  0.2479  0.3571
 4968W        W22492   5.191   9.841  14.916 -0.2045 -0.0890  0.2147
 4969W        W22493   9.619   7.352   3.124 -0.2162  0.3219 -0.2573
 4970W        W22494   3.845   5.154  15.092  0.4918  0.1511 -0.0054
 4971W        W22495   9.096   7.086  10.882  0.3917  0.2258  0.3333
 4972W        W22496   9.502   1.857   1.643  0.1112  0.0150 -0.1168
 4973W        W22497  13.668  14.282   1.276  0.0375 -0.1572 -0.1977
 4974W        W22498   8.257   2.136   4.679  0.3265  0.1401 -0.1692
 4975W        W22499   1.175  16.475   1.078  0.0875  0.3547  0.0658
 4976W        W22500  10.126  15.450   1.259 -0.1921 -0.1827 -0.1824
 4977W        W22501  12.984   9.083   4.216  0.0997 -0.0133  0.0581
 4978W        W22502  15.422   2.103  12.298 -0.0820  0.1046  0.2299
 4979W        W22503  13.604   8.071   0.243 -0.1894  0.0446 -0.0400
 4980W        W22504  17.482   7.370   1.932 -0.1742 -0.0137  0.0687
 4981W        W22505   2.639  14.175   0.374 -0.1497  0.2254 -0.2522
 4982W        W22506  17.365   8.755   0.151 -0.3425 -0.2479 -0.1283
 4983W        W22507  12.529   2.943  13.963  0.1007 -0.0522  0.1355
 4984W        W22508  11.813  12.980   4.666  0.1002 -0.1341 -0.3559
 4985W        W22509  11.105  14.931   3.158  0.0446 -0.0374 -0.0996
 4986W        W22510  14.357  13.544  15.517 -0.0879  0.2391 -0.0709
 4987W        W22511  18.433   5.081   1.357 -0.2951  0.0641 -0.1967
 4988W        W22512   6.589  13.756  15.015  0.0263 -0.1458  0.2138
 4989W        W22513   1.805   2.462   0.675  0.0328  0.1796  0.1851
 4990W        W22514   3.322   5.187  11.111 -0.4022  0.1877  0.1396
 4991W        W22515   9.545  16.900  13.204 -0.0102 -0.0020 -0.4399
 4992W        W22516   5.316   6.863   0.876  0.1803 -0.1765 -0.2751
 4993W        W22517  12.324  12.708  11.360 -0.2389 -0.0767 -0.1707
 4994W        W22518   4.379   8.036   3.410 -0.0132 -0.0227 -0.0416
 4995W        W22519  10.570  15.051   2.726 -0.1746  0.1334 -0.0968
 4996W        W22520  13.840  16.216   4.062 -0.1723  0.0068 -0.0665
 4997W        W22521  13.991  12.559  11.369 -0.3331 -0.0677 -0.0750
 4998W        W22522  14.229  10.821  10.959  0.5363 -0.1555  0.0274
 4999W        W22523  14.836   0.543  11.430 -0.2224 -0.2205  0.0523
 5000W        W22524   9.309  14.118  13.379 -0.0680 -0.0503 -0.0680
 5001W        W22525   9.130  17.947  14.497 -0.2698  0.0570  0.1936
 5002W        W22526  11.387  13.741   2.100  0.0971 -0.0304  0.2805
 5003W        W22527  13.835   0.760  10.606  0.0938 -0.2346 -0.0228
 5004W        W22528   1.060   3.401   4.792  0.4702 -0.0742 -0.3524
 5005W        W22529   6.298   9.338  13.927 -0.0371  0.1247  0.2975
 5006W        W22530  15.453   5.634  12.340  0.0687 -0.0219 -0.0202
 5007W        W22531   5.469  17.248   1.287  0.3503 -0.4672 -0.2750
 5008W        W22532   2.536  13.993  11.558 -0.5118 -0.2445  0.3634
 5009W        W22533   2.331  11.243  11.143  0.0089 -0.0154 -0.4039
 5010W        W22534   1.869   1.790  11.888 -0.1283  0.0970 -0.1202
 5011W        W22535  10.717   3.716   2.231 -0.0392 -0.3882  0.0930
 5012W        W22536   3.517   2.994  11.720 -0.3634  0.2382  0.0599
 5013W        W22537   1.559  16.121  12.486 -0.2951  0.0741 -0.0344
 5014W        W22538  11.002   4.803  13.322 -0.1654  0.1082  0.0098
 5015W        W22539  18.104   1.008   1.290 -0.0937  0.2026  0.0025
 5016W        W22540  16.303  18.390  15.034 -0.0568  0.2034 -0.0058
 5017W        W22541   7.193   4.579   1.905  0.0844  0.1912  0.1268
 5018W        W22542   7.414  11.201  15.481 -0.0964 -0.2919 -0.1013
 5019W        W22543  14.412  10.058  15.132  0.3099 -0.3807  0.1868
 5020W        W22544   0.774  16.390  13.614  0.0502 -0.1384 -0.2233
 5021W        W22545  17.363  15.425  14.319 -0.1635  0.0634 -0.3006
 5022W        W22546  12.808  10.483  14.274 -0.0517 -0.0392  0.1254
 5023W        W22547   1.638  12.253   4.158 -0.1986  0.0614 -0.0024
 5024W        W22548  10.797   3.505   3.009  0.3457 -0.1203 -0.0233
 5025W        W22549   5.098  15.800   3.354  0.1024  0.0916 -0.2196
 5026W        W22550   8.087  18.348   4.378 -0.0128  0.1698  0.2025
 5027W        W22551  18.160  14.055   4.915 -0.0905  0.1324  0.2499
 5028W        W22552   6.083   5.556  11.879 -0.4627  0.1073  0.0835
 5029W        W22553  12.178   5.352   3.104  0.0510  0.0610  0.1546
 5030W        W22554   1.810   8.156  10.717 -0.0804  0.1309  0.1047
 5031W        W22555   6.593   8.376   5.409 -0.1584 -0.0329 -0.3037
 5032W        W22556   8.387  11.051   2.303  0.1182  0.0373 -0.2224
 5033W        W22557   8.942   9.087  14.311 -0.1425 -0.0170  0.1842
 5034W        W22558  12.347  11.182   4.323  0.0095 -0.0870 -0.1064
 5035W        W22559  18.081   3.647  11.137  0.0135 -0.0723 -0.0880
 5036W        W22560   6.118  15.541  14.660  0.0819  0.2495 -0.4057
 5037W        W22561  16.541   7.423   4.037 -0.0805 -0.1419 -0.2268
 5038W        W22562   0.354   9.108  14.574  0.2865  0.1672  0.2545
 5039W        W22563  18.380   3.083   1.052 -0.0625 -0.0536 -0.1814
 5040W        W22564   4.910  18.202   0.548  0.1141  0.0664  0.3417
 5041W        W22565  16.120  16.383  15.330 -0.1579  0.0526 -0.0889
 5042W        W22566   1.795   3.445   0.135  0.0399  0.2753  0.2754
 5043W        W22567  14.801   4.076  15.157 -0.1378 -0.0171 -0.3436
 5044W        W22568   9.061   5.181  15.013  0.0281  0.6206  0.3712
 5045W        W22569   5.500  15.043   3.596  0.3568 -0.0867  0.1536
 5046W        W22570   5.806   6.742   0.707  0.0438 -0.4367 -0.0011
 5047W        W22571   7.367   3.439  13.133 -0.3058  0.2762 -0.2038
 5048W        W22572   0.563   3.116  12.366  0.1843  0.2198 -0.0762
 5049W        W22573   2.030   2.725   2.779  0.0813 -0.0541  0.2188
 5050W        W22574  12.638  12.697   3.654  0.1889  0.3930 -0.4242
 5051W        W22575  13.874  17.557  15.234 -0.0066  0.0413 -0.1936
 5052W        W22576   7.223  10.996   4.210  0.1949  0.0366 -0.1848
 5053W        W22577   8.182  15.137  14.716 -0.2399 -0.1356 -0.2043
 5054W        W22578  17.615  17.842   0.401  0.1605 -0.1001  0.0666
 5055W        W22579  15.244   1.364  15.488 -0.0303  0.1351  0.2433
 5056W        W22580  17.321  11.100  10.702  0.1393  0.1309 -0.1042
 5057W        W22581   6.921   7.336  11.591  0.0983 -0.0854  0.1538
 5058W        W22582  16.262   2.580  12.589 -0.0043  0.0062 -0.0377
 5059W        W22583  11.307  10.696  12.644 -0.3577  0.5660 -0.0541
 5060W        W22584   5.256  10.121  15.330 -0.0608 -0.1709  0.2349
 5061W        W22585   0.375   8.566   1.587  0.2221 -0.3417  0.1806
 5062W        W22586   1.641   9.439  15.419  0.1211 -0.0925 -0.4328
 5063W        W22587  12.858  10.830  13.195 -0.1182  0.0504  0.0522
 5064W        W22588  18.074   2.292  14.488 -0.3324 -0.2458  0.3185
 5065W        W22589  11.368   0.684   2.023 -0.0415  0.0724 -0.0377
 5066W        W22590   6.322   4.231   4.583  0.1159  0.0061 -0.3460
 5067W        W22591  11.070   7.341  11.682  0.0560 -0.2211 -0.4705
 5068W        W22592  10.042   7.158  11.430 -0.1926  0.3635 -0.0508
 5069W        W22593   3.269   8.599   0.974 -0.1920 -0.1648  0.1651
 5070W        W22594   3.427  14.066   1.953 -0.1841  0.1912  0.1337
 5071W        W22595  14.161   6.666  13.644 -0.2537  0.0747 -0.0241
 5072W        W22596   8.170  18.023   3.953  0.0918  0.1579 -0.0502
 5073W        W22597   1.452  18.446  14.838 -0.2676  0.1064 -0.1068
 5074W        W22598   4.661   2.487  14.869  0.0739  0.0881  0.2618
 5075W        W22599   3.236  10.213  14.783 -0.2122  0.1554 -0.0512
 5076W        W22600  11.866   9.865   2.904  0.1410  0.1735  0.0658
 5077W        W22601   1.611   6.931  13.384  0.0758  0.0001 -0.2948
 5078W        W22602  10.761   6.533  14.122  0.2296  0.2125  0.2239
 5079W        W22603   3.828  11.125  14.730 -0.0295 -0.1597 -0.0518
 5080W        W22604   0.941   4.022  13.224 -0.1892  0.0723 -0.3523
 5081W        W22605  11.238   4.291   0.592  0.2376  0.0888  0.2875
 5082W        W22606  14.561  12.084   0.066 -0.0967 -0.0666 -0.0010
 5083W        W22607  12.589  11.732   0.265  0.2852 -0.2276  0.1864
 5084W        W22608  18.303   5.425  15.200  0.0519 -0.2171  0.0901
 5085W        W22609   2.032   0.855  12.038  0.1044  0.1742 -0.0183
 5086W        W22610   0.168  13.803  14.422  0.0213 -0.0328 -0.0044
 5087W        W22611  11.475   1.521  10.215 -0.3180  0.2172  0.0478
 5088W        W22612   4.055   6.730  11.137 -0.2497 -0.2281  0.1213
 5089W        W22613  12.857  13.134  12.515  0.0881 -0.0051  0.1590
 5090W        W22614   5.564   9.290  12.520  0.0878  0.1836  0.1087
 5091W        W22615   8.514  14.105   2.379  0.3799 -0.2128 -0.1292
 5092W        W22616   6.411  10.258  15.695 -0.4588  0.0137  0.3340
 5093W        W22617   3.466   2.267   3.240 -0.0570 -0.3737  0.1790
 5094W        W22618  16.823  10.108  12.070 -0.0185 -0.0518 -0.3873
 5095W        W22619  12.995  10.035   0.072 -0.0735  0.1322  0.0599
 5096W        W22620  14.829   8.572   1.542 -0.1006 -0.0574 -0.1865
 5097W        W22621  16.285   0.210  11.422 -0.0947 -0.0490 -0.0075
 5098W        W22622  14.107  11.406  10.526  0.2569  0.0808 -0.0616
 5099W        W22623   1.804  13.256   2.759 -0.2249  0.1609  0.0065
 5100W        W22624  15.682  18.359   5.996  0.0567 -0.0136  0.2398
 5101W        W22625  12.348   1.969  15.500  0.0104 -0.1000 -0.3200
 5102W        W22626  16.185  15.115   3.910  0.0688  0.0189 -0.1717
 5103W        W22627   5.071   8.947  11.055  0.1452  0.1531 -0.0355
 5104W        W22628   9.513   9.626   2.695 -0.0123  0.2117 -0.2449
 5105W        W22629  10.177   5.748   1.676 -0.0132  0.1938  0.4723
 5106W        W22630  15.467  15.219  15.400  0.1785  0.2630 -0.2518
 5107W        W22631   6.647  16.305  13.976  0.2327  0.1149  0.2328
 5108W        W22632  10.878   0.167   4.746  0.0973  0.3263 -0.1606
 5109W        W22633  16.681   3.004  12.787 -0.0189 -0.0236 -0.2385
 5110W        W22634   0.797   1.603  13.253  0.2087 -0.1547  0.0485
 5111W        W22635  18.234   4.490   1.843  0.3139 -0.1312 -0.1201
 5112W        W22636   8.704  14.456   0.768 -0.1522  0.0973  0.2819
 5113W        W22637  13.043   1.403  13.182 -0.1097  0.3039  0.1631
 5114W        W22638   0.495   4.473  14.184 -0.2819  0.2643  0.0874
 5115W        W22639  16.704  11.440  11.494 -0.0756  0.0800  0.2523
 5116W        W22640   9.761  13.488   4.507  0.3390  0.2346 -0.0168
 5117W        W22641   8.418   2.216  14.650  0.0967  0.2181  0.2018
 5118W        W22642   5.053  11.384   4.345  0.1244 -0.0732 -0.0485
 5119W        W22643  15.602  10.147   3.818  0.0747 -0.1445  0.0452
 5120W        W22644   0.922   2.040  11.061 -0.3567 -0.0949 -0.1951
 5121W        W22645   3.760  10.896   1.911 -0.1088 -0.0329  0.0205
 5122W        W22646  18.401   9.828   0.606  0.1175  0.1754  0.1927
 5123W        W22647   4.216  16.530   0.313  0.1907  0.0372  0.3289
 5124W        W22648   9.015  12.564  15.498 -0.0562 -0.1239 -0.0341
 5125W        W22649  13.641  16.776  15.120 -0.0840 -0.2208  0.1987
 5126W        W22650  10.035   5.631  12.882  0.3247 -0.1146 -0.1300
 5127W        W22651  16.037   6.688  12.521  0.0603  0.2464 -0.0027
 5128W        W22652  11.486   7.508   2.515  0.2693 -0.1661 -0.0991
 5129W        W22653  15.867   4.308   0.755  0.1721  0.0776  0.1909
 5130W        W22654  17.959   2.687   2.910  0.1761 -0.0307  0.0290
 5131W        W22655  14.168   0.288  14.683 -0.1942 -0.2126 -0.0185
 5132W        W22656  12.023   2.714   2.229 -0.0590  0.0874 -0.3205
 5133W        W22657   6.962  14.125  10.497 -0.1927 -0.1547  0.1249
 5134W        W22658   7.411  13.910  15.166  0.3557 -0.1601 -0.0772
 5135W        W22659  16.308  12.669   4.768  0.0155 -0.0467 -0.1737
 5136W        W22660  13.019   5.605   1.361 -0.2378  0.0585 -0.1177
 5137W        W22661  15.106  13.690   1.348  0.1178  0.0035 -0.0295
 5138W        W22662  13.274  10.054  14.265  0.2374 -0.0436 -0.1448
 5139W        W22663  17.347   0.674   3.973 -0.0222  0.2950  0.1014
 5140W        W22664   2.188   1.525   4.139  0.0564 -0.4058 -0.0029
 5141W        W22665  17.232   5.521  11.368  0.0748  0.0660  0.1092
 5142W        W22666   3.951   7.466   2.249  0.1405  0.2464 -0.1529
 5143W        W22667   6.527  10.602   4.193 -0.3221 -0.2760 -0.1750
 5144W        W22668  14.065   0.223   5.155 -0.5514 -0.2046 -0.1414
 5145W        W22669   2.595  13.766  15.396 -0.2697 -0.2104  0.1215
 5146W        W22670  17.692   9.746   1.186  0.1150 -0.0284 -0.2229
 5147W        W22671   0.630   2.848  11.965  0.0741  0.0088 -0.1156
 5148W        W22672   6.880   2.813  13.041  0.0262 -0.0484  0.1228
 5149W        W22673  10.025  16.716  13.062  0.2120  0.0653 -0.0852
 5150W        W22674   4.313  14.861   1.634 -0.1060 -0.0559  0.4077
 5151W        W22675  15.533  16.412  10.492 -0.4326 -0.4850 -0.1480
 5152W        W22676  12.608   5.732  14.632 -0.1521  0.2074 -0.1421
 5153W        W22677   7.757  12.312  12.000 -0.2965 -0.2071  0.0284
 5154W        W22678   1.508   0.621  13.246 -0.0286  0.0957 -0.0677
 5155W        W22679   7.693   8.837  15.153  0.2113 -0.1969  0.1839
 5156W        W22680   2.951   3.698   0.777 -0.1649  0.0493  0.4829
 5157W        W22681  12.473   4.161  14.413 -0.3203 -0.1265  0.2549
 5158W        W22682  11.888   0.248   4.002  0.0117  0.0979 -0.2955
 5159W        W22683   6.455  13.151   2.123  0.2552  0.3643 -0.1032
 5160W        W22684  16.035   2.976  11.290  0.2257  0.0926  0.0288
 5161W        W22685   5.337  10.978   1.168 -0.0439  0.1384 -0.1433
 5162W        W22686  16.839   9.432  13.371 -0.1208  0.3985 -0.0683
 5163W        W22687  16.068  12.267  13.813 -0.0063  0.0211  0.3932
 5164W        W22688   4.798   2.250  11.322 -0.0173  0.1363  0.1694
 5165W        W22689   3.720   3.177   3.713 -0.2484  0.2951 -0.0742
 5166W        W22690   2.147   2.484   3.774 -0.1763  0.0412  0.0321
 5167W        W22691  14.012   0.654   3.611 -0.1372 -0.2251 -0.0414
 5168W        W22692   6.016  12.455   2.385  0.1017 -0.0878  0.5749
 5169W        W22693   6.402  10.996  14.313 -0.2076 -0.0991  0.4138
 5170W        W22694   5.640  11.079  12.673 -0.2523  0.1197 -0.0676
 5171W        W22695  10.695   1.080  11.911  0.1357 -0.1846 -0.2125
 5172W        W22696  16.910  16.267  15.077 -0.0224  0.1172  0.0921
 5173W        W22697   5.012  15.027   2.871  0.4308  0.0328  0.0325
 5174W        W22698   4.715   6.687  11.920  0.0753  0.1142  0.3575
 5175W        W22699   1.878   3.500  11.015  0.1564 -0.0944  0.0871
 5176W        W22700   1.446   6.828   4.276 -0.0118  0.2529  0.2801
 5177W        W22701  13.338  18.193   4.372  0.3038  0.0016  0.1914
 5178W        W22702   2.059   3.719   0.566  0.1455 -0.0272  0.1002
 5179W        W22703  18.355   5.192  10.952 -0.0247 -0.0663 -0.1847
 5180W        W22704  13.508   2.948  14.160 -0.0742  0.2373  0.1134
 5181W        W22705  13.660  10.654  14.814 -0.2442 -0.0729 -0.2215
 5182W        W22706  12.871   8.247   0.374  0.2382  0.0380  0.6623
 5183W        W22707   0.710  12.121   1.972 -0.1827 -0.3597 -0.1077
 5184W        W22708   1.384  10.592   2.284 -0.0764  0.1738 -0.1781
 5185W        W22709   9.177  13.293  12.799 -0.0404  0.0654  0.2432
 5186W        W22710  15.625   5.911  15.352  0.1667 -0.1649  0.0049
 5187W        W22711   2.962   8.169  14.571 -0.1628 -0.1913  0.2988
 5188W        W22712   2.809  14.778   3.110  0.2857  0.0610  0.1421
 5189W        W22713   8.810   4.057   4.295 -0.3286  0.1620  0.0821
 5190W        W22714  13.738  13.300   0.730  0.2127 -0.2837 -0.0734
 5191W        W22715  12.716   6.475   0.846 -0.2693  0.0370  0.0788
 5192W        W22716  15.101  16.011   2.489 -0.0439 -0.1735 -0.0772
 5193W        W22717  14.935   7.835   0.030  0.1040 -0.3717  0.0919
 5194W        W22718  17.309  13.119   2.915  0.3129 -0.2421  0.0980
 5195W        W22719  14.464   1.996  11.950  0.2627 -0.1798  0.1152
 5196W        W22720   9.676   7.266  14.755 -0.4218 -0.3448  0.0209
 5197W        W22721   0.328  16.615   2.268 -0.2875 -0.4024  0.0610
 5198W        W22722  16.451   5.291  14.703  0.1525  0.0427  0.0552
 5199W        W22723   1.983   5.656  12.820  0.1311  0.2707  0.2394
 5200W        W22724   0.076  13.013   5.307 -0.0685 -0.0248 -0.2269
 5201W        W22725   4.356   1.311   4.390  0.2876  0.0144 -0.3284
 5202W        W22726   9.565  12.421   0.857 -0.2546 -0.2781 -0.1230
 5203W        W22727  12.989  16.304   5.229  0.0196  0.2059 -0.1778
 5204W        W22728  16.857   6.371   4.088 -0.1468  0.1165  0.0711
 5205W        W22729  13.082  10.216  13.831 -0.1645  0.1593  0.0948
 5206W        W22730   9.330  16.720  15.013  0.0827  0.2641 -0.3404
 5207W        W22731   3.970   4.471   2.675  0.2946 -0.3149 -0.2113
 5208W        W22732  15.775   0.522  13.650 -0.0142 -0.0828 -0.0190
 5209W        W22733  15.211  18.158   0.960  0.0965 -0.0329 -0.1108
 5210W        W22734   2.975   6.536   2.991  0.0219  0.0278 -0.1383
 5211W        W22735  15.473   9.495  14.325  0.0759 -0.0144 -0.1599
 5212W        W22736  13.915   7.795   4.551  0.3593 -0.0623  0.3058
 5213W        W22737  16.940  17.222   0.279  0.0044 -0.0515  0.3320
 5214W        W22738  12.235   6.814  14.024  0.2801 -0.3032 -0.2401
 5215W        W22739  11.115  17.577  13.421 -0.2398 -0.2827  0.1664
 5216W        W22740  17.696  14.918  11.406 -0.0868 -0.0647  0.1713
 5217W        W22741  14.946  15.684  15.048 -0.0756  0.1600  0.0456
 5218W        W22742  17.984  16.038   0.101 -0.2307 -0.0293  0.0781
 5219W        W22743   8.272   1.943   1.981 -0.1067 -0.3232  0.0266
 5220W        W22744   5.155  17.271   2.724 -0.1276  0.1892  0.2935
 5221W        W22745   7.105  13.532  13.999  0.1670  0.1755 -0.0748
 5222W        W22746   0.405   1.022   2.659  0.1039  0.3858 -0.1277
 5223W        W22747  14.493   3.544   1.038  0.1670 -0.2576  0.0791
 5224W        W22748  14.270   6.741  12.849 -0.1692  0.0747 -0.1801
 5225W        W22749   9.494   5.135   3.680  0.0356  0.2489  0.0641
 5226W        W22750  14.382   0.169   3.923  0.2204  0.0404 -0.0858
 5227W        W22751   7.671  16.708   3.351  0.1232  0.1503 -0.2581
 5228W        W22752   9.869  13.464  13.883  0.0039 -0.0642 -0.1862
 5229W        W22753  15.704   9.535   6.039 -0.1075  0.0509  0.1234
 5230W        W22754   8.530  16.527   2.832 -0.1347 -0.0810  0.0696
 5231W        W22755   9.283   3.460   0.951 -0.0485 -0.2228  0.0784
 5232W        W22756   9.830  16.428   2.180  0.1593  0.1355  0.0233
 5233W        W22757  16.174   8.675   2.364 -0.0230  0.0603  0.1431
 5234W        W22758   5.431   7.499   4.235  0.4740 -0.4786 -0.0807
 5235W        W22759  13.106  12.308  14.138 -0.2686 -0.1114 -0.1044
 5236W        W22760   2.562  17.976   2.279  0.0933 -0.2107  0.1190
 5237W        W22761   9.216   1.591  14.476 -0.1270 -0.1046 -0.0072
 5238W        W22762  14.860  14.568   1.586  0.1682 -0.1295 -0.0627
 5239W        W22763   9.642   8.073  13.755 -0.1300  0.1763  0.0919
 5240W        W22764   9.098   7.404   4.253  0.0695 -0.1351  0.0738
 5241W        W22765  16.502  11.344  12.608  0.3463 -0.2223 -0.0980
 5242W        W22766  10.119   4.731   0.846 -0.2844  0.2896 -0.0931
 5243W        W22767   9.289   8.800  11.334 -0.0086  0.0360  0.2327
 5244W        W22768   3.694  10.948  14.213  0.1171  0.1649 -0.1532
 5245W        W22769  15.358   2.789   3.150  0.1846 -0.0056 -0.2347
 5246W        W22770  13.472   4.555  11.537 -0.1165  0.1653 -0.1336
 5247W        W22771   8.130  13.568  13.769 -0.4846 -0.0485  0.0664
 5248W        W22772  10.740   8.339   2.934 -0.0348 -0.3301 -0.0205
 5249W        W22773  13.365   7.588  13.356  0.2819 -0.0016  0.1598
 5250W        W22774  15.749   3.921  12.792  0.3419  0.2590  0.0342
 5251W        W22775  13.375   1.099   3.219 -0.1652 -0.2107  0.2415
 5252W        W22776  14.831  12.773   4.694  0.2210  0.1688  0.1698
 5253W        W22777   9.543  13.206   3.660  0.4653  0.1027  0.1858
 5254W        W22778   7.932   1.011   4.215 -0.0802  0.1831  0.1124
 5255W        W22779  10.698   5.379  11.043 -0.1750 -0.0754 -0.1055
 5256W        W22780  10.700  14.977  15.366 -0.1084  0.1147 -0.0816
 5257W        W22781   7.200   0.148   3.280  0.0999  0.3240 -0.1050
 5258W        W22782   4.281   5.706  15.467  0.0904  0.2060 -0.0208
 5259W        W22783   8.682  13.426  13.792  0.2138  0.2683 -0.2924
 5260W        W22784  11.024   1.612  15.076  0.2334  0.0024  0.0768
 5261W        W22785   2.329   1.759  13.261  0.1362  0.1434  0.1103
 5262W        W22786  15.791   7.211   1.411  0.2062  0.1630 -0.0291
 5263W        W22787   1.816  10.289  13.223 -0.1115  0.0501 -0.3391
 5264W        W22788   8.513  17.688   0.461 -0.2130  0.0163  0.0380
 5265W        W22789   3.715   3.342  14.315  0.3212 -0.1671 -0.1317
 5266W        W22790  15.791  15.308  14.300 -0.1355 -0.1239 -0.2269
 5267W        W22791   0.041  15.906   3.507 -0.3668  0.4642 -0.0615
 5268W        W22792  13.737   2.713  13.674 -0.0065 -0.2561  0.0051
 5269W        W22793   0.137  17.876   1.383 -0.6257  0.1465  0.1482
 5270W        W22794   3.434  17.228  12.097  0.0898  0.0438 -0.1109
 5271W        W22795  13.317   4.009  11.431  0.2025 -0.1265 -0.0220
 5272W        W22796  11.568   8.227   0.835  0.4031  0.2022  0.0517
 5273W        W22797  17.818   6.027   2.628  0.2963 -0.0826 -0.1460
 5274W        W22798  17.932   4.217  11.087 -0.0447  0.0537 -0.0487
 5275W        W22799   4.977   2.120  12.046 -0.0856  0.0802  0.3540
 5276W        W22800   5.561   5.884   0.374  0.2474  0.4117 -0.0896
 5277W        W22801   6.628  16.183  12.664  0.1620 -0.2571 -0.0527
 5278W        W22802   4.058   1.984   5.008 -0.4623 -0.2055 -0.0598
 5279W        W22803  16.960   2.193   1.988  0.1507 -0.1862 -0.1783
 5280W        W22804  16.493   8.862  13.645  0.2153  0.0909 -0.0367
 5281W        W22805  17.954  17.847  15.711 -0.0516 -0.1842 -0.0184
 5282W        W22806  14.882   5.099  14.160 -0.0122  0.0498  0.0628
 5283W        W22807   5.492   5.197  11.663  0.0721 -0.0655 -0.0809
 5284W        W22808   4.380   3.868  13.025 -0.4438 -0.0378  0.0648
 5285W        W22809   1.577  17.036   2.763 -0.3633  0.0467 -0.2341
 5286W        W22810  12.022  13.669   1.374  0.2522  0.0005 -0.3212
 5287W        W22811  12.691  13.197  14.564  0.5712  0.0895  0.1088
 5288W        W22812  11.216   8.865  14.702 -0.3137  0.0778 -0.3352
 5289W        W22813  16.986   4.070   2.256 -0.2172  0.3295  0.1403
 5290W        W22814  16.569   7.695   1.835 -0.0265  0.3331  0.0661
 5291W        W22815  17.051  11.559   2.465 -0.0563  0.3649 -0.3380
 5292W        W22816  17.071   6.462   5.066  0.2820  0.0520 -0.2487
 5293W        W22817   0.342   1.830  14.975 -0.4651 -0.0366 -0.1958
 5294W        W22818  10.346   4.998  11.994  0.0911 -0.0528  0.0230
 5295W        W22819  15.858   8.589  15.680 -0.0383  0.2216  0.2505
 5296W        W22820  17.916  16.106   2.863  0.1349 -0.0132 -0.1679
 5297W        W22821   8.126   9.799  12.021 -0.1953 -0.0155  0.3110
 5298W        W22822   4.934   6.850   3.048  0.3009  0.5004  0.1171
 5299W        W22823   3.272  13.179   4.579 -0.4231 -0.0320 -0.1406
 5300W        W22824   8.000  15.383   3.159 -0.2152 -0.2124 -0.0396
 5301W        W22825   7.556   5.693   0.758  0.2041  0.0753 -0.1530
 5302W        W22826   4.762   3.891  11.698 -0.0411 -0.0013 -0.0149
 5303W        W22827  10.861   3.944  13.021  0.1166  0.3533 -0.4023
 5304W        W22828   5.938  11.432  14.879 -0.0195  0.0022 -0.3458
 5305W        W22829   1.299  13.645   4.180 -0.0789 -0.0705  0.2330
 5306W        W22830  11.274  10.863   5.818  0.1920 -0.0173 -0.0109
 5307W        W22831   3.280   0.654  13.819  0.0825 -0.0837  0.1257
 5308W        W22832   1.421  14.349  13.309  0.3172 -0.2014  0.3268
 5309W        W22833  18.113   2.838  12.864  0.2950 -0.1146  0.0273
 5310W        W22834  14.450   7.668  11.582 -0.0184  0.2512  0.0507
 5311W        W22835  11.548   3.968  15.324 -0.4345  0.1759  0.1599
 5312W        W22836  12.715   7.972   3.389  0.0943  0.0285  0.0824
 5313W        W22837   6.957   7.920  10.685 -0.2027 -0.3142  0.0218
 5314W        W22838  14.852   1.623   3.221 -0.4132 -0.1415 -0.2851
 5315W        W22839   3.066  17.572  13.103 -0.0285  0.2408  0.3074
 5316W        W22840   4.637   5.553  12.585 -0.0216  0.1232 -0.2530
 5317W        W22841  15.074  10.063   0.154  0.3366 -0.2223  0.0909
 5318W        W22842  13.309   2.947   3.246  0.1516 -0.1764 -0.0487
 5319W        W22843   3.288   7.823  12.147 -0.3525  0.1440  0.0777
 5320W        W22844   9.193  11.432   3.774 -0.0128 -0.0036 -0.1701
 5321W        W22845   8.060  18.470   2.842 -0.1828  0.1083 -0.0839
 5322W        W22846  12.653   3.055   4.446 -0.0873 -0.3591 -0.0923
 5323W        W22847   1.564   2.968  12.219  0.2244 -0.1943 -0.0976
 5324W        W22848  12.431   6.181  12.055 -0.1087  0.1739  0.1451
 5325W        W22849   2.409   6.180  14.915 -0.1212 -0.2091 -0.0867
 5326W        W22850  17.864   8.875   1.736 -0.1971 -0.0294  0.1699
 5327W        W22851   0.500   9.848  10.009 -0.1471  0.2240  0.3609
 5328W        W22852  14.869   7.838  11.855  0.2140  0.0176  0.0266
 5329W        W22853   3.779  15.965   2.587 -0.2406  0.2263 -0.1184
 5330W        W22854  13.848   1.457  12.959 -0.1637 -0.0306 -0.0830
 5331W        W22855  13.390  13.257  15.135  0.1410 -0.4756 -0.0363
 5332W        W22856   2.379  10.298  12.438 -0.1147  0.0940  0.0373
 5333W        W22857  15.591  17.712   3.869 -0.0256 -0.2766  0.1199
 5334W        W22858  10.741  12.230   0.732 -0.0140  0.1023 -0.0862
 5335W        W22859   5.794   1.869  14.111 -0.1994  0.0260  0.3974
 5336W        W22860   8.402   4.027  12.610  0.1353 -0.1625 -0.3621
 5337W        W22861  15.257  17.029  14.926 -0.2603 -0.1296 -0.3059
 5338W        W22862   4.072  11.245  14.227 -0.0863  0.3127 -0.0161
 5339W        W22863  10.517  14.390   4.730 -0.0424  0.1259 -0.0125
 5340W        W22864   9.771   0.237   3.662  0.0296 -0.1928  0.0619
 5341W        W22865  15.275   2.995  11.068 -0.0792  0.0748 -0.3098
 5342W        W22866  11.769   4.096   0.398  0.1336  0.2464  0.0195
 5343W        W22867  18.000  12.399  13.178  0.0256  0.1117 -0.0064
 5344W        W22868  12.429   3.838  13.511 -0.0715  0.0013 -0.1100
 5345W        W22869   6.196  16.856  15.174  0.4601 -0.0135 -0.1739
 5346W        W22870   7.639  14.269  13.679  0.1268  0.1221 -0.1329
 5347W        W22871  12.344  17.590  12.145  0.0176 -0.1320  0.0076
 5348W        W22872   5.215  14.096  10.405 -0.0468 -0.0682  0.2284
 5349W        W22873   2.487  11.430   1.385  0.1963  0.2047  0.2394
 5350W        W22874  13.009   0.363   4.309  0.0899  0.4197  0.3259
 5351W        W22875   7.427  14.167  14.722 -0.3314 -0.0571 -0.1938
 5352W        W22876  14.432   2.263   2.507  0.0826  0.2006  0.0917
 5353W        W22877   5.444   7.917  11.251  0.0013 -0.3365 -0.5873
 5354W        W22878  15.178  15.049  12.758 -0.0539  0.0337 -0.1387
 5355W        W22879  14.951   0.716  14.758  0.1851 -0.0732 -0.1081
 5356W        W22880  10.613   4.198   2.596  0.2506 -0.2680  0.4552
 5357W        W22881  12.414  12.129   2.434  0.0157 -0.2425  0.0536
 5358W        W22882   5.010   0.762   0.330  0.0456  0.1578  0.0406
 5359W        W22883   9.989  11.961  11.060 -0.0636  0.0339 -0.1714
 5360W        W22884   2.906  17.654  11.290  0.0059 -0.2277  0.0335
 5361W        W22885   4.426   3.671   3.521  0.1698  0.0056  0.0404
 5362W        W22886   2.125   7.140  12.145  0.2219 -0.0456 -0.1535
 5363W        W22887  13.279   5.418  13.098  0.2037  0.1238  0.0258
 5364W        W22888  14.183  15.138  14.949  0.0921 -0.2709  0.0498
 5365W        W22889  15.860   4.690  11.280 -0.2825  0.2489  0.0477
 5366W        W22890  10.062   6.820   2.509  0.0023 -0.0675  0.1884
 5367W        W22891   6.285   9.346  14.775  0.0159  0.4015  0.0143
 5368W        W22892   3.255  13.965   0.656 -0.0257 -0.0163  0.0939
 5369W        W22893  16.519  13.174  13.558  0.0137  0.1566  0.1799
 5370W        W22894  13.352   6.467   4.511 -0.0568  0.1758 -0.2847
 5371W        W22895  16.190   1.814  12.264 -0.1814  0.2430  0.1925
 5372W        W22896   4.972   3.409  12.221  0.1180  0.0708 -0.0353
 5373W        W22897  13.951  14.228  12.795  0.1958 -0.0190  0.1481
 5374W        W22898  15.033   0.395   1.864  0.1529  0.2188  0.1923
 5375W        W22899   5.002  10.249  11.248 -0.1598 -0.0038 -0.5420
 5376W        W22900   9.498   4.891  15.013  0.0351 -0.0736  0.1382
 5377W        W22901   6.536  15.366  14.298  0.1798 -0.0380  0.1197
 5378W        W22902  13.741  18.011   4.582 -0.0290 -0.0781  0.1724
 5379W        W22903  14.024  18.455  11.263  0.0897  0.2913 -0.3245
 5380W        W22904  14.746  15.288   5.182  0.2524 -0.0612 -0.3018
 5381W        W22905  14.920  17.577  15.492 -0.1804 -0.0077 -0.0482
 5382W        W22906  13.509   5.243  12.613  0.0788  0.1065  0.0861
 5383W        W22907  17.873   7.215  11.085 -0.1557  0.2074 -0.0746
 5384W        W22908  16.166   3.075  15.212 -0.0526  0.0985 -0.1848
 5385W        W22909   0.088   6.295  14.281 -0.0811 -0.2328 -0.0719
 5386W        W22910  18.018   7.494  11.999  0.1630  0.1167 -0.2019
 5387W        W22911  16.599   8.371   0.078  0.0516 -0.0031 -0.3119
 5388W        W22912   7.781   1.457   1.553  0.0915  0.1509  0.2830
 5389W        W22913   1.259  16.206  12.050 -0.1238  0.1454  0.2367
 5390W        W22914   4.936  11.498   2.241 -0.0448  0.0517  0.1986
 5391W        W22915  16.892  17.962  14.408 -0.3483  0.4252  0.0349
 5392W        W22916   8.952   4.968   1.573  0.0710 -0.2792  0.0897
 5393W        W22917  15.055  16.005  12.366 -0.2691 -0.1909 -0.3995
 5394W        W22918   0.364   9.107   1.360  0.0834 -0.3600  0.1301
 5395W        W22919  18.126   0.669   3.688  0.1541  0.0425  0.0352
 5396W        W22920   0.604  15.319  11.625  0.0041  0.1869  0.0188
 5397W        W22921  17.059   3.242  15.458  0.1741  0.1168 -0.0554
 5398W        W22922   5.480  15.402   5.886  0.2476  0.0617  0.1370
 5399W        W22923  11.665   3.366  11.772  0.0581 -0.0889  0.2767
 5400W        W22924  15.153  14.350  11.607  0.4290 -0.2253  0.2642
 5401W        W22925  14.449  13.102   0.366  0.3490  0.2466  0.1685
 5402W        W22926   4.249  11.539   3.275 -0.1477 -0.2315 -0.2720
 5403W        W22927  10.186  11.705   3.449 -0.4225  0.1168  0.0857
 5404W        W22928   1.007   4.019  15.560  0.1824  0.0868  0.0426
 5405W        W22929   9.613  11.407  14.088  0.0092  0.1436 -0.1265
 5406W        W22930  10.194   4.337  10.771  0.1933  0.1948 -0.0139
 5407W        W22931  16.733   0.355  14.161 -0.1223 -0.4130  0.2952
 5408W        W22932  13.226   7.747   0.499  0.0537 -0.2255  0.1306
 5409W        W22933   5.189   7.244   2.510  0.1780  0.2171 -0.1742
 5410W        W22934   6.339  16.437   2.770  0.4026 -0.1712  0.2442
 5411W        W22935   5.171  14.237   4.512  0.2606 -0.1692 -0.0886
 5412W        W22936   9.938   0.936   4.565  0.0564  0.4253 -0.2642
 5413W        W22937   8.174   9.836   5.031  0.0606  0.0631 -0.0894
 5414W        W22938   7.676  17.273   3.327 -0.0898 -0.2087  0.0274
 5415W        W22939  10.863  12.188   2.179  0.0478 -0.1078 -0.1128
 5416W        W22940   3.631  13.361  13.291 -0.2195 -0.2696 -0.0316
 5417W        W22941   5.628   6.549  13.278  0.0674  0.0095  0.1235
 5418W        W22942  14.549   5.225  15.029 -0.2367 -0.5238  0.2621
 5419W        W22943  15.322  17.889  13.396 -0.2288  0.2753 -0.0301
 5420W        W22944  14.978  10.660  15.489  0.1492 -0.1431 -0.0206
 5421W        W22945  14.133  16.485   4.772 -0.0830 -0.0281 -0.0712
 5422W        W22946  17.384   8.327  12.011 -0.2613 -0.2065  0.1225
 5423W        W22947  17.611   9.686  10.577 -0.0361 -0.1951 -0.1701
 5424W        W22948  11.545   3.931  11.516 -0.0410  0.0420  0.2545
 5425W        W22949   0.626   6.373  10.560  0.1584  0.3078 -0.1900
 5426W        W22950   7.123  10.074  11.102 -0.1920  0.0196 -0.2493
 5427W        W22951  11.478   6.274   3.467 -0.0642  0.1300 -0.0303
 5428W        W22952  14.813  14.067  11.282 -0.0125 -0.0225 -0.2949
 5429W        W22953   4.353   6.534  11.641  0.2200 -0.3545 -0.0006
 5430W        W22954  14.070   2.310  12.306  0.0262 -0.0387  0.0333
 5431W        W22955   9.137  13.398   3.886  0.2640 -0.0057 -0.1550
 5432W        W22956   8.948   2.607  12.594  0.3839 -0.0878 -0.0292
 5433W        W22957   6.354  14.637   0.978  0.0778  0.0330  0.0795
 5434W        W22958  15.200  17.724  11.913  0.1030 -0.0850 -0.1079
 5435W        W22959   5.526   6.730  11.133 -0.0273 -0.0165  0.1151
 5436W        W22960  14.495   9.668  14.745  0.3417 -0.3081  0.0701
 5437W        W22961  17.360  14.296  14.873  0.0980  0.0410  0.1228
 5438W        W22962  16.418  17.544  12.674  0.0416 -0.1115 -0.0423
 5439W        W22963   8.563  17.273  14.130 -0.2683  0.3318  0.1011
 5440W        W22964   3.052  16.955   2.674 -0.2305 -0.0635  0.0280
 5441W        W22965  17.828  15.117   3.208  0.0484  0.0337  0.0205
 5442W        W22966   5.148   0.745  10.080  0.1675  0.2578 -0.3692
 5443W        W22967  12.235  10.277  13.579  0.1116  0.1325  0.1755
 5444W        W22968   9.873   0.170   2.581  0.1108  0.0398  0.1301
 5445W        W22969  14.418  16.514  15.349 -0.1778  0.1314 -0.4066
 5446W        W22970  13.140   7.776   4.965 -0.2626  0.0289 -0.2894
 5447W        W22971   9.552   4.301   1.183 -0.2668 -0.1520 -0.5157
 5448W        W22972   9.423   7.160   1.528  0.2786  0.0678  0.1601
 5449W        W22973   0.216   5.188  13.018  0.3005 -0.3539 -0.2430
 5450W        W22974  13.388   0.892  14.097 -0.1233  0.0377  0.0182
 5451W        W22975  10.302   5.551  11.279 -0.1383 -0.0305 -0.1709
 5452W        W22976   4.576  16.984  13.188  0.2558 -0.2874 -0.0900
 5453W        W22977   9.158   9.294   2.849 -0.2783  0.0319 -0.2921
 5454W        W22978   7.055  17.257  15.001  0.3899 -0.0475  0.1857
 5455W        W22979  13.150  12.988  14.613 -0.0590  0.2374  0.1107
 5456W        W22980   4.885   3.608  15.161  0.0006  0.2944  0.3097
 5457W        W22981   2.850   4.543  11.392  0.0350  0.1091  0.3696
 5458W        W22982   4.383  12.162  11.187 -0.3825 -0.0967 -0.0777
 5459W        W22983  14.314   4.261  13.311 -0.0509  0.0229 -0.1543
 5460W        W22984   3.065  12.286  11.218  0.0217 -0.2196  0.0429
 5461W        W22985   2.079   5.268   4.749 -0.1920 -0.1018  0.2639
 5462W        W22986   6.942  18.448   5.170 -0.1621  0.0572 -0.1370
 5463W        W22987  11.599  14.600   4.058 -0.3569  0.0418  0.0695
 5464W        W22988  17.735  11.192  14.000  0.3481  0.1255  0.1312
 5465W        W22989   5.210   1.145  14.407  0.1840 -0.0382  0.2628
 5466W        W22990   7.646  11.138  12.714  0.1580 -0.0933  0.4467
 5467W        W22991  14.356  15.982  12.541  0.0731  0.1132  0.1683
 5468W        W22992  17.802   4.810   2.015 -0.1121  0.1317 -0.2312
 5469W        W22993   8.330  14.109   0.968 -0.0714  0.1047  0.1532
 5470W        W22994  10.875  13.037   5.245 -0.1078 -0.0372  0.2615
 5471W        W22995   8.945  10.584  13.071 -0.0948  0.1254  0.1663
 5472W        W22996   0.070   5.749   4.585 -0.1686 -0.2099 -0.2928
 5473W        W22997  12.274  16.777   4.676 -0.2788  0.0876 -0.1169
 5474W        W22998  16.567  15.359   0.851 -0.0302  0.0378  0.0177
 5475W        W22999   7.817  15.065   4.416 -0.0232 -0.1321  0.1402
 5476W        W23000  14.741   5.117  13.395  0.1507 -0.1275  0.5719
 5477W        W23001   1.294   0.647   1.732 -0.0498 -0.1771  0.1731
 5478W        W23002   2.066   8.581  11.643 -0.0978  0.0728 -0.0299
 5479W        W23003  17.867   2.036   0.828 -0.2219  0.1444  0.0330
 5480W        W23004   2.657   3.374  13.185 -0.0294  0.0163  0.0446
 5481W        W23005  13.202   2.552  15.024  0.1703  0.1710  0.1893
 5482W        W23006  16.513  16.016   0.577 -0.0100  0.2492  0.3257
 5483W        W23007   7.265  13.113  12.615 -0.2558  0.1681  0.0337
 5484W        W23008   6.457   2.474  10.660  0.3274 -0.0995 -0.1368
 5485W        W23009   6.731  15.451   1.172 -0.1936  0.0849 -0.0661
 5486W        W23010   7.208  15.420   1.042  0.1038 -0.0621 -0.1479
 5487W        W23011  15.619  14.233   6.026 -0.1787  0.0846  0.0835
 5488W        W23012   1.808  12.044  12.012  0.1243  0.0776  0.1150
 5489W        W23013  15.433   1.161   5.445 -0.3939 -0.3503  0.2296
 5490W        W23014   7.032  10.217  14.202 -0.3376 -0.1722 -0.0507
 5491W        W23015  16.367  13.884   4.442  0.0119  0.2997 -0.1630
 5492W        W23016   2.817  14.950  14.751  0.0155 -0.2949 -0.0313
 5493W        W23017   8.689  17.622  13.817  0.0145 -0.1598 -0.0957
 5494W        W23018  12.741  11.155  14.403  0.2278 -0.1952  0.0968
 5495W        W23019   6.736   5.509  13.427  0.0209  0.0687 -0.0263
 5496W        W23020   0.176   1.118  14.283  0.0837 -0.1895  0.0209
 5497W        W23021   1.940   9.341  13.194 -0.2225 -0.0061  0.0131
 5498W        W23022  18.078   1.191   3.607  0.0309 -0.1089  0.0698
 5499W        W23023  15.913   3.826   4.316  0.2941  0.0273  0.0069
 5500W        W23024   1.903   6.011  14.606 -0.1857  0.1110 -0.0790
 5501W        W23025   3.641   2.312   4.838  0.2815 -0.1420 -0.3679
 5502W        W23026   8.094  11.421   2.368  0.0764  0.0616 -0.0383
 5503W        W23027   2.679   4.464   0.060  0.0538 -0.2958 -0.2237
 5504W        W23028   7.147   6.952   1.963  0.1100 -0.2231  0.1881
 5505W        W23029  17.473   1.538  10.735 -0.0975 -0.0060 -0.1160
 5506W        W23030   8.672   7.386  14.442  0.1161  0.1269 -0.1956
 5507W        W23031   8.587  17.347  12.835  0.2815 -0.0196  0.0485
 5508W        W23032  13.500  18.233   1.531  0.0702 -0.0344 -0.0404
 5509W        W23033   8.489   2.027   3.338 -0.1791 -0.2691  0.2918
 5510W        W23034   3.637  13.814   3.244  0.0151 -0.3206  0.0696
 5511W        W23035   2.635  14.496   3.915 -0.0787  0.0878  0.0979
 5512W        W23036   6.343  13.031   4.147 -0.1413 -0.2289  0.2880
 5513W        W23037   7.513   2.045   2.971  0.0997  0.3095 -0.1601
 5514W        W23038  18.462   7.756  12.799  0.2578  0.1484  0.2542
 5515W        W23039   1.214  15.367   2.920  0.0614  0.1970 -0.0947
 5516W        W23040   6.962   7.808   3.542 -0.4027  0.0680 -0.1233
 5517W        W23041  12.768   5.931   4.140 -0.5543  0.2982  0.0512
 5518W        W23042   1.549   5.833   2.986  0.0473  0.1092  0.1376
 5519W        W23043   7.467  13.924   5.266 -0.0416 -0.0494  0.0298
 5520W        W23044  14.861   0.257   3.783 -0.0916  0.0128  0.1132
 5521W        W23045   4.065  14.362  13.687  0.0179 -0.1717  0.0675
 5522W        W23046  13.856   2.687  15.405  0.0231  0.0453 -0.2215
 5523W        W23047  18.288   3.358  15.697 -0.1090 -0.1268 -0.1174
 5524W        W23048   4.853   2.482   1.940 -0.2278 -0.1009 -0.2061
 5525W        W23049  16.332  16.680  14.593  0.0330  0.1362  0.0479
 5526W        W23050   0.216   0.564   2.052 -0.0020  0.1263  0.3931
 5527W        W23051   5.717   7.713   3.869 -0.0238 -0.0219 -0.0879
 5528W        W23052   6.390   3.021   2.181 -0.1537 -0.4531  0.3851
 5529W        W23053   0.969  10.764   3.367  0.0068  0.0380  0.1178
 5530W        W23054   0.978  18.352  14.934  0.0206  0.2331  0.0600
 5531W        W23055  11.512  17.090   3.287 -0.0120 -0.0920  0.1730
 5532W        W23056  16.469   0.853   5.135  0.0826  0.1974 -0.0182
 5533W        W23057  10.160   2.841   1.105  0.2597  0.1133  0.0009
 5534W        W23058   6.611   6.436  12.173 -0.0817 -0.0698  0.2521
 5535W        W23059   7.658   5.996   2.788  0.0252  0.2686 -0.0786
 5536W        W23060  13.711  15.304  14.992 -0.1063 -0.0813 -0.4617
 5537W        W23061  17.443   7.074   0.981  0.1704  0.1269  0.1204
 5538W        W23062   5.035  18.067  12.426 -0.0579  0.0751 -0.3252
 5539W        W23063   9.159  14.922  12.771  0.1246  0.0487 -0.2182
 5540W        W23064  18.229  16.395   0.345  0.0394  0.0977  0.2021
 5541W        W23065   0.633   1.206   1.668  0.1567  0.0824  0.0014
 5542W        W23066   3.308  10.780  15.519  0.0683 -0.0994  0.1117
 5543W        W23067   1.876  13.957   3.538 -0.3527 -0.2436 -0.4820
 5544W        W23068  16.406  18.037   3.680 -0.1360  0.1518 -0.0109
 5545W        W23069  10.208  18.016  15.426  0.3824  0.2251 -0.2973
 5546W        W23070  18.438  12.415  15.544  0.0933 -0.0705  0.0026
 5547W        W23071  16.711  12.601   3.104  0.4600  0.0039  0.0197
 5548W        W23072  12.869   2.459   0.853 -0.2552  0.1644 -0.2487
 5549W        W23073  12.111   1.317   4.241  0.0193  0.2651 -0.2111
 5550W        W23074  16.090   4.361  10.996 -0.0239  0.1059 -0.0532
 5551W        W23075   5.859   5.111  14.421 -0.0268 -0.0928 -0.2411
 5552W        W23076   8.264   6.347   2.347 -0.0914  0.3107  0.0062
 5553W        W23077  17.167   8.763   4.441  0.2574 -0.0243 -0.0553
 5554W        W23078   0.966   2.051   2.928  0.2667  0.1098  0.4622
 5555W        W23079   2.753  11.696  15.225 -0.1570 -0.0401 -0.2426
 5556W        W23080  13.135   6.232   2.312  0.0313 -0.3495  0.0247
 5557W        W23081   0.749   9.424  15.240  0.1393 -0.0070 -0.0784
 5558W        W23082  15.967   7.940   4.413  0.0385  0.1415  0.0901
 5559W        W23083  10.304   8.268   5.487  0.1072 -0.1286 -0.1938
 5560W        W23084  11.322   6.819  15.529 -0.1567 -0.0705  0.0175
 5561W        W23085   3.303   0.190  10.279 -0.0023 -0.3171 -0.4905
 5562W        W23086  10.140  16.545   4.295  0.0380 -0.2407  0.0948
 5563W        W23087  18.434  17.966   0.158  0.1533 -0.0613  0.0549
 5564W        W23088   1.962  14.042  13.377  0.0267 -0.0608  0.2254
 5565W        W23089  11.545  16.488   4.310  0.2283  0.4350 -0.0920
 5566W        W23090   6.080   6.290   1.160  0.0570  0.1026  0.2526
 5567W        W23091   6.124   9.640  11.948  0.0021  0.0629 -0.4215
 5568W        W23092   9.902  15.891   4.163 -0.2023  0.3764  0.0461
 5569W        W23093   0.073  12.925   2.025 -0.0224  0.1753 -0.5112
 5570W        W23094   4.300  17.366   2.487  0.2491 -0.0230 -0.0343
 5571W        W23095   0.703   5.051   4.844  0.0487  0.0525 -0.4495
 5572W        W23096  18.180  14.367   4.173 -0.1046  0.1042 -0.1834
 5573W        W23097  17.326   4.345   2.550 -0.2215  0.1360  0.1323
 5574W        W23098   9.085  15.972  14.684 -0.1809  0.0847  0.0550
 5575W        W23099  14.357  16.340   5.313 -0.2006 -0.2598  0.1726
 5576W        W23100   8.225  14.348   4.813  0.1477  0.1575  0.3589
 5577W        W23101   0.145   7.733   1.029 -0.1767  0.1841  0.2062
 5578W        W23102   4.468  12.828  13.646 -0.0959 -0.0400  0.1355
 5579W        W23103   2.382   4.831  11.276  0.0374  0.4173 -0.1837
 5580W        W23104   1.095  13.501  14.926 -0.0571  0.2492 -0.2071
 5581W        W23105   9.923   8.006  11.439 -0.4481  0.1546  0.0608
 5582W        W23106  10.032   9.741  13.743  0.2396  0.1135  0.0582
 5583W        W23107   6.973   1.310   4.544  0.1767 -0.3686  0.0483
 5584W        W23108  15.649  10.235   3.243 -0.0824  0.0232 -0.1141
 5585W        W23109   3.243  15.626   1.317  0.1779 -0.1887 -0.1562
 5586W        W23110  13.089   1.666   2.552  0.5164 -0.0116 -0.0167
 5587W        W23111  12.066  16.166  15.579  0.1412  0.4290  0.0584
 5588W        W23112  14.551  16.500  13.894  0.0299 -0.1516 -0.1112
 5589W        W23113   9.677   7.313  14.271  0.0919 -0.1168  0.0601
 5590W        W23114   8.419  17.349   4.224  0.0407  0.0999  0.0285
 5591W        W23115  13.922  12.099  14.680  0.2310  0.1495 -0.0254
 5592W        W23116   9.350   1.211   0.037  0.1188 -0.0307 -0.2230
 5593W        W23117  13.268   6.852  13.915  0.2743  0.3227 -0.0403
 5594W        W23118  13.335  11.731  12.584  0.0407 -0.0899  0.0832
 5595W        W23119   5.473   5.783  14.422  0.0948 -0.1794  0.0556
 5596W        W23120  15.029  14.761   1.144 -0.1150 -0.1741  0.0374
 5597W        W23121   9.507  17.502  14.452 -0.2126  0.1765  0.4647
 5598W        W23122  13.064   2.214   5.145 -0.3217  0.0796  0.0553
 5599W        W23123   4.432   6.627   3.923  0.1051 -0.1378  0.0250
 5600W        W23124   2.750  16.798  14.182  0.0951 -0.1831 -0.0487
 5601W        W23125   9.520   5.514  13.614 -0.0501 -0.1937  0.1042
 5602W        W23126   9.170   5.332  12.724 -0.0075  0.0157  0.0529
 5603W        W23127   3.305   5.349   1.134  0.3983  0.0468  0.2158
 5604W        W23128  18.158  14.914  12.036  0.4046  0.2059 -0.1839
 5605W        W23129  10.034  14.332  13.931  0.0612 -0.0728  0.1406
 5606W        W23130   7.779  15.175  15.063  0.2158 -0.4869 -0.3107
 5607W        W23131   3.578  10.825   1.177  0.0027 -0.0709  0.2023
 5608W        W23132   5.204  11.963   0.276  0.3548  0.3324 -0.0493
 5609W        W23133  13.064   0.644  13.809  0.2112  0.3036 -0.1632
 5610W        W23134   3.283   7.658  10.621 -0.2848 -0.4178  0.3592
 5611W        W23135  10.779   3.123  13.874  0.4309  0.1192 -0.0467
 5612W        W23136   5.173   4.924  15.275  0.0922  0.0771 -0.2628
 5613W        W23137  10.002   5.386   1.381 -0.4219 -0.3581  0.0625
 5614W        W23138  12.295  13.549  12.883  0.1581  0.0973  0.0063
 5615W        W23139   5.218   5.515   0.496 -0.0948  0.0184  0.1224
 5616W        W23140  14.391   8.411   4.238 -0.0143  0.0656 -0.0054
 5617W        W23141   9.354  12.603   2.471 -0.3731  0.2265  0.0355
 5618W        W23142  15.005   4.511  15.334 -0.1605 -0.0073  0.0660
 5619W        W23143  11.150  12.727  13.285 -0.2502  0.1403 -0.0217
 5620W        W23144   1.169   9.684  15.327 -0.3041 -0.0167 -0.0706
 5621W        W23145  11.240   1.542  12.951 -0.0896 -0.0046  0.0498
 5622W        W23146   7.801   5.989  13.447  0.1686  0.0832  0.0083
 5623W        W23147  16.124   8.353   2.856 -0.0738  0.2511 -0.1422
 5624W        W23148   6.313  11.076  14.833  0.0406  0.2690  0.1556
 5625W        W23149  11.970   9.102  15.510 -0.0878  0.1751  0.1363
 5626W        W23150   6.796   7.142  13.846 -0.1464 -0.1487  0.0101
 5627W        W23151   3.181   8.671  14.472  0.3022 -0.2571 -0.0331
 5628W        W23152  16.703  14.433   3.900  0.0449 -0.0237 -0.1556
 5629W        W23153   8.302   7.237  14.755 -0.1118 -0.3601 -0.0763
 5630W        W23154  17.735   6.354  13.642 -0.1950 -0.1832  0.3494
 5631W        W23155   1.349  15.087  12.190 -0.2477 -0.0489  0.0812
 5632W        W23156  10.851  10.114   2.359  0.1395 -0.2655  0.1338
 5633W        W23157  17.815  12.597  11.751  0.0751 -0.2443 -0.0163
 5634W        W23158  17.551   1.730  13.793 -0.0246 -0.3216 -0.3327
 5635W        W23159  12.439   4.629  14.554  0.2206 -0.1233 -0.0051
 5636W        W23160  14.395   2.963  11.580 -0.0054  0.1808  0.1446
 5637W        W23161  17.824  10.841   1.734 -0.2595  0.1039 -0.2304
 5638W        W23162   7.228   8.204  13.209 -0.2202 -0.2915 -0.1851
 5639W        W23163   5.913   7.254  14.015  0.2568 -0.1258 -0.1378
 5640W        W23164   5.679   1.301   2.323 -0.0601 -0.0286  0.1354
 5641W        W23165   8.808   7.678   3.436  0.1037 -0.4707  0.2327
 5642W        W23166  16.625  12.560  12.193 -0.0266 -0.3057  0.1872
 5643W        W23167   6.202  17.635   2.524 -0.1008  0.0158  0.1470
 5644W        W23168  13.362   8.676  13.089  0.3179  0.0829  0.0609
 5645W        W23169  13.447  18.217  13.405 -0.0041  0.1406 -0.1798
 5646W        W23170   8.885  10.731   4.429  0.3060  0.0810 -0.0701
 5647W        W23171   4.783   6.735   4.357  0.1619  0.0862 -0.0166
 5648W        W23172  12.522   4.259   1.117 -0.1144  0.1336  0.2957
 5649W        W23173   0.133  11.769   0.868 -0.1243 -0.3426 -0.1276
 5650W        W23174   2.893   2.476  15.022  0.1989 -0.0953 -0.1775
 5651W        W23175   7.053   0.633   3.723 -0.4038  0.0238  0.0639
 5652W        W23176  12.791  18.046   4.942 -0.2309  0.0584 -0.3644
 5653W        W23177   7.008  17.749   0.679 -0.1305 -0.2320  0.1890
 5654W        W23178  14.828   1.142   3.192  0.3365  0.1946  0.2660
 5655W        W23179  17.396  11.263   4.154  0.0767 -0.0937 -0.1361
 5656W        W23180  12.409   3.688   4.663  0.0497 -0.0839 -0.1136
 5657W        W23181  17.603   0.724  11.737  0.1788  0.4781  0.0954
 5658W        W23182  17.624  16.127   0.855  0.0849 -0.0137  0.1830
 5659W        W23183   0.229  18.340  14.805 -0.1586 -0.1309  0.2990
 5660W        W23184   9.656   2.685   2.506  0.1036  0.0387  0.1312
 5661W        W23185   0.008   8.279   1.571  0.0499  0.0237  0.0051
 5662W        W23186  18.393   1.330  12.072  0.1935  0.2988  0.2827
 5663W        W23187  16.920  11.984  12.904 -0.0172  0.1009 -0.0882
 5664W        W23188   0.034   5.563   4.052  0.0034 -0.0113 -0.1078
 5665W        W23189   6.601   7.322  12.879  0.1791 -0.1384 -0.0300
 5666W        W23190   9.110  13.886   2.991 -0.0687 -0.1546  0.2958
 5667W        W23191  15.558  15.858  12.499  0.2230 -0.0678 -0.3180
 5668W        W23192   3.224   5.286  14.434 -0.1404 -0.0521  0.0802
 5669W        W23193  10.244  18.407  10.839  0.0443  0.0666  0.3147
 5670W        W23194  13.296  12.792   2.968 -0.1937 -0.0140  0.2217
 5671W        W23195   7.652   1.336   3.808 -0.1500 -0.2807 -0.1829
 5672W        W23196  14.268   6.777   1.545  0.0000 -0.0625 -0.0262
 5673W        W23197   3.953   3.342  13.156  0.3413  0.1646  0.0952
 5674W        W23198   7.625  11.256   4.795  0.1239 -0.2943 -0.2132
 5675W        W23199   1.442   5.148   3.004  0.2580  0.0641  0.1088
 5676W        W23200   5.891   4.268   5.501  0.0312 -0.1129  0.0768
 5677W        W23201   6.009   3.642  10.587  0.2455 -0.0537 -0.1891
 5678W        W23202  10.144   3.096   5.195  0.2080 -0.0976  0.1066
 5679W        W23203  15.099  18.371   1.865  0.4360  0.0017  0.1253
 5680W        W23204   4.911   3.129   4.867  0.1945 -0.1495 -0.0857
 5681W        W23205   6.366  12.356   2.724 -0.2514  0.1977  0.1238
 5682W        W23206   6.423  16.606   3.589  0.0401  0.1046  0.0642
 5683W        W23207   6.241   3.993  13.246  0.1610 -0.3248  0.0864
 5684W        W23208  10.143  12.356   4.077 -0.1324  0.1982  0.1117
 5685W        W23209  10.616   6.883  11.068 -0.1025 -0.0980 -0.1924
 5686W        W23210  12.094  13.178   1.309 -0.0078 -0.1188 -0.1476
 5687W        W23211   1.080   2.729   0.444 -0.1378 -0.0710 -0.1740
 5688W        W23212   9.106  12.963   2.892 -0.1654  0.0704  0.4388
 5689W        W23213  15.865  11.848  13.617 -0.0609  0.2074 -0.1135
 5690W        W23214   3.686  12.428   4.955  0.1635 -0.1348  0.0693
 5691W        W23215  11.869  12.025  15.304  0.2162 -0.0501  0.0872
 5692W        W23216  14.991  16.610  14.684  0.3039 -0.1745  0.5071
 5693W        W23217   2.527   5.728  13.366  0.0750 -0.1359  0.0270
 5694W        W23218   9.992  17.774   0.102  0.1089 -0.0074 -0.1068
 5695W        W23219   1.430   4.198  13.027  0.0645 -0.0406  0.0222
 5696W        W23220  11.841  12.115  11.991  0.0171 -0.0860 -0.0480
 5697W        W23221   6.484  13.754   1.359  0.0035  0.1771  0.1368
 5698W        W23222  13.964  12.791  14.126 -0.0930  0.1697 -0.1757
 5699W        W23223  17.820  17.394  13.294  0.0912  0.1041 -0.2654
 5700W        W23224  12.409  14.694  13.780  0.2071 -0.0776  0.0312
 5701W        W23225  17.306   3.860   4.466 -0.0652  0.0164  0.0139
 5702W        W23226   4.710   3.167  13.525 -0.3183 -0.2054  0.0671
 5703W        W23227   7.079   8.490  11.824 -0.0759 -0.0492 -0.2671
 5704W        W23228   2.207   3.597   1.530 -0.0800 -0.0289 -0.2060
 5705W        W23229  12.474   0.529  14.503 -0.0262  0.0698 -0.0757
 5706W        W23230  11.724  14.710   1.573 -0.3812  0.3129 -0.1380
 5707W        W23231   5.192  17.532   4.571 -0.2937  0.1481  0.1788
 5708W        W23232  14.875  16.907   0.341 -0.1258  0.3045 -0.0315
 5709W        W23233  17.948  10.713   3.564  0.1162  0.1060 -0.0979
 5710W        W23234  15.463  13.515   5.808  0.2674 -0.2887  0.1193
 5711W        W23235   5.296  18.363  15.436 -0.2404 -0.0706 -0.1288
 5712W        W23236  12.721   9.357  12.073 -0.3370 -0.3277  0.1669
 5713W        W23237   3.249  15.272   0.838  0.0323  0.1728 -0.1235
 5714W        W23238   1.026   0.226  12.394 -0.4027 -0.2144  0.1283
 5715W        W23239   5.294  12.801  12.272  0.3381  0.1574  0.0961
 5716W        W23240  14.392   1.986  12.473 -0.0789  0.1633  0.1796
 5717W        W23241  15.977   7.446  12.395  0.1834  0.0760 -0.3094
 5718W        W23242   7.174   9.507  14.937 -0.1289  0.1214 -0.3804
 5719W        W23243   0.804   2.852   4.133 -0.2041 -0.1651  0.0914
 5720W        W23244   5.107   6.535   2.194 -0.0247 -0.1466 -0.2754
 5721W        W23245   7.450   5.885   3.608  0.2309  0.1007  0.0897
 5722W        W23246  17.683   7.995  15.347  0.0209  0.1780  0.0883
 5723W        W23247  14.495   2.551   0.762 -0.0817  0.1565  0.1168
 5724W        W23248  10.873   6.130   1.090  0.0719  0.1504  0.0589
 5725W        W23249  17.543   5.767   1.157 -0.1853 -0.2390  0.1535
 5726W        W23250   7.380  16.807  13.558 -0.0546  0.0738 -0.1331
 5727W        W23251   8.186   0.890  10.741  0.2098  0.0219  0.0486
 5728W        W23252   0.336  17.386   2.417 -0.0350 -0.0806 -0.3326
 5729W        W23253   1.261   8.461   2.693  0.2041 -0.0663  0.4946
 5730W        W23254   5.200  13.988   3.933 -0.0690  0.2151 -0.1473
 5731W        W23255   1.744   9.039  14.305  0.1251  0.2022 -0.0888
 5732W        W23256  18.020   6.746  11.432  0.1193 -0.0389 -0.2451
 5733W        W23257   7.767  12.480   1.523  0.4522  0.0196 -0.0805
 5734W        W23258   1.080  12.422   3.041 -0.2717  0.0837 -0.3152
 5735W        W23259   1.479  18.450   3.922 -0.2710  0.1849 -0.2090
 5736W        W23260  12.686   2.502   4.345 -0.1239 -0.2298  0.2433
 5737W        W23261   3.761   6.428  10.885  0.0976 -0.1447  0.0944
 5738W        W23262  16.959   7.502   4.274 -0.3403  0.1167 -0.0936
 5739W        W23263   3.856  15.941   0.715  0.0088  0.2482  0.3227
 5740W        W23264  10.919   6.764  15.247 -0.4048 -0.0878  0.3525
 5741W        W23265  15.120  12.018  15.054 -0.2567 -0.1739  0.0512
 5742W        W23266   0.237   4.079   4.658 -0.3664 -0.1387 -0.1854
 5743W        W23267  13.852  15.507   0.505 -0.2829  0.1916 -0.0215
 5744W        W23268  13.040   0.217   0.630  0.0207 -0.2378  0.2562
 5745W        W23269   6.273   6.678   2.884 -0.1711 -0.0194  0.0144
 5746W        W23270   8.173  12.278  13.789  0.0196  0.0693  0.0157
 5747W        W23271   4.084   5.176  14.553 -0.1320 -0.2219  0.3138
 5748W        W23272  15.125   7.729  12.280  0.1104 -0.2001  0.0256
 5749W        W23273  17.509   9.542  12.725 -0.4583 -0.1179  0.1089
 5750W        W23274   4.796  13.371   0.166 -0.1748  0.0185  0.1897
 5751W        W23275   2.133   3.135   2.345 -0.2366 -0.3026 -0.2278
 5752W        W23276  13.754  14.630   2.339  0.1345 -0.1607 -0.2679
 5753W        W23277   6.922  13.389   4.181  0.1898  0.0806  0.0320
 5754W        W23278   0.966   9.027  13.747  0.2710  0.0989 -0.0008
 5755W        W23279  13.330   3.320   2.512  0.2051  0.2895  0.0868
 5756W        W23280  15.273   2.563   5.189 -0.1013  0.0459  0.2432
 5757W        W23281   6.401   0.366  14.611 -0.0105  0.0382 -0.0118
 5758W        W23282  14.530  18.043  15.526  0.5496  0.0292  0.0897
 5759W        W23283   0.494  14.497   2.734  0.2142 -0.2401 -0.0414
 5760W        W23284   6.277  17.735  14.520  0.0190 -0.2345  0.0033
 5761W        W23285   1.840   8.313  14.960 -0.0475 -0.0610  0.4633
 5762W        W23286  18.477   8.920   2.565  0.0518  0.0992  0.1755
 5763W        W23287   4.407   9.779  15.617  0.1656 -0.1248  0.1096
 5764W        W23288  10.180  13.244  15.506 -0.1021 -0.0882 -0.1320
 5765W        W23289  11.006   6.907   3.284 -0.0383 -0.0566  0.3417
 5766W        W23290  11.316   7.290  13.187  0.1689  0.2942  0.0333
 5767W        W23291   0.604  10.251  11.467  0.2523  0.0099  0.2264
 5768W        W23292   3.445   0.196  13.975 -0.0833 -0.2872 -0.0225
 5769W        W23293   0.454   8.845   2.671 -0.0657 -0.1095 -0.0458
 5770W        W23294   4.516   2.881   4.711 -0.1215 -0.3387  0.0387
 5771W        W23295  14.981  16.577   3.053  0.2155  0.4086  0.2214
 5772W        W23296  16.888   3.593   2.430 -0.2540 -0.0580 -0.2583
 5773W        W23297  13.825  15.934  11.620 -0.0447  0.2171 -0.0308
 5774W        W23298   4.804  15.412   0.873 -0.0217 -0.0939  0.2701
 5775W        W23299   6.834   5.121  14.342 -0.1324  0.0172 -0.4120
 5776W        W23300  18.193   6.572   4.207 -0.0307  0.0373  0.0276
 5777W        W23301   7.979  11.569  12.688 -0.1790 -0.2813 -0.1612
 5778W        W23302  14.270   6.423  11.017 -0.0354 -0.0192 -0.2891
 5779W        W23303   9.063  17.931   0.929 -0.0259  0.0053 -0.2808
 5780W        W23304   8.508  16.107   1.987  0.0963 -0.0216  0.4622
 5781W        W23305   2.907  12.686   1.097  0.0378  0.0963 -0.0461
 5782W        W23306   7.938   7.895  15.418 -0.2342  0.1017 -0.1587
 5783W        W23307   5.744   8.521  10.900 -0.1331  0.0419  0.2930
 5784W        W23308   7.300  11.009   3.107  0.1753 -0.0411  0.0823
 5785W        W23309   8.186  12.446  14.943  0.1864 -0.0220  0.1956
 5786W        W23310   8.614  17.904   2.941  0.1641  0.0990  0.2394
 5787W        W23311   9.353  15.154   3.565  0.1860 -0.0810 -0.2925
 5788W        W23312   2.487   3.495  11.395 -0.2240  0.0447  0.2520
 5789W        W23313  14.182   5.214  13.665 -0.0163  0.1440  0.4911
 5790W        W23314   1.796   1.915  13.311 -0.1556  0.0381 -0.0256
 5791W        W23315   6.550   0.301   5.343  0.0200  0.0628  0.0488
 5792W        W23316   9.254   6.566   3.120 -0.0183  0.0210 -0.3007
 5793W        W23317   2.225  16.684   3.351 -0.1278  0.2208 -0.1782
 5794W        W23318  11.423   2.180   4.289  0.3032 -0.1144 -0.0271
 5795W        W23319   4.386  17.069  12.455  0.2382 -0.1066 -0.2613
 5796W        W23320  13.122   6.335   3.582  0.0961  0.1675 -0.1408
 5797W        W23321  14.784  17.825   0.234 -0.1232  0.1191 -0.1001
 5798W        W23322   7.939  15.571  14.625 -0.2961  0.0340  0.0525
 5799W        W23323  16.251  16.494   0.538  0.1134  0.0432  0.2459
 5800W        W23324   2.839   6.589   1.233 -0.3220 -0.1958  0.1110
 5801W        W23325  15.764  16.287   3.583  0.0811  0.2471 -0.0103
 5802W        W23326  14.909  14.689  13.282 -0.0997  0.0670 -0.2544
 5803W        W23327  10.345  12.711   4.352 -0.2298  0.2598 -0.0202
 5804W        W23328  16.023  11.962  11.047 -0.0260 -0.1285 -0.2050
 5805W        W23329   7.584   5.283  12.076  0.0686 -0.1791  0.2084
 5806W        W23330  11.474  18.287  14.482 -0.1537  0.3025  0.2374
 5807W        W23331   4.539  18.303   9.829  0.0629 -0.3962  0.1966
 5808W        W23332   6.313  16.885   3.115  0.0427 -0.5154 -0.1504
 5809W        W23333   6.383  10.565  10.729  0.1468  0.4408  0.1395
 5810W        W23334  13.150  12.093  11.782 -0.3028 -0.1301  0.0538
 5811W        W23335   8.177   5.553  12.803  0.0257 -0.2890 -0.0752
 5812W        W23336   7.092  11.600  13.052 -0.1060  0.2032 -0.1960
 5813W        W23337  18.055  14.253  13.026 -0.2414 -0.0543  0.0743
 5814W        W23338   8.673  14.377   4.558  0.1596  0.1312 -0.1855
 5815W        W23339  16.535  14.898   3.543 -0.1428 -0.1892  0.1384
 5816W        W23340  14.026  11.501   2.705  0.2029 -0.1445 -0.0531
 5817W        W23341   9.337   5.185  14.549  0.0016 -0.2284 -0.1504
 5818W        W23342   4.095   5.692  11.244  0.1003  0.0286 -0.1772
 5819W        W23343   9.899  16.282   0.312  0.1719 -0.4168  0.0909
 5820W        W23344   8.020  18.053   1.730 -0.1795  0.1697 -0.1368
 5821W        W23345  14.906  10.982   0.403 -0.2690 -0.1631  0.1365
 5822W        W23346  12.673   3.225   0.770  0.2707 -0.5039  0.1063
 5823W        W23347   3.694   7.348   1.867  0.0498  0.1403 -0.1375
 5824W        W23348   3.625   0.261  15.139  0.1723  0.0689 -0.3749
 5825W        W23349  13.790   8.229   0.757 -0.0166 -0.0911  0.0955
 5826W        W23350   3.880  12.937   3.096 -0.0142 -0.1621  0.3164
 5827W        W23351  16.571  17.915  12.365  0.0156  0.1217 -0.0325
 5828W        W23352  12.630   4.734   5.133  0.1391 -0.4210  0.0780
 5829W        W23353   4.952  12.305  12.957 -0.0279 -0.0232 -0.0345
 5830W        W23354   1.863   8.112   0.400  0.0280  0.3610  0.1102
 5831W        W23355   7.728  13.338   3.742  0.3739  0.3018 -0.0818
 5832W        W23356  11.602   6.162  11.643 -0.0241  0.2308  0.0322
 5833W        W23357   1.971  18.446   5.064  0.0813  0.4079  0.0307
 5834W        W23358  18.256   5.104  13.282  0.0042  0.2469  0.2701
 5835W        W23359   4.192  12.466   3.146  0.2428  0.1284  0.0987
 5836W        W23360  16.030   3.781   3.314  0.0565 -0.3941  0.1895
 5837W        W23361   4.630  18.385   5.738  0.0882 -0.1097 -0.1615
 5838W        W23362   2.489   3.641  14.361  0.0049  0.2695 -0.0839
 5839W        W23363   7.431  10.569   1.680 -0.0866 -0.0521 -0.1049
 5840W        W23364   7.216  12.628   2.696 -0.0460  0.0564  0.0625
 5841W        W23365  15.002   9.335   0.693  0.3810 -0.1200 -0.2774
 5842W        W23366   7.914   1.454  12.377  0.1400  0.1270 -0.1793
 5843W        W23367   9.992  16.437   0.957  0.0425  0.1632  0.2700
 5844W        W23368  16.336   5.015  13.042 -0.0717 -0.0948 -0.0556
 5845W        W23369   1.970   2.690  10.622 -0.2433 -0.1476 -0.1530
 5846W        W23370  17.120  15.244  13.906 -0.1322  0.1508  0.1577
 5847W        W23371   4.585   6.706  12.413  0.0242 -0.0568  0.0168
 5848W        W23372   6.305  14.722  13.102 -0.2914 -0.0503 -0.0959
 5849W        W23373  12.069  11.625   0.301 -0.1046  0.4942  0.1686
 5850W        W23374   2.045   3.969  13.573 -0.3043  0.1006 -0.0950
 5851W        W23375   3.355  18.079   3.954  0.0465 -0.0074  0.0673
 5852W        W23376  16.980  10.401   3.084 -0.1247 -0.0824  0.0709
 5853W        W23377  17.702   3.595  10.741 -0.1136  0.0791  0.2944
 5854W        W23378  12.756  13.417  11.981  0.0512  0.0194  0.2115
 5855W        W23379   5.630  14.355   3.183  0.0122 -0.0261 -0.1114
 5856W        W23380  15.488  14.405   2.707  0.0843  0.0800 -0.0774
 5857W        W23381  16.769   7.911   2.858  0.2227  0.0266  0.0264
 5858W        W23382  10.141   7.807  13.062  0.4299  0.0566 -0.2755
 5859W        W23383  10.090   2.214   5.011  0.0015 -0.0574 -0.2437
 5860W        W23384   9.072  10.496   2.293  0.0062  0.0893 -0.0011
 5861W        W23385   4.823  16.846   1.299  0.0097 -0.0758 -0.2284
 5862W        W23386  14.785  16.714   2.552 -0.0476  0.1163 -0.0477
 5863W        W23387  18.423   5.085  11.807  0.1474 -0.0977  0.0622
 5864W        W23388   4.699  18.075   0.987  0.5077 -0.0708 -0.2175
 5865W        W23389  16.537  12.996  11.927  0.0367 -0.0616  0.2350
 5866W        W23390   8.729  14.549   0.250 -0.3169  0.0459  0.2499
 5867W        W23391   8.844  16.898   2.041  0.0740  0.2130 -0.1537
 5868W        W23392   7.388  17.284   1.295  0.0863  0.3026  0.0369
 5869W        W23393  10.206   0.692  13.669 -0.0110 -0.2743 -0.1486
 5870W        W23394   7.839  15.389   0.167 -0.2100 -0.0382 -0.0060
 5871W        W23395   7.056   0.284  10.703 -0.0149 -0.2771 -0.0650
 5872W        W23396  14.637  17.342   0.142 -0.0752 -0.0159  0.0680
 5873W        W23397   6.328   1.025   0.537 -0.1783 -0.1463 -0.2242
 5874W        W23398  12.965   9.242  14.126 -0.0586  0.0592 -0.0944
 5875W        W23399  16.003   9.937   4.587  0.0875  0.1514  0.1307
 5876W        W23400  12.587   4.083  10.505  0.1092  0.1579  0.0813
 5877W        W23401  16.671   6.547  11.478  0.1007  0.2375 -0.2781
 5878W        W23402  15.524  16.942   1.384  0.0186  0.2110 -0.0441
 5879W        W23403  17.355   1.675  15.380  0.2922 -0.1064 -0.2237
 5880W        W23404   7.197   8.889  11.571 -0.0466  0.3742 -0.3638
 5881W        W23405   1.971   0.379   2.174  0.0018  0.1727 -0.1312
 5882W        W23406   2.300  12.668   4.767 -0.0794 -0.1825  0.4634
 5883W        W23407   2.633   2.183  10.105  0.2242  0.2516 -0.0598
 5884W        W23408   6.599   8.650   3.913  0.0356 -0.2351 -0.0865
 5885W        W23409   7.128   6.215   2.686 -0.1142 -0.1758 -0.2938
 5886W        W23410  10.613   6.216  15.456  0.2504  0.2900  0.1111
 5887W        W23411   7.923   0.794   3.791 -0.1886  0.6824  0.0315
 5888W        W23412  17.424  15.378   1.449 -0.0508  0.0777 -0.3471
 5889W        W23413  11.228  11.937  10.571  0.1180 -0.1820 -0.1172
 5890W        W23414   1.863   3.648  15.348  0.1816  0.2262  0.1988
 5891W        W23415   3.245   2.925   0.409  0.1801 -0.2840  0.5178
 5892W        W23416  16.349   9.070  12.002 -0.0200  0.0061  0.1110
 5893W        W23417  17.771   1.531  15.688 -0.4366 -0.1139 -0.0198
 5894W        W23418  16.975  11.264   1.006  0.0441 -0.2936  0.2297
 5895W        W23419   4.688  12.093  14.178  0.0732  0.0932  0.3183
 5896W        W23420  14.911   0.222   2.370 -0.2320 -0.1107 -0.0178
 5897W        W23421   1.325  15.020  12.753  0.1332  0.3505 -0.1288
 5898W        W23422  16.333   9.990  11.886 -0.2856 -0.0647 -0.0471
 5899W        W23423  11.404  10.772  13.647 -0.1720  0.0234 -0.0067
 5900W        W23424  11.011  10.905  14.440  0.2465 -0.1225  0.2142
 5901W        W23425   4.682   3.215   5.575 -0.0781 -0.2498 -0.2778
 5902W        W23426   9.329  13.793  11.353 -0.0844 -0.2822  0.0472
 5903W        W23427  13.292   6.418   0.978 -0.4726 -0.2553  0.0510
 5904W        W23428   8.639  15.387   3.729 -0.1197  0.0966 -0.2341
 5905W        W23429  15.423  12.443  12.514 -0.0001  0.1885  0.0091
 5906W        W23430  12.604  10.022   5.338 -0.1466  0.0185 -0.1240
 5907W        W23431   5.777  17.392   0.474  0.0576 -0.0505  0.0747
 5908W        W23432   9.778   3.544  15.619 -0.0786  0.0117  0.0030
 5909W        W23433   8.512   6.412   2.742  0.0034  0.3175 -0.0729
 5910W        W23434  14.188   4.227  11.766 -0.3013  0.0747  0.0077
 5911W        W23435   2.604  11.028   1.127 -0.2404 -0.1441 -0.1150
 5912W        W23436  14.881   0.978  13.720  0.1191 -0.0005  0.1378
 5913W        W23437  15.780   1.710  15.666  0.1236 -0.2218  0.1471
 5914W        W23438   4.737   3.281   1.341  0.0360 -0.1276  0.2283
 5915W        W23439   6.821   6.974  11.941 -0.0858 -0.1868 -0.1330
 5916W        W23440   7.950  15.939  15.675  0.0523  0.2699  0.3593
 5917W        W23441   4.542   7.836   0.187  0.0674 -0.2616 -0.0598
 5918W        W23442   5.612  10.172   3.560  0.1924 -0.3402 -0.1332
 5919W        W23443   3.931   7.996   3.644  0.3644  0.4856  0.0242
 5920W        W23444  11.820  15.871   1.804  0.1677 -0.0047  0.1390
 5921W        W23445   8.476   2.459  13.496  0.0283 -0.1486 -0.0641
 5922W        W23446   1.253   0.327  15.662  0.3227 -0.1490  0.0715
 5923W        W23447   5.950   6.760  14.153 -0.2834 -0.2334 -0.3673
 5924W        W23448   8.588  17.003   3.851  0.0158 -0.1444 -0.0023
 5925W        W23449   6.098   0.110  14.110  0.2692 -0.2835  0.0288
 5926W        W23450  11.879  10.637   0.315  0.0613 -0.0984 -0.5507
 5927W        W23451   0.592  10.515  14.597 -0.1634 -0.2348 -0.1694
 5928W        W23452   2.997   3.720   1.850  0.3451 -0.0344 -0.3064
 5929W        W23453   3.973   8.522   1.420 -0.1565 -0.1605  0.0673
 5930W        W23454  18.394  17.982  12.593  0.0245 -0.1651  0.1190
 5931W        W23455  14.631  11.291  12.104  0.1247 -0.1865 -0.3343
 5932W        W23456   2.743   7.250   3.944  0.2019 -0.0615 -0.0101
 5933W        W23457   2.715   6.407   2.056  0.1386 -0.0316 -0.3070
 5934W        W23458  17.671  16.224  12.153  0.1848  0.1414 -0.2549
 5935W        W23459  11.186   0.631   2.474 -0.0718  0.3720  0.0586
 5936W        W23460   3.679  11.437   4.012 -0.1042  0.0944  0.1254
 5937W        W23461   5.246  11.629   1.658  0.1195  0.2635  0.3384
 5938W        W23462   0.559  16.414   2.680  0.3218 -0.1893 -0.1420
 5939W        W23463   4.884  12.340  10.643 -0.3587 -0.2033  0.0031
 5940W        W23464   4.374  15.910   3.642  0.2519 -0.1193  0.4144
 5941W        W23465   0.657   6.451   4.269  0.0738 -0.1619  0.0914
 5942W        W23466  11.790   9.383  11.392  0.0641 -0.0086 -0.1613
 5943W        W23467   0.066  14.408   5.019  0.0778 -0.0302  0.2392
 5944W        W23468   5.724   3.955  10.245  0.2749  0.2899  0.1713
 5945W        W23469   0.544   3.942   0.711  0.1975  0.1517  0.1128
 5946W        W23470   0.032   6.397   3.760 -0.4483  0.1529 -0.0859
 5947W        W23471   4.253  15.908   5.531  0.1686 -0.0332 -0.1230
 5948W        W23472  17.531  13.855  14.066 -0.2094 -0.0704 -0.2295
 5949W        W23473   1.676   1.324   4.173 -0.1877  0.0953  0.2281
 5950W        W23474   0.478   6.749  15.286 -0.1968 -0.4020 -0.1549
 5951W        W23475   6.300   1.777   1.455 -0.1989  0.1630  0.1409
 5952W        W23476   7.924   4.143   2.623 -0.0239 -0.0719  0.1460
 5953W        W23477   0.152   9.225   1.775 -0.2398  0.3072  0.2922
 5954W        W23478   4.109  12.945  13.151 -0.2362  0.1501  0.1287
 5955W        W23479  15.475   3.995  13.804  0.0720  0.1564  0.2976
 5956W        W23480  12.598  11.707  14.096  0.0377  0.0858 -0.0050
 5957W        W23481   7.361   2.387   0.146 -0.1641  0.1085 -0.5983
 5958W        W23482   1.910   9.451  11.952  0.2332  0.0283  0.0536
 5959W        W23483   1.748   7.165  13.825  0.1607  0.2354 -0.3034
 5960W        W23484  13.418  16.658  10.598  0.1069  0.2024 -0.0632
 5961W        W23485  11.739   0.138  14.088 -0.0101  0.0797  0.3126
 5962W        W23486   1.317   2.788   2.930  0.3967  0.0676  0.0256
 5963W        W23487   0.824  13.967   3.524  0.0164 -0.3736  0.1805
 5964W        W23488   0.029   9.548  11.617 -0.1911 -0.2139 -0.2282
 5965W        W23489   3.571  14.738   2.891 -0.0345 -0.5114 -0.3360
 5966W        W23490  11.647   6.513  15.383  0.0080  0.1781 -0.0418
 5967W        W23491   7.372   5.122  14.347  0.0604  0.1046  0.0555
 5968W        W23492  15.095   2.461  11.493 -0.0777 -0.2464 -0.0466
 5969W        W23493   3.164  17.048   0.434  0.1366 -0.2259 -0.2588
 5970W        W23494  14.306  13.379   4.287  0.1240  0.0358 -0.3252
 5971W        W23495   1.919   3.102  12.532 -0.2304  0.1545  0.0247
 5972W        W23496   8.478  12.162   5.844  0.0573  0.0539  0.0501
 5973W        W23497  13.484   3.678  12.726  0.0677  0.1441 -0.1759
 5974W        W23498  14.115  10.135   0.253  0.0107 -0.0502 -0.1419
 5975W        W23499  16.344   5.639  10.937  0.0744 -0.0121  0.0122
 5976W        W23500  12.184   6.334   2.531 -0.1315  0.1995  0.1414
 5977W        W23501   3.029   4.069  12.353 -0.0689  0.0057 -0.0532
 5978W        W23502   0.779   0.565  11.252  0.2294 -0.2183  0.3036
 5979W        W23503  16.942  11.582  11.953  0.0954 -0.1315  0.1301
 5980W        W23504  14.589   6.837   4.085  0.0024 -0.0314 -0.1993
 5981W        W23505   0.628   5.748   2.044  0.0054 -0.2377  0.1996
 5982W        W23506   3.585  16.916   4.962 -0.1169  0.0043  0.1378
 5983W        W23507  11.391  14.626  14.204  0.0051  0.1643 -0.1490
 5984W        W23508   4.206  15.864   2.877 -0.1648 -0.2578 -0.1028
 5985W        W23509  13.816   9.592  15.142 -0.0968 -0.3209 -0.3069
 5986W        W23510   5.914  14.520   2.119  0.1590 -0.3045 -0.1782
 5987W        W23511  12.007  13.707   0.008 -0.3827  0.0694 -0.1592
 5988W        W23512  14.396   8.681   2.861 -0.0218  0.1615 -0.0705
 5989W        W23513  16.070  11.530  12.779  0.2981 -0.0670 -0.1790
 5990W        W23514   1.256   8.418  11.876 -0.1155 -0.1832 -0.0364
 5991W        W23515  14.540  12.257   3.528 -0.3830  0.0443  0.0344
 5992W        W23516   3.044   6.112  14.858  0.1808  0.0533 -0.1143
 5993W        W23517  14.130   5.552   3.046  0.1615 -0.2121 -0.1093
 5994W        W23518  11.833   7.362  10.148  0.1265 -0.0939  0.2132
 5995W        W23519  15.299   5.531   3.678  0.3048 -0.0023  0.0795
 5996W        W23520   5.129   5.906   3.653 -0.0959  0.1088  0.3173
 5997W        W23521  12.220  18.116   2.853 -0.0432 -0.1000  0.3632
 5998W        W23522   0.873   1.714  11.395  0.0788 -0.1135  0.1411
 5999W        W23523  12.391   6.351   2.959 -0.0994  0.3922 -0.4343
 6000W        W23524  17.674  16.974   2.796 -0.2672 -0.2097  0.0440
 6001W        W23525  11.098  11.613  13.246  0.0406 -0.2168  0.1888
 6002W        W23526  16.986  17.829   0.423 -0.1857  0.2148 -0.0472
 6003W        W23527  10.459   0.924  15.641 -0.1360 -0.0907  0.3162
 6004W        W23528  15.833   5.427  14.781 -0.0312  0.0802  0.2088
 6005W        W23529  10.398   0.702  12.205 -0.1126  0.2287 -0.1361
 6006W        W23530  12.703   4.574  11.940 -0.1013  0.0095  0.1651
 6007W        W23531  11.257  14.934   2.103 -0.0833 -0.2132  0.0585
 6008W        W23532   1.899  16.822  14.326 -0.0785 -0.1802  0.3893
 6009W        W23533   2.095   1.185   2.823 -0.0506 -0.0750 -0.0368
 6010W        W23534   6.504   2.522  14.549 -0.0893  0.0596 -0.0493
 6011W        W23535   3.955  16.382  15.299  0.2372 -0.3108  0.0400
 6012W        W23536  17.541  18.120  13.829  0.1945  0.1280 -0.0029
 6013W        W23537   0.335  13.870  13.797  0.1364 -0.2732 -0.1219
 6014W        W23538  17.680  15.310  11.727  0.1213  0.0966 -0.2319
 6015W        W23539   0.538   5.041   2.122  0.0940  0.3905  0.2287
 6016W        W23540   0.690   0.743  13.437 -0.1723 -0.3786  0.3164
 6017W        W23541  10.884  11.141   2.865  0.0389 -0.0181  0.2734
 6018W        W23542  14.672  16.926   3.350 -0.0067  0.3618  0.2725
 6019W        W23543   8.602   4.633  15.302 -0.1950 -0.0015  0.2408
 6020W        W23544   5.252   7.663   3.697 -0.0841  0.1063  0.1686
 6021W        W23545   3.886  18.257   5.135 -0.1693  0.4771  0.4542
 6022W        W23546  11.618  15.519   1.480 -0.0008  0.0245 -0.2214
 6023W        W23547   9.256  16.421   5.915 -0.2577 -0.4192 -0.0881
 6024W        W23548  13.001   9.548  14.529  0.0339 -0.0953 -0.0211
 6025W        W23549  13.563  17.857  12.063 -0.0485 -0.0221  0.0193
 6026W        W23550  12.777  12.865  13.337 -0.2364  0.0685 -0.0196
 6027W        W23551  16.006   0.802   0.522  0.1263 -0.1572  0.1213
 6028W        W23552  11.440   5.417   4.831  0.0711  0.1928 -0.1477
 6029W        W23553  10.798   5.914   4.468  0.1944  0.1721  0.2021
 6030W        W23554   4.158  17.806   5.210 -0.1188 -0.1045  0.1092
 6031W        W23555   9.425   5.767  12.675  0.0183 -0.0036 -0.1164
 6032W        W23556  15.960  11.656  15.216  0.0839  0.0414  0.0802
 6033W        W23557   8.871   6.490   4.593 -0.0786  0.2668  0.2894
 6034W        W23558   7.427   6.224  13.705  0.0322  0.1241  0.0011
 6035W        W23559  15.655   5.277  13.866 -0.1639 -0.1164 -0.1441
 6036W        W23560   6.087  15.144   0.341  0.1924  0.3550  0.2035
 6037W        W23561  16.396   7.254   5.037 -0.0283 -0.1234  0.1164
 6038W        W23562   7.368   8.630   3.104  0.1336 -0.1835 -0.1747
 6039W        W23563  11.633   9.788   0.936  0.3649  0.0001  0.0430
 6040W        W23564  14.586  11.250   0.704 -0.3026  0.0297 -0.0730
 6041W        W23565  16.405  15.203  13.496  0.0441 -0.1769 -0.3042
 6042W        W23566   1.022   4.533   4.407  0.0964  0.1584  0.1821
 6043W        W23567   9.111  15.987   4.883 -0.1446  0.0600  0.1518
 6044W        W23568  10.254   8.448   2.655 -0.4718  0.0390  0.1829
 6045W        W23569   7.956  11.783  13.443  0.1743  0.1975 -0.0780
 6046W        W23570   7.719  15.933  11.741 -0.2556 -0.0809  0.0487
 6047W        W23571   5.699  17.182  12.614 -0.2589 -0.0443 -0.0504
 6048W        W23572  15.526   3.533  12.980  0.1977 -0.5101 -0.2254
 6049W        W23573   1.533  11.727   2.480  0.1055  0.0210  0.1557
 6050W        W23574  12.990  10.968  12.471  0.1039  0.3041  0.4304
 6051W        W23575   5.004   0.029   0.939 -0.1254 -0.0578 -0.2074
 6052W        W23576   8.371   4.325   1.596 -0.1457 -0.5501  0.3419
 6053W        W23577  13.811  12.652   0.176  0.0600  0.0156  0.0971
 6054W        W23578  15.986   7.205  13.940 -0.0782  0.2951  0.2774
 6055W        W23579  15.962   2.532   1.108  0.1389  0.6372  0.0593
 6056W        W23580  15.089   3.784   1.529  0.2859  0.1181  0.1583
 6057W        W23581   6.576  14.157   0.939 -0.0861 -0.4367 -0.2916
 6058W        W23582   5.118   0.212   0.434  0.1114  0.2263  0.0838
 6059W        W23583  16.201   6.639  14.922 -0.0843 -0.0525 -0.0292
 6060W        W23584   6.631  17.304  11.088 -0.1994 -0.2562 -0.2476
 6061W        W23585  17.098  13.802   1.866  0.2824  0.2939  0.2060
 6062W        W23586   6.434   8.077  13.780 -0.1798  0.0939  0.0078
 6063W        W23587   4.474  16.416   1.970 -0.1830  0.1169  0.0880
 6064W        W23588  14.270   3.247  12.001 -0.1066 -0.0144 -0.1154
 6065W        W23589   8.879  12.438   3.106  0.3530 -0.2540 -0.0887
 6066W        W23590   7.025   8.398   1.632  0.2806  0.0918 -0.1975
 6067W        W23591   5.443   0.371  14.642  0.3730  0.1653  0.1503
 6068W        W23592   1.556  13.861   5.510 -0.0789  0.1409 -0.2607
 6069W        W23593  13.759   7.251   2.031  0.1448 -0.3146  0.1315
 6070W        W23594   2.857  11.594   3.646 -0.1132  0.0375  0.2857
 6071W        W23595   1.404  10.191  12.495 -0.1578  0.1225 -0.0456
 6072W        W23596   8.380   2.619  14.924  0.2074  0.1253 -0.3288
 6073W        W23597   7.309   0.082  13.511 -0.1550 -0.0338 -0.1747
 6074W        W23598   0.669  17.490   1.987 -0.4646 -0.0843 -0.3377
 6075W        W23599   0.404  13.121   0.980  0.0103 -0.2273 -0.0646
 6076W        W23600   6.999  17.138   4.950  0.0395  0.2341 -0.1706
 6077W        W23601   9.899  10.222   1.108  0.0903 -0.1966 -0.2931
 6078W        W23602  16.371   7.323   0.940 -0.1318  0.1434 -0.0136
 6079W        W23603  14.431   8.378   0.170 -0.2784  0.0546  0.1347
 6080W        W23604  15.717  17.211   5.193  0.0346  0.1239 -0.0505
 6081W        W23605  14.835   1.470   1.003 -0.0127 -0.1714  0.1684
 6082W        W23606  16.866  18.106  13.339  0.2499  0.4462  0.4593
 6083W        W23607   8.991  18.308   2.777  0.2769  0.0304  0.0748
 6084W        W23608   2.308   4.461   5.322 -0.4976  0.1170 -0.0706
 6085W        W23609   8.618  16.153  14.936  0.0764 -0.1911 -0.0491
 6086W        W23610  17.666  17.459   4.227  0.3018  0.1997  0.1201
 6087W        W23611  12.190  16.108   5.076  0.2018  0.1865 -0.0125
 6088W        W23612  15.364   3.144  14.238 -0.1426 -0.0467  0.2569
 6089W        W23613   0.122   0.494   1.223 -0.0429 -0.0279 -0.1045
 6090W        W23614   1.819  10.995  11.437  0.0202 -0.0327  0.3338
 6091W        W23615   9.539  13.046   4.187 -0.0738 -0.3868  0.0789
 6092W        W23616   3.007  10.593  10.687  0.3547 -0.0388  0.0042
 6093W        W23617  10.157   3.221  13.232 -0.0495  0.0267 -0.0494
 6094W        W23618   2.883   8.225   0.932 -0.0952  0.2069  0.1877
 6095W        W23619   6.204  17.184   0.735 -0.2548 -0.2307 -0.0149
 6096W        W23620   4.379   1.179  13.707 -0.0483  0.1055 -0.0499
 6097W        W23621   0.971  14.436   3.440  0.2982 -0.0204  0.0590
 6098W        W23622  11.837  10.632   2.196 -0.1283 -0.1915  0.1543
 6099W        W23623   7.034  16.253  15.668  0.0089 -0.2511 -0.2166
 6100W        W23624   5.685   1.921   2.676  0.2878 -0.1755  0.0801
 6101W        W23625  11.200   3.094   0.196 -0.0408 -0.0600 -0.1760
 6102W        W23626   4.666  18.325  12.879 -0.0843 -0.1780 -0.1884
 6103W        W23627   7.235   9.811  11.951 -0.1031  0.1636 -0.2430
 6104W        W23628   6.085  13.511   4.037  0.0066 -0.2838  0.0059
 6105W        W23629   4.530   6.403  15.719  0.0143 -0.2893  0.2527
 6106W        W23630  17.032   7.010   4.208 -0.0163 -0.2796  0.1161
 6107W        W23631  14.263   9.224  12.035  0.1099  0.1167 -0.0912
 6108W        W23632  17.949  10.721   0.506 -0.0206 -0.2532 -0.1927
 6109W        W23633   1.822  12.309  14.529  0.1350 -0.0279 -0.1148
 6110W        W23634  16.879  13.585  12.964 -0.1125 -0.1095  0.0100
 6111W        W23635   6.425  15.485   3.754  0.4104  0.1544  0.0630
 6112W        W23636   8.611   5.170  14.037 -0.1783  0.5366  0.1838
 6113W        W23637  15.824   5.259   1.423  0.2480 -0.2759 -0.1298
 6114W        W23638  12.626   3.685   4.185 -0.1294  0.2507 -0.0513
 6115W        W23639  16.975   3.774  13.535 -0.3109 -0.1948  0.1830
 6116W        W23640   4.796   3.972  12.196 -0.1451 -0.3630  0.2012
 6117W        W23641  10.048  16.210   5.756  0.0026  0.0049  0.2568
 6118W        W23642   0.646  15.634  12.096 -0.1193 -0.1668  0.0004
 6119W        W23643  16.352  15.746   4.952  0.0408 -0.0062  0.1336
 6120W        W23644  14.160   9.165   1.948 -0.4364 -0.0295  0.3154
 6121W        W23645   4.072   9.636  13.740  0.0278 -0.1384 -0.1288
 6122W        W23646   2.788  14.598  15.709  0.1829  0.1758  0.0562
 6123W        W23647  14.064   0.975  15.176  0.1033  0.0202  0.0895
 6124W        W23648  13.804   5.283  11.114  0.3319  0.0193  0.1331
 6125W        W23649   7.370  11.545  11.668  0.1276 -0.0894 -0.0778
 6126W        W23650  16.113   1.531   4.187 -0.1242  0.0178  0.0260
 6127W        W23651   5.912  12.590   4.484 -0.1086  0.0921 -0.2428
 6128W        W23652   5.777  18.258  15.534  0.0686 -0.0599 -0.0153
 6129W        W23653   0.474  12.283  14.643 -0.2835  0.0113 -0.2656
 6130W        W23654   9.950  16.166   3.341 -0.0920  0.0380  0.0063
 6131W        W23655  10.092  17.346   1.741  0.2327  0.5525 -0.0641
 6132W        W23656   3.091   0.594   4.775  0.2654 -0.4121  0.1878
 6133W        W23657  10.276   7.673   4.203  0.0672  0.1046  0.3539
 6134W        W23658  12.880  17.423  12.746 -0.1115  0.2622 -0.0851
 6135W        W23659  13.425   7.682   2.864 -0.0223 -0.1742 -0.4964
 6136W        W23660   9.399   7.594  13.698  0.0617 -0.0518 -0.1686
 6137W        W23661   2.593  18.158   0.655  0.1995  0.3801 -0.3274
 6138W        W23662  15.910  15.902  11.868  0.4567 -0.0054  0.0247
 6139W        W23663   0.617  17.820  11.743 -0.0631 -0.0843 -0.3883
 6140W        W23664   9.154  15.608  15.012  0.0512  0.1771  0.0928
 6141W        W23665   0.346   8.452   5.143  0.2814  0.1459 -0.0268
 6142W        W23666  17.949   9.944  13.017  0.2317  0.3771  0.0978
 6143W        W23667   3.692   4.977  11.533 -0.0257 -0.0150  0.3662
 6144W        W23668   7.125  17.960  12.715 -0.1453 -0.0378  0.0887
 6145W        W23669   2.726  13.678   2.554 -0.4253  0.0086  0.0881
 6146W        W23670   9.412   5.291   1.479 -0.2367  0.2135  0.1858
 6147W        W23671   4.516  12.288   2.621 -0.3375 -0.0879 -0.0627
 6148W        W23672   7.477   4.946  10.978 -0.2053 -0.3775 -0.0040
 6149W        W23673   0.966   1.468  14.641 -0.0035 -0.3122 -0.0044
 6150W        W23674   2.929  12.550   4.064 -0.0813 -0.2244 -0.0555
 6151W        W23675   2.938   9.958  12.891 -0.1817 -0.3749 -0.2580
 6152W        W23676  16.501  17.119   0.480 -0.2893  0.0769  0.0692
 6153W        W23677  12.514   0.279   4.446  0.0578  0.0224 -0.3487
 6154W        W23678  15.817   0.154   3.827 -0.2276  0.0099 -0.2141
 6155W        W23679  18.004  18.351  11.698 -0.0070  0.1587  0.2610
 6156W        W23680  18.100   4.675   4.175  0.1098 -0.3287  0.0844
 6157W        W23681   2.905   4.580  12.703 -0.1775  0.1132  0.0584
 6158W        W23682   3.767   2.383  15.167  0.1064 -0.0213  0.0640
 6159W        W23683  15.625   9.099  15.117 -0.2862  0.1322 -0.0250
 6160W        W23684  17.416   1.203  12.738  0.2219  0.2659  0.0750
 6161W        W23685   3.651   0.273   1.427 -0.0774 -0.1295 -0.0019
 6162W        W23686   6.813   5.553   2.451 -0.1895  0.1026 -0.0483
 6163W        W23687  12.068   4.501  14.266 -0.0238  0.0495  0.2702
 6164W        W23688   7.147   6.852  13.645 -0.0778 -0.1830 -0.0006
 6165W        W23689  16.585  11.912  11.098 -0.1631 -0.0582 -0.0165
 6166W        W23690   5.947   2.283   0.140 -0.0602  0.0191 -0.0101
 6167W        W23691  17.377   1.122  13.990  0.1020 -0.3776  0.2615
 6168W        W23692   6.299  11.693   1.029  0.0026 -0.0733 -0.0053
 6169W        W23693  11.086   6.407   0.398 -0.0700 -0.3338 -0.3695
 6170W        W23694  18.346   1.725   2.784  0.1217 -0.0519  0.1738
 6171W        W23695  18.438   8.762  15.000 -0.0751  0.0240 -0.2810
 6172W        W23696  17.624  10.141  13.424 -0.0037  0.1458  0.0952
 6173W        W23697   8.677   7.580  11.113 -0.0930 -0.1656 -0.2838
 6174W        W23698  16.938   2.183   1.136 -0.2015 -0.1368  0.0102
 6175W        W23699  14.440   1.697   2.894  0.2374  0.0748  0.4562
 6176W        W23700  10.998   1.315   1.691  0.1209 -0.0395 -0.0822
 6177W        W23701  15.840  14.272   3.870  0.0835 -0.1452 -0.1166
 6178W        W23702   0.954   5.651   1.018  0.0120  0.0040  0.1862
 6179W        W23703  17.263  15.937   4.429  0.0833 -0.0880 -0.1733
 6180W        W23704   4.226  10.488   0.725 -0.2518 -0.1411  0.2517
 6181W        W23705   1.070  16.697  13.207 -0.0052  0.3122 -0.3228
 6182W        W23706  16.274   3.105  12.288  0.1666 -0.0470  0.1519
 6183W        W23707  16.648   8.582  15.286  0.2832  0.0562 -0.1036
 6184W        W23708  12.360  12.231   4.284  0.2997  0.0826 -0.0946
 6185W        W23709   8.794   7.236   2.528 -0.0914  0.1152 -0.1112
 6186W        W23710   6.907  13.094  13.325  0.0054 -0.2437 -0.1359
 6187W        W23711   5.416  11.079   0.272 -0.1705 -0.1833  0.1715
 6188W        W23712   6.745   4.104   3.584 -0.0976 -0.0424  0.1513
 6189W        W23713  11.313   1.372   0.830  0.1148  0.2653 -0.0499
 6190W        W23714  10.022  11.885   1.573 -0.3272  0.1937 -0.1871
 6191W        W23715  13.998   8.361  14.524 -0.2032 -0.1371 -0.0146
 6192W        W23716  10.559   2.483   4.061 -0.0172  0.0072 -0.1782
 6193W        W23717   5.744  18.104  12.289 -0.0207 -0.1256 -0.1065
 6194W        W23718   7.490   0.964   2.855 -0.1264  0.0207 -0.0241
 6195W        W23719  10.185   3.665   4.196  0.0150  0.1777  0.1577
 6196W        W23720   3.022   2.025   0.044 -0.0972  0.1546 -0.1095
 6197W        W23721  10.602   5.166   2.705  0.0933  0.0149 -0.5162
 6198W        W23722  14.333   1.693   3.428 -0.1541 -0.0847  0.0589
 6199W        W23723   9.366   8.479   3.035 -0.3135 -0.1143 -0.0318
 6200W        W23724  18.150   1.138   4.400  0.3476 -0.0474  0.1622
 6201W        W23725  17.914  13.011  14.605 -0.0947  0.2330  0.2299
 6202W        W23726   2.647  15.957   3.895 -0.1092 -0.1094  0.0685
 6203W        W23727  12.181  13.509   0.825 -0.0541 -0.0558  0.0336
 6204W        W23728  10.883   1.076   5.076 -0.0059 -0.2711 -0.0520
 6205W        W23729  11.830  17.167  12.775  0.1912 -0.0729  0.0116
 6206W        W23730   4.900   2.982  11.892 -0.1409  0.0037 -0.0865
 6207W        W23731  11.135   7.794   1.171 -0.0746 -0.1158 -0.0033
 6208W        W23732  12.948   9.624   5.435 -0.0730 -0.1737 -0.0409
 6209W        W23733  11.233   2.914   4.504  0.3600 -0.2453 -0.3051
 6210W        W23734  16.854  14.756   2.425  0.2574 -0.5441 -0.0588
 6211W        W23735   6.882  17.374  12.881 -0.1034 -0.2188 -0.1021
 6212W        W23736  18.133  15.225  15.389  0.0457 -0.1273  0.1618
 6213W        W23737  11.172   5.162  12.981  0.2858  0.2586  0.1749
 6214W        W23738  14.065   4.679   4.088 -0.4150 -0.0427  0.4215
 6215W        W23739  17.220  18.436  13.516 -0.1907  0.0175 -0.1513
 6216W        W23740   6.128   1.876   4.702 -0.1480  0.0899 -0.2473
 6217W        W23741   3.263   1.732  10.470  0.2988 -0.0372 -0.4190
 6218W        W23742   1.365  17.014  11.492  0.0554 -0.2513  0.0279
 6219W        W23743   8.364   8.159   2.065  0.1023 -0.1175 -0.0176
 6220W        W23744  10.592   9.737   4.717 -0.0208 -0.4064 -0.1270
 6221W        W23745   0.915   9.413  11.956 -0.2567  0.3116 -0.3823
 6222W        W23746  11.656  15.874  14.310  0.0340 -0.1033 -0.1216
 6223W        W23747   2.581  12.277  13.984  0.2447  0.2395  0.1989
 6224W        W23748  16.303  15.491   2.493  0.0251  0.1898 -0.4464
 6225W        W23749  14.877   1.946  14.232  0.2629 -0.0377  0.0153
 6226W        W23750   7.157   4.265   3.143  0.2527  0.0375  0.0932
 6227W        W23751   5.043   2.570  11.635 -0.4915 -0.1642 -0.0087
 6228W        W23752   2.436  15.490   4.402 -0.1349  0.1217 -0.1110
 6229W        W23753  10.760  17.741   2.331 -0.4195  0.0576 -0.1794
 6230W        W23754  18.401  14.753  15.311  0.0134 -0.3376  0.3603
 6231W        W23755   7.206   8.069  12.228  0.2038  0.0359 -0.0348
 6232W        W23756   9.873   1.910  12.736  0.3890  0.1449 -0.1907
 6233W        W23757  11.295   5.009   4.970 -0.0550 -0.0842 -0.0873
 6234W        W23758   2.417  14.179   4.807  0.0721 -0.1756 -0.2561
 6235W        W23759   0.402   4.798  12.036 -0.1458 -0.1030 -0.1530
 6236W        W23760  15.515   5.584  10.766  0.3915 -0.0146 -0.1155
 6237W        W23761  14.044  15.988   5.020  0.4302  0.0042  0.2477
 6238W        W23762  11.893  17.666  14.444 -0.3478  0.0000 -0.0558
 6239W        W23763   7.692  13.244  12.423  0.0296  0.1241  0.1308
 6240W        W23764  13.452   2.219  14.617 -0.0309  0.3936 -0.0399
 6241W        W23765   5.551   5.026  11.143 -0.0248 -0.0779 -0.2085
 6242W        W23766  12.505  12.776   1.339  0.0918 -0.1370  0.1924
 6243W        W23767   7.168   4.309  14.805 -0.1196 -0.1922  0.2147
 6244W        W23768  11.730  18.178  10.280 -0.4547 -0.1605  0.3434
 6245W        W23769   6.769  11.541  14.789 -0.1742 -0.1474  0.1856
 6246W        W23770   4.283   8.437  14.372 -0.0974 -0.2575  0.0543
 6247W        W23771  17.978   2.414  10.916 -0.1832 -0.1897 -0.1436
 6248W        W23772  16.969  13.513  15.446 -0.1532  0.2570  0.1599
 6249W        W23773  11.606   8.411  12.419 -0.0500  0.1968 -0.0474
 6250W        W23774   2.998   4.871   2.472  0.0532  0.2563 -0.0975
 6251W        W23775  14.762   6.184   4.210 -0.0476 -0.2239  0.0103
 6252W        W23776  14.795  10.096  10.762  0.2929  0.0064 -0.2079
 6253W        W23777   3.163  12.209   1.789  0.2468 -0.0393 -0.0109
 6254W        W23778   6.230   2.347  11.631 -0.1008 -0.1432  0.0017
 6255W        W23779   8.592   1.971   0.333  0.0377 -0.4009 -0.6434
 6256W        W23780   0.089   7.259   0.036  0.0812  0.0141  0.0054
 6257W        W23781   6.902  14.922  14.453  0.2034  0.1987 -0.0973
 6258W        W23782   7.141   2.337   2.124 -0.0367  0.1967  0.5793
 6259W        W23783  15.260  12.151   4.140 -0.5072 -0.2035  0.1857
 6260W        W23784   7.251   2.371   4.853  0.3407  0.0003 -0.3040
 6261W        W23785   9.633   0.934  12.759  0.1677  0.0810  0.0994
 6262W        W23786  16.689   8.031   5.527 -0.2997 -0.0413  0.3219
 6263W        W23787   7.057  14.765  12.408  0.3550  0.0662 -0.2724
 6264W        W23788   7.863   8.482   3.690 -0.1435 -0.2753 -0.0134
 6265W        W23789  12.171  13.771   4.440 -0.0199  0.0013  0.2341
 6266W        W23790  18.314   7.813   3.137  0.1127  0.4481 -0.0786
 6267W        W23791   8.731  13.746   1.585  0.0835 -0.2984 -0.1382
 6268W        W23792  16.765  12.873   2.044 -0.2913 -0.1793 -0.1198
 6269W        W23793   2.193  17.987  13.326  0.0246 -0.2299 -0.2269
 6270W        W23794   3.753   1.196   0.790  0.0219  0.1449  0.1541
 6271W        W23795   7.527   6.584   4.876 -0.2624  0.0486  0.1046
 6272W        W23796   0.960  15.513   3.682  0.0782  0.1065  0.0803
 6273W        W23797   8.988   2.470  13.601 -0.0085 -0.0647 -0.0915
 6274W        W23798  10.147   8.896   4.553  0.1759 -0.0947  0.4373
 6275W        W23799   8.662  16.693   0.369 -0.3847  0.3604  0.0325
 6276W        W23800  10.319  15.842  11.078  0.1878 -0.0415 -0.0765
 6277W        W23801  13.760  17.091   0.605 -0.1214  0.2723 -0.1189
 6278W        W23802   8.669   2.902  13.395  0.0837 -0.1120 -0.0084
 6279W        W23803  15.741   9.854   0.658  0.1809  0.1241 -0.2268
 6280W        W23804   2.267   1.153   5.808 -0.0542 -0.0095  0.0175
 6281W        W23805   1.725  14.295  13.726 -0.1296 -0.1434  0.2080
 6282W        W23806   7.501   2.232   0.550  0.2598 -0.0127  0.0796
 6283W        W23807  17.039  12.254   3.232  0.0815 -0.0036 -0.2512
 6284W        W23808  16.961  14.006  14.035  0.2194  0.1400 -0.2238
 6285W        W23809   7.730   8.076  12.396 -0.0875 -0.4435 -0.0242
 6286W        W23810   8.674  15.713  12.558 -0.0143 -0.0795  0.2851
 6287W        W23811   7.019   6.669  12.262 -0.1203  0.3284 -0.2160
 6288W        W23812  11.763   9.396  14.427 -0.0628  0.1551  0.1969
 6289W        W23813   8.753  14.587  15.236  0.1199 -0.0219  0.0271
 6290W        W23814   1.234   9.757   0.329  0.0947 -0.2048  0.0111
 6291W        W23815  10.270  15.721  15.632  0.1582 -0.2983 -0.1413
 6292W        W23816  11.264   7.069   3.942  0.1891 -0.0278 -0.1710
 6293W        W23817  11.973  15.292   2.720  0.0241 -0.0349  0.2406
 6294W        W23818  11.270  14.080   2.464  0.0566  0.0999 -0.0175
 6295W        W23819  15.729   1.732  13.029 -0.0497  0.2014 -0.1863
 6296W        W23820   4.456   2.618   1.644 -0.0145  0.0464 -0.0331
 6297W        W23821   0.422   8.498  13.241 -0.1575 -0.0348 -0.0619
 6298W        W23822  17.235  12.586  12.445  0.2870 -0.0803  0.2160
 6299W        W23823  16.757   4.260  15.293 -0.1879 -0.0196  0.0516
 6300W        W23824   8.769   3.057  12.752 -0.2355  0.2159 -0.2090
 6301W        W23825   2.590  11.256   4.165  0.0810 -0.0594  0.1687
 6302W        W23826   2.409   4.275  11.476  0.1037 -0.0160  0.1983
 6303W        W23827  12.087   7.925   4.167  0.0659  0.1145 -0.0408
 6304W        W23828   1.170  18.067   0.696  0.0881 -0.1881 -0.0440
 6305W        W23829   4.299   1.770  14.888  0.2909 -0.0501 -0.1421
 6306W        W23830   7.640  17.191  15.021 -0.0610 -0.1824  0.2198
 6307W        W23831  10.019   9.039  14.982 -0.1843 -0.2194 -0.0347
 6308W        W23832  15.282   6.354  15.451 -0.0127 -0.1602  0.2635
 6309W        W23833   5.247   6.674  13.536  0.1072  0.2028 -0.0142
 6310W        W23834   9.834   6.176  11.772  0.3302 -0.1623 -0.2176
 6311W        W23835   1.036   4.943   2.037  0.2545 -0.0086  0.1397
 6312W        W23836  12.420   2.888  12.428 -0.1670  0.2637  0.2653
 6313W        W23837  14.914  16.291   0.228  0.1924 -0.1853 -0.0016
 6314W        W23838  12.162  13.193   0.360 -0.1897 -0.0061  0.0675
 6315W        W23839   4.024   0.455  15.420 -0.3364  0.4146  0.1248
 6316W        W23840   8.331   8.457   1.571 -0.0083  0.5679 -0.0511
 6317W        W23841  14.289   1.114  13.134 -0.4157 -0.2907  0.0964
 6318W        W23842   1.716  14.786   4.835 -0.3451 -0.0028 -0.2921
 6319W        W23843  17.300  15.810  13.305  0.1035  0.0030  0.1263
 6320W        W23844   9.746  15.410  11.606  0.3820 -0.1730 -0.0984
 6321W        W23845  17.281   3.945  14.264 -0.2404 -0.0296 -0.0538
 6322W        W23846   5.072  12.120   2.336 -0.0072 -0.4710  0.3127
 6323W        W23847  11.444   1.322  14.502 -0.0509 -0.2063 -0.1067
 6324W        W23848  10.179   6.605   0.687 -0.1071 -0.1584 -0.0664
 6325W        W23849   4.308   7.818  13.867  0.3609  0.1406  0.1314
 6326W        W23850   4.783  15.311   4.043  0.1953  0.2269  0.2069
 6327W        W23851  12.651   4.661   4.610 -0.0392 -0.3177 -0.0631
 6328W        W23852  14.966  15.164  11.628  0.5226  0.0010  0.0390
 6329W        W23853   5.684   2.667   4.541 -0.0239 -0.3504  0.0092
 6330W        W23854   7.645   9.815  12.885  0.1443 -0.1051  0.1659
 6331W        W23855  11.113   9.117   1.428  0.0437 -0.3536 -0.0459
 6332W        W23856   3.578  14.008  11.305 -0.3655 -0.1420 -0.2907
 6333W        W23857  13.759  14.462  13.672 -0.2221 -0.3768 -0.3289
 6334W        W23858  11.557  13.599  11.651 -0.3185  0.1518 -0.1016
 6335W        W23859  13.022   3.967  14.632  0.4738  0.1439  0.2547
 6336W        W23860   7.619  11.686   0.921 -0.1221 -0.1208  0.1276
 6337W        W23861   0.245   4.378  10.689  0.0699  0.1119  0.0353
 6338W        W23862   2.465  16.427   5.882  0.0435  0.0674 -0.1538
 6339W        W23863  10.579  10.548   4.378  0.0081  0.0267 -0.0848
 6340W        W23864  11.361   5.619   3.024  0.0355  0.0218  0.1734
 6341W        W23865  18.372   3.561  11.830 -0.0105 -0.2342  0.2247
 6342W        W23866  16.509  12.864   4.372 -0.2807 -0.0967  0.0622
 6343W        W23867  11.296  12.896  14.119  0.1521 -0.1954  0.0963
 6344W        W23868  13.456   4.945   3.526 -0.1808 -0.0234  0.0617
 6345W        W23869   0.985   8.334  14.378  0.1946  0.1816  0.0240
 6346W        W23870   9.230   1.516   1.880  0.1719 -0.2746  0.1954
 6347W        W23871   9.675   6.105   3.984  0.0120 -0.0516  0.4757
 6348W        W23872   8.579  12.667   3.546  0.0430  0.0409  0.0256
 6349W        W23873   8.619  12.008   1.642  0.1638 -0.0383 -0.1392
 6350W        W23874   5.965   3.907   4.054 -0.2187 -0.0375  0.2082
 6351W        W23875  16.946   8.021   4.418  0.1972 -0.1712 -0.1191
 6352W        W23876  11.307   2.829   3.487  0.1622 -0.0850  0.0883
 6353W        W23877   1.387   1.076   0.527  0.1262 -0.1102 -0.0695
 6354W        W23878   9.897  13.382  15.094  0.3107  0.2358  0.0746
 6355W        W23879   0.693  14.136   1.872 -0.0398 -0.1082 -0.2062
 6356W        W23880   7.527   6.761  11.998  0.1973 -0.0108  0.0868
 6357W        W23881  13.886   9.432   4.224 -0.1193  0.3952 -0.1261
 6358W        W23882   9.065  11.251   3.238 -0.1199 -0.0377  0.1944
 6359W        W23883  11.601   9.568   4.786  0.1905  0.3198  0.0232
 6360W        W23884   9.805  12.281   1.312 -0.3026 -0.3663 -0.0773
 6361W        W23885  14.101  14.615   4.903 -0.0716 -0.3303 -0.2409
 6362W        W23886  14.242   6.759   2.025 -0.1617  0.2907 -0.0115
 6363W        W23887   5.894  14.102  15.051 -0.2338  0.0985  0.3296
 6364W        W23888  13.452   3.613   2.871 -0.3190  0.2134  0.1492
 6365W        W23889   6.302   4.615   3.175  0.3653 -0.1089  0.1276
 6366W        W23890   8.584  16.251   3.816  0.0255  0.0343 -0.0704
 6367W        W23891   5.933  11.298   2.410 -0.0204 -0.1280 -0.1091
 6368W        W23892   8.003   1.127  14.570  0.0033  0.0317 -0.0101
 6369W        W23893   8.313  12.994   4.860  0.2294  0.3082  0.1655
 6370W        W23894   1.195  12.146   2.259 -0.0592  0.0714  0.0659
 6371W        W23895   6.619   2.807  12.512  0.1814  0.0615  0.0616
 6372W        W23896   4.926  11.385   2.996  0.1516  0.3381  0.0328
 6373W        W23897  12.713   6.431   2.093 -0.1534  0.0396  0.1176
 6374W        W23898   2.323   5.699  12.369  0.0882  0.1856 -0.0610
 6375W        W23899  16.798   5.323  11.582 -0.0503  0.0877 -0.2945
 6376W        W23900  13.865   7.110   0.506 -0.0538 -0.1290  0.2465
 6377W        W23901  10.516   4.353  11.327 -0.0087 -0.1632  0.1478
 6378W        W23902   2.887  10.456  12.630  0.0012  0.3575 -0.1823
 6379W        W23903   0.364  10.239  15.486 -0.0250 -0.1331  0.2522
 6380W        W23904   5.899   3.889  13.572 -0.0745 -0.1856 -0.1118
 6381W        W23905  12.254  16.566   3.827 -0.1222 -0.1763  0.0969
 6382W        W23906  11.657  14.896   3.141  0.0877  0.0200 -0.1065
 6383W        W23907   6.379   7.034   2.382 -0.2194  0.1620 -0.2947
 6384W        W23908  14.308  15.963   1.047 -0.2242 -0.1449 -0.0324
 6385W        W23909   3.459  10.684   0.251 -0.0294 -0.0793  0.2362
 6386W        W23910   2.243  12.161   2.551  0.1025  0.0593  0.1421
 6387W        W23911   6.997  13.401   2.447  0.2036  0.1911  0.0866
 6388W        W23912   9.139  11.790   0.121 -0.0951  0.1716  0.2075
 6389W        W23913  12.814   6.037  10.693  0.0705 -0.0691  0.0234
 6390W        W23914  14.929  17.766  13.650  0.0185  0.1028 -0.0124
 6391W        W23915   9.873   0.124  15.319 -0.0650 -0.0800 -0.0157
 6392W        W23916   2.745   7.590  12.906  0.0274  0.3805  0.0018
 6393W        W23917   3.147   8.416  13.457 -0.2045 -0.3308  0.0616
 6394W        W23918   6.342  13.338  12.448  0.2320 -0.0451 -0.1644
 6395W        W23919   8.178   4.636  11.754  0.0074  0.1591  0.0184
 6396W        W23920   1.040   4.864  12.441 -0.0255 -0.0951  0.3600
 6397W        W23921   8.950  14.798  13.855 -0.1237  0.2524  0.0540
 6398W        W23922  13.590  14.333   0.066 -0.2053  0.1952 -0.3373
 6399W        W23923   4.882   5.306   0.174 -0.0889 -0.1849  0.0113
 6400W        W23924   2.821  11.096  13.635  0.1570  0.1732 -0.0381
 6401W        W23925  12.297  14.939  11.347 -0.0233  0.0949 -0.2322
 6402W        W23926  16.956  18.245   4.671 -0.2401  0.0144  0.0960
 6403W        W23927  17.705  11.702  11.409  0.0684  0.0183  0.0358
 6404W        W23928  15.746   5.199  10.438 -0.0239  0.2882 -0.1357
 6405W        W23929   2.327   4.124   0.298 -0.0829  0.0629 -0.1167
 6406W        W23930   3.699  12.248   2.655  0.1475 -0.1041  0.0736
 6407W        W23931   1.854   1.193  15.213 -0.1153  0.0112 -0.0636
 6408W        W23932   6.595   2.820  13.539 -0.0667  0.0382  0.1861
 6409W        W23933   8.685   8.273   4.284  0.0679  0.0859  0.2775
 6410W        W23934  14.343  17.481   4.719 -0.0020 -0.2735 -0.6260
 6411W        W23935   5.450   3.207   2.002 -0.2669 -0.0901  0.1718
 6412W        W23936   7.620   8.726   2.266  0.0463  0.1589  0.1883
 6413W        W23937   5.697   5.696  12.648 -0.0294  0.3049 -0.2705
 6414W        W23938   0.885   5.046  11.989  0.2303 -0.1738 -0.0716
 6415W        W23939   1.795   4.594   5.186  0.1251 -0.1403  0.2346
 6416W        W23940   9.736   2.765  12.950  0.4533  0.0589  0.1412
 6417W        W23941  14.225   2.015  10.598 -0.2115  0.0143  0.0901
 6418W        W23942   9.673  11.178   1.698  0.2184 -0.0566 -0.1734
 6419W        W23943  15.541   8.723   4.241 -0.0888  0.0628  0.5008
 6420W        W23944   9.843  16.666  15.005 -0.0120 -0.0161 -0.0791
 6421W        W23945   9.254   5.733   2.710  0.1178 -0.1700 -0.1517
 6422W        W23946  10.737  11.827   1.261 -0.1967 -0.1818 -0.4818
 6423W        W23947   4.492  15.223   4.920 -0.0239  0.1266 -0.3562
 6424W        W23948   3.623  13.532   0.053  0.5555  0.1031 -0.0551
 6425W        W23949   1.981   1.444  12.244 -0.3246  0.2424  0.0861
 6426W        W23950  16.568   1.339  14.481 -0.1412 -0.1765 -0.2027
 6427W        W23951   3.241   8.827  12.022 -0.1184 -0.1706  0.0959
 6428W        W23952   4.498   1.092   3.026  0.0244 -0.0136 -0.0288
 6429W        W23953   5.220  12.780  13.142  0.2690 -0.0008 -0.2756
 6430W        W23954  13.790   6.168  13.578 -0.1886  0.0629 -0.1967
 6431W        W23955  11.564  12.503   4.537  0.0728 -0.0163  0.0277
 6432W        W23956  12.409   5.827   0.223 -0.5795 -0.1419 -0.1397
 6433W        W23957   2.913   6.051  10.823  0.2983  0.0127  0.3091
 6434W        W23958  10.699  14.373  12.062 -0.0726  0.0311  0.0112
 6435W        W23959  15.568  18.272  15.655 -0.0029  0.0187 -0.3516
 6436W        W23960   7.655   4.330   0.513  0.1131 -0.2585  0.0955
 6437W        W23961   0.093   1.991  15.382 -0.1377  0.0419  0.1501
 6438W        W23962  14.434   2.862   4.257  0.2940  0.1425  0.1888
 6439W        W23963   8.397  12.283   1.075  0.2182  0.1154 -0.0663
 6440W        W23964   9.510  17.045   2.617 -0.1552 -0.0755 -0.2560
 6441W        W23965  13.686  10.791   3.658  0.0159 -0.1659 -0.0500
 6442W        W23966  11.480   6.660   3.140 -0.0412  0.1499 -0.0512
 6443W        W23967   2.127   5.603   1.814 -0.0400 -0.0227  0.2168
 6444W        W23968   7.723  10.308   1.158 -0.1454  0.0913 -0.0554
 6445W        W23969   5.543   4.928  12.121 -0.0013  0.0997  0.0357
 6446W        W23970   9.898  13.660   0.535  0.0079  0.2947  0.0014
 6447W        W23971   6.502   6.522   3.321 -0.0277  0.2091 -0.1429
 6448W        W23972   9.589   4.063   2.230 -0.1935  0.0661 -0.2453
 6449W        W23973  11.029   6.153   1.584 -0.0865  0.0279 -0.1336
 6450W        W23974   6.289  17.518   1.497  0.1260  0.0580 -0.2549
 6451W        W23975  17.068   9.231   4.385 -0.0053  0.0995  0.0487
 6452W        W23976   0.660  12.563  11.449  0.4271  0.0514  0.0947
 6453W        W23977  14.147   7.970  13.314  0.0291  0.1933  0.0803
 6454W        W23978  16.771  10.017  11.564  0.2376  0.0137  0.1458
 6455W        W23979   6.241  11.316  12.968 -0.2262  0.2016 -0.0134
 6456W        W23980   5.223   8.514   9.823  0.1980  0.3718 -0.2517
 6457W        W23981  15.280   4.955  10.384  0.0240 -0.0655 -0.1511
 6458W        W23982  11.314  13.553   1.223 -0.1369 -0.1168  0.2518
 6459W        W23983  18.396  13.727  11.115 -0.1793  0.1275 -0.4650
 6460W        W23984   5.666   0.847  15.520 -0.3765  0.3172 -0.2352
 6461W        W23985   0.134  15.202  14.351 -0.0609 -0.0390  0.0877
 6462W        W23986   8.611   0.625  14.110  0.2867  0.5096  0.1085
 6463W        W23987  16.019  10.646  11.896  0.2345  0.1556  0.0015
 6464W        W23988  10.035   2.900   2.191  0.1421 -0.2020 -0.0684
 6465W        W23989  12.140  10.240   0.481  0.0539 -0.0585 -0.2342
 6466W        W23990   8.935  12.399   2.245  0.1342  0.1599  0.1411
 6467W        W23991   9.022   6.585  15.244 -0.1042 -0.0955  0.1826
 6468W        W23992   9.864   9.241   2.739  0.2002 -0.2796 -0.0408
 6469W        W23993  10.685   2.406  10.755 -0.1662 -0.0944 -0.0788
 6470W        W23994  16.898  15.600  11.315 -0.2266  0.0588  0.3325
 6471W        W23995  17.313   4.744  13.736  0.1869  0.1892  0.0342
 6472W        W23996  11.470  16.390  10.257  0.0911 -0.0244  0.0404
 6473W        W23997   0.799   8.255  11.456  0.1093 -0.0350 -0.2461
 6474W        W23998   3.024   2.838  14.019  0.0303  0.2896 -0.2570
 6475W        W23999  17.269   0.002  12.151  0.1826  0.0584 -0.0166
 6476W        W24000   3.057   2.191  11.862  0.3727  0.0914 -0.1020
 6477W        W24001  10.080  10.801   3.619  0.1533  0.0321 -0.0675
 6478W        W24002  17.808  11.944  13.289 -0.1484 -0.2016  0.0711
 6479W        W24003   6.354   0.472   2.992 -0.0801  0.0524  0.1398
 6480W        W24004  13.816   8.582  13.223 -0.3273  0.0297 -0.1246
 6481W        W24005  12.833   4.431  14.820 -0.0047 -0.1146 -0.1561
 6482W        W24006  16.478   6.520   3.736 -0.0277  0.1694  0.2780
 6483W        W24007  10.484  17.078   0.424 -0.2304 -0.2144  0.1777
 6484W        W24008   4.518  18.166   5.283  0.3989  0.0418 -0.1482
 6485W        W24009   6.249  11.843  14.848 -0.1314 -0.2597 -0.1106
 6486W        W24010  18.184  16.908   0.343  0.1878 -0.0472 -0.0682
 6487W        W24011   8.238   4.804   1.804 -0.2425 -0.1429  0.0763
 6488W        W24012  15.850  10.215  13.173  0.2598  0.1722 -0.0625
 6489W        W24013   8.882  14.657   1.218 -0.2570  0.0501 -0.2684
 6490W        W24014   7.433  11.957  13.092 -0.0874 -0.5600  0.1199
 6491W        W24015  17.380   9.747   1.823 -0.2795 -0.0829  0.0557
 6492W        W24016   3.353  12.992   2.252 -0.1864 -0.0628 -0.2408
 6493W        W24017   4.659   3.266   3.260 -0.1729 -0.0035 -0.1013
 6494W        W24018  13.285   3.569  14.484 -0.2739  0.0602  0.0911
 6495W        W24019   6.342  11.519   0.254 -0.2570 -0.1950  0.0279
 6496W        W24020   1.636   4.270  13.524  0.0239  0.2640  0.2519
 6497W        W24021  10.930   9.752  10.270 -0.0246 -0.1413  0.1264
 6498W        W24022  15.673   7.357  13.572  0.1767  0.0469  0.3832
 6499W        W24023   2.367  12.063  13.390 -0.0404  0.1891 -0.2501
 6500W        W24024  12.423   8.625  11.417  0.1099  0.1231 -0.0136
 6501W        W24025   7.085  18.167  11.500 -0.1064  0.0279  0.1594
 6502W        W24026   9.293  12.015   3.594 -0.0727  0.1782  0.4131
 6503W        W24027   8.894   8.081   2.171 -0.1388  0.0019  0.0535
 6504W        W24028   9.933   6.898  15.048  0.0479 -0.1597 -0.0198
 6505W        W24029  14.884   4.574  14.852  0.0992  0.0096  0.0042
 6506W        W24030  10.755   3.501   1.095 -0.1522  0.0639  0.1574
 6507W        W24031  14.474   8.035   2.648  0.2990 -0.4277  0.3209
 6508W        W24032   0.285   9.183   4.334 -0.0435 -0.1675 -0.0514
 6509W        W24033   7.118   7.982   0.848  0.1707 -0.1683 -0.2095
 6510W        W24034   9.908   1.088  13.713  0.0783  0.0841  0.0552
 6511W        W24035   3.782  11.157   1.512 -0.0179 -0.2731 -0.1575
 6512W        W24036  17.322   0.039   4.971  0.0270 -0.1157  0.2417
 6513W        W24037  16.186   0.505   5.490 -0.1389 -0.0020 -0.2736
 6514W        W24038   5.079  11.015  12.395  0.0314  0.2291  0.0366
 6515W        W24039   9.654   4.614   1.914  0.0446 -0.2830 -0.3116
 6516W        W24040  17.612   6.939   2.138  0.0646  0.3243  0.0244
 6517W        W24041  11.528   5.492  13.117 -0.0376  0.1423 -0.2214
 6518W        W24042  18.464  11.027   3.298  0.0953  0.4073  0.0264
 6519W        W24043   2.630   4.080   2.014  0.1804 -0.2069 -0.3316
 6520W        W24044  11.576   7.991  12.783  0.1767  0.1225  0.2081
 6521W        W24045   0.461  12.056   4.275  0.0498 -0.2048  0.0309
 6522W        W24046  17.400  16.344  15.248  0.2574  0.0078  0.2914
 6523W        W24047  14.997  13.603  14.672  0.1571  0.0609  0.0421
 6524W        W24048  15.166   7.026  10.380  0.0782 -0.0989  0.0170
 6525W        W24049  11.364   4.063   0.111 -0.0250 -0.0963  0.1513
 6526W        W24050   2.422   7.311   2.870  0.3211 -0.0966  0.3015
 6527W        W24051   6.519  10.094  11.021  0.0591  0.1263 -0.0851
 6528W        W24052   1.131   6.802   1.914 -0.0094 -0.1409  0.0015
 6529W        W24053   6.978   9.450  12.010  0.2929  0.2403 -0.0830
 6530W        W24054  11.860   5.257  11.567 -0.1437 -0.0951  0.1319
 6531W        W24055   6.236   9.095   1.123 -0.0642  0.0968 -0.2261
 6532W        W24056  16.272  10.451  13.343  0.1296  0.2264  0.2991
 6533W        W24057   0.233  17.733   0.885  0.1282 -0.1206  0.0139
 6534W        W24058  13.350  11.075  15.006 -0.1511  0.0187  0.1168
 6535W        W24059   2.284  12.444   1.655 -0.0065 -0.0023 -0.0639
 6536W        W24060  15.220  16.516  12.228 -0.3638  0.3329  0.0896
 6537W        W24061   2.904  17.653  15.367  0.2360  0.0892  0.0986
 6538W        W24062   9.921   8.242  13.010  0.0833  0.2025 -0.2250
 6539W        W24063   1.470   8.423  12.948  0.0994  0.0129  0.1053
 6540W        W24064  11.101  13.749  11.836  0.1241  0.0628  0.0152
 6541W        W24065   0.469  18.127  13.364  0.0586 -0.0786  0.3611
 6542W        W24066  13.364  18.087  14.707  0.1959 -0.1388  0.1759
 6543W        W24067   2.801  16.737   3.049 -0.1629  0.1564  0.0695
 6544W        W24068   0.073   1.776  12.318 -0.1233  0.3930  0.2419
 6545W        W24069  12.647  16.092  14.206  0.0712  0.1579 -0.0707
 6546W        W24070   9.145   4.514  15.221  0.3735  0.0596  0.0266
 6547W        W24071   0.799   1.083   2.229 -0.0673  0.3945  0.1274
 6548W        W24072   4.059   6.827   0.018  0.0822  0.0409 -0.1413
 6549W        W24073  13.713   0.917   0.836  0.0012 -0.1295 -0.2150
 6550W        W24074   0.665  12.548  11.998 -0.1016 -0.0718 -0.2911
 6551W        W24075  15.973  10.430   4.545  0.4491 -0.0313 -0.0636
 6552W        W24076   7.697   6.666  12.883 -0.0105 -0.0090  0.0209
 6553W        W24077  14.167  13.030   2.971 -0.1392  0.2116 -0.0915
 6554W        W24078   2.799  18.068   3.610 -0.0178  0.1220  0.2711
 6555W        W24079   9.145  12.628   0.624 -0.1845  0.3504 -0.2426
 6556W        W24080   7.216   0.406   4.485  0.4062  0.0450 -0.0149
 6557W        W24081   1.563   2.021   0.411  0.2490  0.1497  0.0525
 6558W        W24082  12.705  16.951   1.508  0.1123 -0.0374  0.0376
 6559W        W24083   7.146  11.733  10.726  0.0033 -0.2018 -0.1411
 6560W        W24084  17.528   3.933   2.937  0.2859 -0.1626  0.0306
 6561W        W24085   7.079   8.547   2.212  0.2955 -0.0597  0.4101
 6562W        W24086   5.533   5.093   3.144  0.1122 -0.0438 -0.1248
 6563W        W24087   8.375  18.156  12.252  0.1091  0.0598  0.1413
 6564W        W24088  12.529  12.894  15.287 -0.0273  0.0402 -0.1467
 6565W        W24089   7.178  16.965  12.438 -0.0244  0.0892 -0.1819
 6566W        W24090  14.566  11.757  14.053  0.0915  0.0448  0.1524
 6567W        W24091   0.139  12.637   2.596  0.0175 -0.0872  0.1661
 6568W        W24092  11.581  11.555   3.485 -0.2337 -0.0311 -0.0337
 6569W        W24093   5.095  15.261   3.324  0.0141 -0.0925  0.0441
 6570W        W24094   8.469  15.786   4.039  0.1193  0.0815 -0.3581
 6571W        W24095   1.721   7.644   3.349 -0.1379 -0.1306 -0.0888
 6572W        W24096   8.833   7.579   2.189 -0.1225  0.0100 -0.2937
 6573W        W24097  18.281  17.331   0.642 -0.0114  0.2439 -0.0240
 6574W        W24098   8.984   7.599  13.367 -0.3320 -0.2924  0.2022
 6575W        W24099   4.282  11.184  12.656 -0.0760  0.1577  0.1571
 6576W        W24100   8.045  17.295   4.691  0.2888 -0.2307 -0.1867
 6577W        W24101  14.895   9.912   5.301 -0.0294  0.0665 -0.4196
 6578W        W24102  11.270   6.179   2.435 -0.1406 -0.2817 -0.1346
 6579W        W24103   1.276   0.008   0.313  0.2336  0.1743 -0.0260
 6580W        W24104   3.074   2.782  11.867  0.0757  0.0395 -0.3806
 6581W        W24105   4.408  13.597  11.966 -0.1128  0.2657 -0.1447
 6582W        W24106   7.972   5.972   1.562  0.0102 -0.0734 -0.0585
 6583W        W24107  16.629  10.965   3.998  0.5136  0.1815  0.2242
 6584W        W24108  15.339   4.344  12.946 -0.0496 -0.1228 -0.0770
 6585W        W24109  14.031   3.428  14.688  0.0527  0.1527  0.1006
 6586W        W24110   9.108  16.846   0.219 -0.2306 -0.1233 -0.0293
 6587W        W24111  15.890  11.125  12.074  0.2229 -0.1586 -0.1006
 6588W        W24112   7.876   1.429  11.763  0.0081  0.0243  0.2125
 6589W        W24113  16.422   0.501  13.763 -0.3083  0.1146  0.0745
 6590W        W24114  16.545   3.333  15.050 -0.0559  0.2173  0.0487
 6591W        W24115  11.219   9.339   2.415  0.2218  0.1940 -0.1510
 6592W        W24116  17.118  13.193  13.297 -0.0857 -0.3874  0.1124
 6593W        W24117   5.383  15.715   1.440 -0.0516 -0.0610 -0.1860
 6594W        W24118  17.792   2.334   4.912  0.0537 -0.2074  0.3754
 6595W        W24119   8.372  13.701  13.413  0.0563 -0.3200  0.1486
 6596W        W24120  15.393   1.538   4.662  0.2013  0.0851  0.1014
 6597W        W24121   7.084  14.037  13.691  0.1673 -0.0878 -0.2848
 6598W        W24122  18.228   0.271  13.420  0.0801 -0.1686  0.2147
 6599W        W24123   5.124   3.055   2.468  0.2975 -0.1465 -0.1551
 6600W        W24124   5.974   2.594   4.054 -0.0441 -0.1015  0.0880
 6601W        W24125   6.558   7.716   2.142  0.0323  0.0681 -0.3242
 6602W        W24126   9.693  10.521   2.867  0.2670 -0.2834 -0.1122
 6603W        W24127   4.363  18.317   0.720  0.0324 -0.1216  0.2353
 6604W        W24128   4.736   7.601   2.431  0.0678  0.4271 -0.3937
 6605W        W24129  15.228   7.188   1.391  0.2670 -0.1461  0.0956
 6606W        W24130   0.187   7.056   1.313  0.0122 -0.0760 -0.4820
 6607W        W24131  18.041   3.107  11.739 -0.0665 -0.1821  0.0455
 6608W        W24132  14.066   1.194   0.979  0.1431  0.0609 -0.0813
 6609W        W24133  12.956   2.313  10.672 -0.2278  0.0871 -0.3328
 6610W        W24134   2.332   2.275  12.625  0.1072 -0.4009  0.0232
 6611W        W24135  15.389   9.466   2.960  0.2086 -0.0006  0.1845
 6612W        W24136  11.295   9.939   2.198 -0.3205 -0.2157 -0.0155
 6613W        W24137  12.645  13.798  15.590 -0.1281 -0.0106 -0.0269
 6614W        W24138  14.607  12.771   2.761  0.4833 -0.2943 -0.1326
 6615W        W24139   8.262   5.059  11.395  0.0537  0.3612  0.1871
 6616W        W24140   3.940  15.582  13.131  0.0015 -0.1185 -0.0527
 6617W        W24141  14.308  12.606   1.497  0.1511  0.1658  0.0404
 6618W        W24142   4.799  13.940   0.750  0.1108 -0.1261  0.0823
 6619W        W24143  13.970   9.239   0.553  0.2067 -0.1081 -0.1097
 6620W        W24144   9.988   3.596  12.937  0.2135 -0.3248  0.0338
 6621W        W24145  11.796   1.632   3.961  0.2355 -0.0124 -0.2541
 6622W        W24146  10.024  13.519   5.010  0.1022 -0.3702  0.2222
 6623W        W24147  14.657   1.068   4.765 -0.1680 -0.1260 -0.0515
 6624W        W24148   9.139  15.448   4.999 -0.1483 -0.0849 -0.1815
 6625W        W24149  12.733   7.749   0.390  0.0703 -0.0592 -0.0564
 6626W        W24150   7.451  12.618   4.573 -0.0537  0.2018  0.0410
 6627W        W24151  14.818   0.449   0.778 -0.2172 -0.0696  0.0985
 6628W        W24152   5.705  16.690   2.244  0.0732  0.1048 -0.1329
 6629W        W24153   4.334   4.879   1.263  0.2756 -0.0188 -0.0467
 6630W        W24154  11.813   6.470  10.609  0.0039  0.0487  0.0541
 6631W        W24155   2.849   6.551  15.030  0.0941  0.1300 -0.1337
 6632W        W24156  13.034   1.844  14.242 -0.1759 -0.1547  0.1492
 6633W        W24157   5.780   2.389   1.423  0.0001 -0.4549 -0.2123
 6634W        W24158  13.875  11.589   2.257 -0.0196  0.1155  0.0334
 6635W        W24159   5.411   5.151  13.753 -0.5889 -0.0842 -0.1064
 6636W        W24160   9.074   4.463   3.457  0.2332 -0.4235 -0.1215
 6637W        W24161  11.777  18.411   5.033  0.0840  0.1880 -0.1818
 6638W        W24162  18.054   7.003  10.604 -0.1836 -0.1161  0.2071
 6639W        W24163  15.628   4.873   1.735 -0.0368  0.2972  0.0953
 6640W        W24164  16.257  11.259   2.752  0.1871  0.1459  0.0009
 6641W        W24165  13.421  14.330   4.941 -0.0002  0.0899 -0.0904
 6642W        W24166   0.949  11.257   5.308  0.0262 -0.3944  0.1688
 6643W        W24167  18.398  10.970   4.260  0.2944  0.2035 -0.1568
 6644W        W24168   0.351   8.347   2.531  0.3318  0.2741 -0.0185
 6645W        W24169  16.865   4.110  13.897  0.1561  0.0182  0.0091
 6646W        W24170  13.523  13.612  11.411 -0.2627  0.3774 -0.0888
 6647W        W24171  18.158   7.444  14.956 -0.0782 -0.3114  0.1698
 6648W        W24172  12.661  13.313   2.802 -0.0633  0.0237  0.1150
 6649W        W24173   4.798   4.662   2.926 -0.0065  0.3797 -0.0633
 6650W        W24174   7.509   0.248   2.119  0.0776 -0.0898 -0.2141
 6651W        W24175   5.239   7.320  14.828 -0.1722  0.1534 -0.0798
 6652W        W24176   3.697  14.416  15.626 -0.2494  0.2574  0.1582
 6653W        W24177   6.135   6.581   2.185  0.0885  0.0744 -0.0343
 6654W        W24178   2.432   3.271  13.693 -0.1223  0.0530  0.0238
 6655W        W24179  13.344  16.181   4.204  0.1171 -0.2952  0.0565
 6656W        W24180   5.887   3.982   1.856  0.1128  0.2328  0.2171
 6657W        W24181   6.598   7.394   2.820 -0.1201 -0.0559  0.1261
 6658W        W24182  14.996  15.978   2.968  0.1666 -0.1221 -0.3446
 6659W        W24183   4.881   8.298  11.588  0.0612  0.1011  0.1330
 6660W        W24184  14.586   1.293   4.221  0.0987  0.0394  0.0975
 6661W        W24185   7.937   1.509   4.313  0.1366 -0.0155  0.0742
 6662W        W24186  16.514  16.393  12.620 -0.2229  0.0801 -0.1975
 6663W        W24187   6.457   3.330  10.601 -0.0840  0.0607  0.0091
 6664W        W24188   6.901  12.904   2.400 -0.5561  0.2524  0.0665
 6665W        W24189   0.085   1.391   4.246  0.1153  0.0428 -0.1993
 6666W        W24190  13.264  13.137  13.606 -0.0776 -0.0986  0.2611
 6667W        W24191  13.893  18.222   3.286 -0.0003 -0.1180 -0.1809
 6668W        W24192   7.870  10.814   4.811 -0.0593  0.0665  0.1506
 6669W        W24193  16.729   3.085   3.257  0.3873  0.4764 -0.0672
 6670W        W24194  16.736  10.379   2.641 -0.1146  0.1397 -0.2058
 6671W        W24195  15.645   7.712   2.171 -0.0530 -0.3280  0.0110
 6672W        W24196   3.422   8.164   1.633 -0.0985  0.0273  0.0967
 6673W        W24197   1.453  15.325   2.142  0.0003 -0.1012  0.0699
 6674W        W24198   2.760   8.141   0.326  0.1001 -0.1725  0.1859
 6675W        W24199  11.617   7.941  11.967  0.0383 -0.1273 -0.1758
 6676W        W24200  13.346   6.545  14.900  0.1055 -0.0456  0.1922
 6677W        W24201  17.338  16.747  11.910  0.0379  0.3117 -0.1186
 6678W        W24202  16.967  17.755   4.718 -0.0707 -0.0744 -0.1449
 6679W        W24203  17.669   6.727  12.787  0.0065  0.1679  0.1611
 6680W        W24204  15.796  14.768   0.025 -0.1118 -0.1944 -0.1261
 6681W        W24205   9.221   0.747  15.657 -0.0168 -0.3497 -0.0009
 6682W        W24206  17.120  10.827  14.529  0.0918 -0.3448  0.1958
 6683W        W24207   0.492   1.951   0.425 -0.2544 -0.0381 -0.3400
 6684W        W24208   6.587   2.343   0.809  0.2469  0.2739 -0.1241
 6685W        W24209  17.735  18.236  10.803 -0.2733 -0.0061 -0.0837
 6686W        W24210   1.890  18.326  12.063  0.0269 -0.1110 -0.0365
 6687W        W24211  10.771  16.981   4.389 -0.2518  0.3105 -0.1119
 6688W        W24212  18.329   9.985   1.827  0.0399 -0.0489 -0.0238
 6689W        W24213   1.676  11.900  11.308  0.3635  0.1053  0.0981
 6690W        W24214   1.365   1.543   0.211  0.0639  0.1594 -0.0385
 6691W        W24215  16.581  17.473   0.089 -0.1705 -0.1255  0.2895
 6692W        W24216   2.514  17.579  13.396  0.1693 -0.0004  0.2642
 6693W        W24217   2.322   8.343  13.361 -0.0160  0.1047  0.1160
 6694W        W24218   6.916   1.325  12.453 -0.0950  0.2152 -0.1830
 6695W        W24219  11.023  11.915   4.432  0.4524 -0.2125 -0.1518
 6696W        W24220   6.719   1.716   3.833 -0.3731  0.3155  0.0450
 6697W        W24221  14.003  18.394  14.370  0.2528 -0.1765  0.0553
 6698W        W24222  16.004   1.698  15.137 -0.0424  0.1203  0.1228
 6699W        W24223   5.033  10.035   2.049 -0.1515 -0.1348  0.0933
 6700W        W24224  14.775  10.983   2.057 -0.1352  0.0782 -0.3750
 6701W        W24225  10.310   8.118  15.357 -0.0432  0.1991 -0.1802
 6702W        W24226  13.658   3.566   0.526  0.0226 -0.0280  0.1549
 6703W        W24227  11.864   4.348   4.303 -0.1081  0.1517 -0.1164
 6704W        W24228   1.720   3.945   3.980  0.3393 -0.0711  0.1731
 6705W        W24229  11.796   1.412   0.974 -0.1764  0.0754 -0.0520
 6706W        W24230  11.145  12.569   1.170  0.0192 -0.0658  0.1411
 6707W        W24231  16.903   4.501   2.498  0.0987  0.2125 -0.3034
 6708W        W24232   8.762   4.796  10.639  0.1531  0.1578 -0.0926
 6709W        W24233   5.038   1.842   0.444  0.0308  0.4235  0.0214
 6710W        W24234   6.679  10.561  14.244  0.0240 -0.1263 -0.0078
 6711W        W24235   6.074   8.434   1.590 -0.4760  0.2782 -0.0988
 6712W        W24236  17.953   9.150   2.168  0.1393 -0.3873 -0.1795
 6713W        W24237   7.712  13.125   3.341 -0.2112 -0.0325  0.1466
 6714W        W24238   3.287  13.648  12.634  0.0451  0.0556 -0.2912
 6715W        W24239  10.878   4.531   4.278 -0.4003  0.4069  0.0987
 6716W        W24240   2.512   0.541   0.956  0.1316 -0.2682 -0.0567
 6717W        W24241  10.511  15.847  12.126  0.1016  0.0559  0.0251
 6718W        W24242  11.394  14.672   5.309 -0.1717 -0.1664  0.0040
 6719W        W24243   2.869   9.612  10.977 -0.1567 -0.1034  0.0475
 6720W        W24244   4.750   8.596   2.265  0.0188  0.1687 -0.1692
 6721W        W24245   2.201   5.151   2.046 -0.1367  0.2955 -0.0028
 6722W        W24246  11.539   2.809   2.355 -0.1213  0.0611 -0.0344
 6723W        W24247   8.256  17.288   0.688  0.0623 -0.0264  0.1040
 6724W        W24248   8.289   8.894  15.257  0.0707  0.0308  0.1654
 6725W        W24249  17.832  15.871  11.785 -0.1370 -0.0353 -0.1612
 6726W        W24250   9.001   9.969   0.159  0.2049  0.2731 -0.0055
 6727W        W24251  16.821  12.389   3.683 -0.1392 -0.0691 -0.1367
 6728W        W24252   7.328  14.400   1.222  0.1457  0.0960 -0.1925
 6729W        W24253   8.124   5.992  13.034 -0.0858  0.0365  0.1485
 6730W        W24254   8.835  16.701  11.368  0.1635  0.0310  0.0107
 6731W        W24255   1.738  10.993  12.624 -0.0625  0.1702  0.5179
 6732W        W24256  17.232   0.642  12.342  0.2607 -0.2145  0.1469
 6733W        W24257   0.129   5.154  12.272  0.1165  0.0803 -0.3801
 6734W        W24258   8.217   6.848  14.470 -0.1146 -0.0599 -0.0618
 6735W        W24259   6.377   1.305   1.520  0.0303  0.3784 -0.1728
 6736W        W24260   0.420   3.199  14.246  0.2119  0.1588 -0.1056
 6737W        W24261  12.457   1.488  14.679 -0.0447  0.3174 -0.2773
 6738W        W24262   6.007  12.843  15.622 -0.3856  0.0158 -0.1133
 6739W        W24263  10.547  12.421   4.752 -0.1526 -0.0369  0.1194
 6740W        W24264  17.862   4.854  11.939 -0.0269  0.2789 -0.0363
 6741W        W24265  14.193  10.906   3.361  0.1590 -0.0734 -0.0606
 6742W        W24266  11.396  14.420  12.491 -0.2296  0.0030  0.1746
 6743W        W24267  16.838  16.867  13.330  0.1483 -0.2378  0.1259
 6744W        W24268   1.650  10.926   4.730  0.2464 -0.0846 -0.2353
 6745W        W24269   1.313   0.553   0.610 -0.0634 -0.1683 -0.1877
 6746W        W24270  10.814  16.919  14.081  0.3318 -0.2105 -0.1982
 6747W        W24271  14.338   0.993  14.164 -0.2492 -0.2635 -0.1386
 6748W        W24272   1.763  14.882  12.371 -0.2269  0.3532  0.2562
 6749W        W24273   4.956  13.700  14.955 -0.0243  0.1437  0.1296
 6750W        W24274   9.022   9.997   2.117  0.1036  0.0903  0.1502
 6751W        W24275   9.804   9.128   3.670 -0.2926  0.3690 -0.1898
 6752W        W24276  12.295  17.446   4.975 -0.2204 -0.2610 -0.0853
 6753W        W24277  10.716  14.856  12.148  0.0824 -0.0682  0.2815
 6754W        W24278  13.815  12.803  12.790  0.0173  0.1399  0.2536
 6755W        W24279   5.102  17.584  13.672 -0.0556  0.1620 -0.0491
 6756W        W24280   6.251   0.193   1.605 -0.1032 -0.0713 -0.1228
 6757W        W24281  11.104   7.771  11.226  0.0405 -0.0437  0.1034
 6758W        W24282   5.723   4.543   1.317  0.2952  0.2622  0.0729
 6759W        W24283  14.014  12.014  14.173 -0.2470 -0.1442 -0.2034
 6760W        W24284  13.103  17.488  13.543  0.1967 -0.1936  0.3921
 6761W        W24285   1.653   0.332   3.515  0.0778  0.1812 -0.1701
 6762W        W24286  17.950  17.365   3.407 -0.0753  0.0727  0.0624
 6763W        W24287   9.273   0.278   3.696 -0.2094 -0.0677  0.1137
 6764W        W24288  16.959   7.368  14.972 -0.1597  0.1299 -0.0171
 6765W        W24289  17.027   0.356   4.648 -0.0402  0.0575 -0.1296
 6766W        W24290  17.700  10.584  15.142  0.1569  0.0792  0.1877
 6767W        W24291   0.662  12.371  13.412 -0.1122  0.1797  0.2577
 6768W        W24292  16.403   4.807  14.814  0.1260 -0.4821 -0.0468
 6769W        W24293  15.016   9.113   0.207  0.0053 -0.4379 -0.2164
 6770W        W24294   0.614   5.488  12.847 -0.2542 -0.0608  0.0811
 6771W        W24295   4.445  14.329  13.271  0.0496  0.0447 -0.2936
 6772W        W24296  13.058  11.774  13.381  0.0687  0.0407  0.0553
 6773W        W24297  12.579  10.045   4.106 -0.0441 -0.2977 -0.1358
 6774W        W24298   0.642  11.959   0.563 -0.0918 -0.0442  0.0376
 6775W        W24299   8.144   1.089  12.590 -0.1376  0.3425  0.2633
 6776W        W24300  17.132   4.250   4.083 -0.2089 -0.1481  0.2396
 6777W        W24301   4.185  12.055   3.517  0.0968 -0.0813 -0.0573
 6778W        W24302   0.879   2.866   4.725 -0.2472 -0.1217  0.0321
 6779W        W24303  16.090  14.347  13.204 -0.0686  0.2802  0.2082
 6780W        W24304   5.635  10.905   2.325 -0.2024 -0.1037  0.1034
 6781W        W24305   3.144   9.877   5.554 -0.3980  0.1634 -0.1621
 6782W        W24306   9.168   1.094  13.497  0.1376 -0.1246  0.1755
 6783W        W24307  10.326   1.922  13.607 -0.0706 -0.2554 -0.2809
 6784W        W24308   8.272  13.205  14.079 -0.3944 -0.2132 -0.1356
 6785W        W24309   8.567   6.514  14.466  0.2415  0.3769  0.1281
 6786W        W24310   8.414   7.821   5.673 -0.2260 -0.0078  0.3802
 6787W        W24311  16.323   0.108  10.785  0.0850 -0.3902 -0.0810
 6788W        W24312  15.352   7.608  13.245 -0.1174  0.0037 -0.0761
 6789W        W24313   0.709  12.289   5.732 -0.3929  0.0207 -0.1054
 6790W        W24314   4.882  13.998  12.527 -0.2350  0.2901  0.1563
 6791W        W24315  14.319   8.992   0.952 -0.1332  0.1066  0.1606
 6792W        W24316   4.487   4.213   3.434 -0.1859  0.0778  0.0219
 6793W        W24317  17.193  14.861  12.978  0.1697  0.1912 -0.0986
 6794W        W24318  12.064  17.054  12.348 -0.3521 -0.1542  0.2235
 6795W        W24319  10.605  16.304  14.466  0.0734 -0.0905 -0.1591
 6796W        W24320  15.127  14.322  13.555 -0.1075 -0.0111 -0.4036
 6797W        W24321   0.351   0.571   3.342  0.0178 -0.1847  0.1256
 6798W        W24322  10.282   1.830  14.696 -0.2343 -0.2072 -0.1648
 6799W        W24323  16.819   6.220   0.835 -0.2853 -0.2626  0.1694
 6800W        W24324   3.227  13.213  12.368  0.0064 -0.0914 -0.1912
 6801W        W24325  13.293  10.849   0.528  0.0067  0.1927 -0.0995
 6802W        W24326   7.967  16.253   4.669 -0.0699 -0.0979  0.1547
 6803W        W24327   4.618  15.053  11.433 -0.4333 -0.1251 -0.1424
 6804W        W24328  13.284   1.481   2.139 -0.0561  0.1504 -0.2950
 6805W        W24329  12.822  17.010   4.385 -0.1667 -0.0173  0.3649
 6806W        W24330  12.666  11.780  14.674 -0.1000 -0.0437  0.0601
 6807W        W24331  17.886  13.876  15.706  0.1108  0.1662 -0.2846
 6808W        W24332  16.304  10.358  14.522  0.1365 -0.4227  0.0032
 6809W        W24333   7.189   4.106  13.722  0.1877 -0.0418 -0.0907
 6810W        W24334  15.974   6.843   1.082  0.2707 -0.0906 -0.2963
 6811W        W24335  17.760  12.010  10.069  0.1369 -0.0075 -0.0766
 6812W        W24336  15.553  17.107   0.901  0.1327 -0.1709 -0.1038
 6813W        W24337  17.460  12.356   1.616  0.1841  0.2159  0.0038
 6814W        W24338  10.779   8.688  14.938  0.3406  0.0057 -0.2467
 6815W        W24339  15.503   5.164  11.303 -0.1325 -0.0035  0.3369
 6816W        W24340   7.838  18.124  12.199 -0.0948 -0.0327  0.0055
 6817W        W24341   4.466  14.560   3.224  0.2517  0.1799  0.2270
 6818W        W24342  15.189   5.268  10.901  0.0487  0.3031  0.3474
 6819W        W24343   4.243  11.258   1.689 -0.1264  0.1136 -0.0891
 6820W        W24344  14.010   3.903  12.649 -0.0599  0.0276 -0.2008
 6821W        W24345  16.155   5.594  15.526  0.1358 -0.0494 -0.0358
 6822W        W24346  11.544   1.627  11.680  0.2591 -0.0039  0.1903
 6823W        W24347  17.344   1.110  11.956  0.0312  0.3051 -0.2165
 6824W        W24348   8.060   8.508   5.361 -0.0029  0.1139 -0.2699
 6825W        W24349   0.224  10.242   5.730  0.0239  0.1164  0.2269
 6826W        W24350   4.320   3.308  14.459 -0.0475 -0.0479  0.3508
 6827W        W24351  10.102   9.527  10.996 -0.1894 -0.0265 -0.1030
 6828W        W24352  16.813  18.437   5.107 -0.0986 -0.1081 -0.1729
 6829W        W24353  13.299   2.239   1.715  0.1590 -0.0226 -0.0369
 6830W        W24354   1.902  11.113  15.334  0.2672 -0.0619 -0.4138
 6831W        W24355   2.327  11.120   0.656  0.0707 -0.1017  0.1951
 6832W        W24356   1.651  12.448   3.159  0.1049  0.0827  0.2285
 6833W        W24357   0.561  10.533  15.183 -0.1473 -0.1186 -0.0406
 6834W        W24358  11.886   7.950   1.709 -0.0176 -0.0009 -0.1497
 6835W        W24359  14.821   8.407   0.604  0.2204  0.2656 -0.2320
 6836W        W24360   7.175  12.627  12.654 -0.0606 -0.2586 -0.4242
 6837W        W24361  16.714  14.654   4.703  0.2906 -0.2610 -0.3262
 6838W        W24362   3.711   5.113  14.110  0.4286 -0.0227  0.0506
 6839W        W24363   1.105   4.848  13.709 -0.2626 -0.1586  0.0280
 6840W        W24364  15.285   7.908   3.716  0.1194 -0.0964 -0.0364
 6841W        W24365  11.438   0.553  13.848  0.3654  0.0095  0.0106
 6842W        W24366   0.359   2.547   1.820  0.0333 -0.0908 -0.0547
 6843W        W24367   5.861   0.970   5.808  0.1846 -0.3230  0.0209
 6844W        W24368  17.111   0.851   3.574  0.0863 -0.2897  0.1955
 6845W        W24369  11.537  10.889  11.156  0.0572  0.1822 -0.1957
 6846W        W24370   6.655   6.552   0.283 -0.0482 -0.0939  0.0917
 6847W        W24371  13.869  10.593   2.665  0.0585  0.1135  0.1192
 6848W        W24372  16.037   7.913  10.955  0.1877 -0.3004  0.4053
 6849W        W24373   2.645   2.220   2.708  0.0386  0.1033  0.0619
 6850W        W24374   0.372   4.230   3.258  0.1570  0.1559 -0.2798
 6851W        W24375   7.018  14.714   0.281  0.1172 -0.0315 -0.1955
 6852W        W24376  17.296   1.004  10.590 -0.0089 -0.0023  0.0206
 6853W        W24377  10.717   7.672  11.692  0.1678  0.0175  0.1636
 6854W        W24378   3.419   5.887  12.713 -0.1517  0.3046  0.1149
 6855W        W24379   9.511   4.383  12.672  0.1355 -0.0561  0.1507
 6856W        W24380   9.744  14.545  11.668  0.0197  0.0340 -0.0296
 6857W        W24381   7.436  10.698   0.417  0.0479  0.0490  0.2520
 6858W        W24382  12.991   0.387  12.204 -0.2045  0.2208 -0.0589
 6859W        W24383   2.831   1.566  13.326 -0.2972  0.1700  0.4581
 6860W        W24384  10.426   0.739   1.891 -0.1873 -0.0499  0.0895
 6861W        W24385   0.255   7.452  13.058  0.1946 -0.1851 -0.0399
 6862W        W24386   8.160  17.297  12.529  0.0864 -0.0624  0.2486
 6863W        W24387   3.868  13.984   5.481  0.2440 -0.1449  0.3013
 6864W        W24388   1.229  10.153  15.692  0.0910 -0.4166  0.0177
 6865W        W24389   1.215  10.900   3.789 -0.0250  0.2359 -0.1194
 6866W        W24390   5.551   5.313   1.872 -0.2781  0.0786  0.1001
 6867W        W24391   8.820   3.439   0.627 -0.1830 -0.1099  0.0711
 6868W        W24392  12.363   3.385   2.191 -0.3162  0.0090  0.0662
 6869W        W24393   9.622   8.926  13.459 -0.0954 -0.2346  0.0559
 6870W        W24394   8.788   8.614   0.677 -0.1846 -0.1286  0.1708
 6871W        W24395  12.850   8.452   0.823 -0.0881 -0.0152 -0.3020
 6872W        W24396   1.836  11.251   4.405  0.2107  0.4539  0.2003
 6873W        W24397   7.403   9.017   1.160 -0.2717 -0.1760 -0.2020
 6874W        W24398   4.987   6.543  14.253 -0.0054  0.0297  0.0569
 6875W        W24399   5.820   7.718   4.422 -0.3852 -0.1806  0.1662
 6876W        W24400   3.995   0.682   6.067 -0.2204  0.3654 -0.0692
 6877W        W24401  14.162   7.722  12.571  0.0160  0.2673  0.2948
 6878W        W24402   7.781   4.337  11.603 -0.1284  0.1911  0.0068
 6879W        W24403  17.402   9.284   0.960 -0.0787 -0.0140 -0.0404
 6880W        W24404   3.566   3.093  12.975  0.0379  0.1714 -0.0862
 6881W        W24405  17.425   4.808  15.350  0.0963 -0.0124  0.1759
 6882W        W24406   9.375  18.021  12.678  0.1527  0.0397  0.2377
 6883W        W24407   0.988   1.162   3.641  0.2251  0.1523 -0.1817
 6884W        W24408   5.207   2.386  12.413  0.0186  0.0898 -0.1091
 6885W        W24409   4.586   7.166   3.935 -0.1486 -0.0399 -0.3657
 6886W        W24410  17.681  10.093  12.399  0.0202  0.0299 -0.1680
 6887W        W24411   0.683  16.354  14.186  0.3366 -0.1218  0.1183
 6888W        W24412  13.252   1.941  15.203 -0.0664 -0.1988  0.0694
 6889W        W24413  16.953  15.019   4.490 -0.1572  0.1762 -0.1791
 6890W        W24414   6.461  18.155   0.770 -0.1122  0.3409  0.2867
 6891W        W24415  18.231  14.865  14.291  0.4568 -0.0284  0.0510
 6892W        W24416   5.211  16.316  11.232 -0.0159  0.0552 -0.3374
 6893W        W24417   6.499  11.580   4.266  0.0331 -0.1766 -0.1530
 6894W        W24418   4.377  18.297   2.925 -0.0659  0.1831 -0.0448
 6895W        W24419   3.244  14.159  11.865 -0.0762  0.1582  0.1916
 6896W        W24420  13.310   7.884   3.316 -0.2963  0.2215 -0.2622
 6897W        W24421   7.967   0.529   9.835  0.0902  0.0915  0.0776
 6898W        W24422   8.681  14.039  12.112  0.2142  0.0513 -0.0801
 6899W        W24423  12.155   4.151   0.770  0.1176 -0.0304 -0.3039
 6900W        W24424  16.083   6.077   0.395  0.0807 -0.1552 -0.2239
 6901W        W24425  17.654  15.947   4.139  0.1078 -0.0254 -0.0104
 6902W        W24426   0.004   1.963  11.875 -0.1030  0.0590 -0.0520
 6903W        W24427   4.638  11.103   1.300 -0.3384 -0.2114  0.1349
 6904W        W24428   8.356   8.593  10.073 -0.0913 -0.0012  0.0973
 6905W        W24429   6.438  10.900   2.849 -0.3237  0.0578 -0.1158
 6906W        W24430   9.894   8.361   2.221 -0.0541 -0.1638  0.0087
 6907W        W24431   6.149   4.134  14.065 -0.0105 -0.0679 -0.0819
 6908W        W24432   2.563  10.170  13.144 -0.3127 -0.1271 -0.1183
 6909W        W24433   6.897  12.025   1.991  0.0290  0.0781 -0.3327
 6910W        W24434   7.915  13.897   1.134 -0.1087  0.0189 -0.0251
 6911W        W24435   8.511   3.754  14.893  0.0877 -0.2917  0.0430
 6912W        W24436  12.652   3.065   3.456 -0.2736 -0.0292 -0.4467
 6913W        W24437   0.123   1.175  11.660 -0.0661  0.0390 -0.1348
 6914W        W24438   1.855   1.241  10.749 -0.2451 -0.0244  0.2011
 6915W        W24439  18.412   6.778  15.724 -0.0599 -0.0226  0.2329
 6916W        W24440   6.973   5.054   1.226 -0.0066  0.2190 -0.0561
 6917W        W24441   6.484   7.610   4.401  0.3354 -0.0733 -0.2622
 6918W        W24442   2.639   5.235   2.878  0.1336  0.1004 -0.2130
 6919W        W24443   5.225   5.640  15.237  0.2788 -0.2739  0.1580
 6920W        W24444  11.505  13.729  14.981  0.0410  0.0453 -0.2436
 6921W        W24445   6.068   8.061   3.645  0.2820 -0.0127 -0.1842
 6922W        W24446   3.540  12.282   9.856  0.0976  0.1602  0.0302
 6923W        W24447  14.649   6.017  12.710 -0.6450 -0.0344 -0.0310
 6924W        W24448  15.387   3.013  12.258  0.0940  0.1163 -0.0286
 6925W        W24449  14.031   0.862   0.041  0.1033 -0.0979  0.0223
 6926W        W24450   8.213   6.426   0.588  0.3805  0.1412  0.0322
 6927W        W24451   4.830  12.407  11.576  0.0012  0.0871  0.1432
 6928W        W24452   0.125   9.317   2.296 -0.1962  0.1958 -0.1466
 6929W        W24453  17.517  17.754  12.847 -0.0273 -0.0947 -0.0062
 6930W        W24454   2.944  12.153   1.286 -0.1599  0.1359 -0.1574
 6931W        W24455  18.339  13.951  12.667 -0.2536 -0.0548  0.3862
 6932W        W24456   8.322   3.534  14.501  0.2059 -0.0674  0.1702
 6933W        W24457   1.361   6.266  14.897  0.0157  0.1323  0.1354
 6934W        W24458  13.797   1.287  12.054 -0.0766 -0.1275 -0.0229
 6935W        W24459  14.653   5.409  13.860 -0.0174  0.2583  0.2711
 6936W        W24460   7.520  15.194  15.585  0.1197  0.2335 -0.3267
 6937W        W24461   5.900   8.172  11.291  0.1121 -0.0880 -0.1225
 6938W        W24462  15.839   2.540   2.956 -0.1182  0.0800 -0.1510
 6939W        W24463  15.657   7.744  15.650 -0.5315 -0.2941  0.0465
 6940W        W24464   2.394  16.358  11.598 -0.1683  0.3266  0.0574
 6941W        W24465  15.518   6.436   3.681  0.3382 -0.1697 -0.1399
 6942W        W24466   9.229  11.737  11.503  0.1830  0.0096  0.0238
 6943W        W24467   9.311   1.984  13.451 -0.0704  0.0580  0.1373
 6944W        W24468   8.250   0.346  12.550 -0.1237  0.0548 -0.1107
 6945W        W24469  16.884  15.803   2.744 -0.0606 -0.2264  0.0301
 6946W        W24470  11.294   9.707   0.335 -0.1371  0.0871 -0.3448
 6947W        W24471  13.231   8.628  10.183 -0.0378 -0.1854 -0.0564
 6948W        W24472   1.722  10.154   1.365  0.0116  0.0644 -0.0665
 6949W        W24473   5.861  15.128   2.908 -0.0213 -0.0378  0.2132
 6950W        W24474   4.498   8.625   2.659  0.2240  0.0035  0.1513
 6951W        W24475  11.293  10.464   0.583  0.2710 -0.1106  0.1587
 6952W        W24476   0.076   1.503  14.591  0.1573 -0.0142 -0.1383
 6953W        W24477   0.387  15.441  12.487  0.0344 -0.0258  0.1173
 6954W        W24478   3.187   9.499  11.403 -0.0631  0.1923  0.0886
 6955W        W24479  10.056   5.803  12.393  0.0244 -0.0189  0.0188
 6956W        W24480  15.179   3.357   1.248 -0.1678  0.0498  0.3082
 6957W        W24481  10.633   4.892  10.984  0.1865  0.1353 -0.0399
 6958W        W24482   0.877  16.405  11.841  0.0605  0.3132  0.2347
 6959W        W24483   6.760   4.209  13.431  0.0343  0.1196 -0.0787
 6960W        W24484   5.044   1.826  13.725  0.3529 -0.2907 -0.1346
 6961W        W24485  13.942   5.243  11.595 -0.1571  0.2542 -0.2314
 6962W        W24486   7.900  14.732  12.385 -0.1712  0.0501 -0.0684
 6963W        W24487  13.279  10.124  15.438  0.0857  0.2805 -0.1340
 6964W        W24488   0.582  10.008   4.009 -0.1564 -0.4764 -0.2450
 6965W        W24489   1.475  12.823  11.014 -0.0012  0.2119 -0.0846
 6966W        W24490  17.145   9.380  15.292  0.2439 -0.0747  0.0488
 6967W        W24491   9.736   1.367  14.070  0.0668  0.2341  0.1603
 6968W        W24492   5.077   6.202  13.872 -0.0798  0.0808 -0.3336
 6969W        W24493  13.999  12.548  14.966 -0.1869 -0.3558  0.1027
 6970W        W24494  16.664   5.159  15.200  0.1439 -0.0897  0.0133
 6971W        W24495   3.820   1.035  11.893 -0.0745  0.0951 -0.1956
 6972W        W24496   6.481   2.545   4.411 -0.0025  0.1196  0.2662
 6973W        W24497   5.386   9.339  10.123 -0.3239 -0.2326  0.3301
 6974W        W24498  14.657  12.264   4.841 -0.1320 -0.0562  0.1545
 6975W        W24499   8.494   1.410   0.311 -0.1172  0.1467 -0.3680
 6976W        W24500   1.855   2.915   4.615  0.2982  0.4329 -0.0796
 6977W        W24501   7.858  10.015   3.714 -0.0939  0.0477 -0.0783
 6978W        W24502   3.715   6.119  14.275 -0.1375  0.1442  0.0994
 6979W        W24503  15.874  15.133   4.332 -0.0392  0.0094  0.1380
 6980W        W24504  17.136   6.301   1.774  0.0086  0.0753  0.0577
 6981W        W24505   8.929  12.379   3.704  0.0827 -0.2065  0.0174
 6982W        W24506  15.216   5.499  10.335 -0.2765 -0.1732  0.1523
 6983W        W24507  12.912  10.305  11.699  0.2125 -0.0241  0.0422
 6984W        W24508   0.472  15.004  12.644  0.1360 -0.1009 -0.0860
 6985W        W24509   6.456  13.353  14.724  0.0852  0.1295  0.1398
 6986W        W24510  12.387  15.485   3.397  0.0179  0.1152 -0.0592
 6987W        W24511   3.104  11.702  13.529  0.1528  0.1027  0.1225
 6988W        W24512   1.529   2.956   0.757 -0.2258  0.3129 -0.1829
 6989W        W24513   1.511  13.699   3.070  0.2280  0.1860  0.1530
 6990W        W24514   0.275  10.622   3.448  0.0504 -0.2224 -0.0654
 6991W        W24515   6.640   3.821   1.051  0.0209 -0.2189  0.2126
 6992W        W24516   6.085  11.858  13.438  0.0441  0.1203  0.1940
 6993W        W24517   4.438   6.595   2.154  0.0229 -0.1785 -0.0672
 6994W        W24518   9.753   3.997   4.349 -0.1958  0.0587  0.0969
 6995W        W24519   4.215   8.291   5.151  0.3571  0.2913 -0.3594
 6996W        W24520   5.348   1.891   2.231 -0.1298 -0.1105 -0.3857
 6997W        W24521   1.359   2.925   4.737  0.1243 -0.0337  0.0330
 6998W        W24522   4.317  15.252  12.512 -0.0948 -0.0300 -0.1043
 6999W        W24523  13.049   3.050   4.868 -0.0972  0.2122 -0.0336
 7000W        W24524   1.061   5.836  11.060 -0.0617 -0.3029  0.0271
 7001W        W24525   7.436  10.707   0.966 -0.2219 -0.0086 -0.5108
 7002W        W24526  15.560   9.057  14.614 -0.2273 -0.0104 -0.1410
 7003W        W24527  14.484   1.437   2.294  0.1863  0.2907 -0.0174
 7004W        W24528  14.242  10.089  14.625  0.3856 -0.0100  0.1618
 7005W        W24529  12.610   0.706   3.470 -0.1610  0.3707 -0.3993
 7006W        W24530  16.669   9.478  12.284 -0.0514 -0.0790 -0.1345
 7007W        W24531   8.509  12.038   2.979  0.4345  0.1710 -0.0885
 7008W        W24532   2.153   8.261  14.493  0.1994  0.2534 -0.3496
 7009W        W24533   2.307  15.713  10.454  0.1197  0.1395 -0.1542
 7010W        W24534  10.796  14.066   5.120  0.0755  0.1929 -0.0132
 7011W        W24535   6.618  16.655  15.468  0.3378 -0.4860  0.1100
 7012W        W24536   6.000  14.438  11.828  0.2688 -0.2904  0.1922
 7013W        W24537   8.783   0.495  15.032  0.3420  0.6957 -0.0723
 7014W        W24538  11.104  14.480   0.645 -0.0191 -0.3073  0.4199
 7015W        W24539  15.870   2.358   4.197  0.1284  0.1636 -0.0030
 7016W        W24540   3.518  16.606  12.694  0.0661  0.1678  0.0089
 7017W        W24541  13.240  17.797  14.307  0.0593 -0.0175 -0.1539
 7018W        W24542  14.368  17.622  12.391  0.0537  0.0769  0.0538
 7019W        W24543   7.506  15.025   3.021 -0.0054 -0.1447 -0.1184
 7020W        W24544   7.007  13.429  12.939 -0.2292  0.2821 -0.3705
 7021W        W24545  11.216  11.509   1.147 -0.2059  0.2245  0.2216
 7022W        W24546  11.171   5.937  14.303  0.1138 -0.1199  0.0976
 7023W        W24547   4.964  14.090   1.988 -0.0125 -0.1003  0.2130
 7024W        W24548  12.712   4.901  10.933 -0.0749  0.0463 -0.1101
 7025W        W24549  15.316   8.608   1.836 -0.0190  0.1469 -0.2327
 7026W        W24550  11.219  16.340   3.648  0.0795 -0.1671 -0.1865
 7027W        W24551   9.777   9.701  11.611 -0.2467 -0.0846  0.2085
 7028W        W24552  18.130   5.821   4.844  0.0949 -0.1535  0.0191
 7029W        W24553   5.621   1.672  15.060  0.2864  0.1513 -0.0510
 7030W        W24554   0.292  11.123   4.600 -0.0633 -0.1421 -0.0646
 7031W        W24555   9.307   2.828  13.945  0.0446 -0.1323 -0.2058
 7032W        W24556   5.805  14.005   2.917 -0.1411  0.2687  0.3114
 7033W        W24557  15.839   8.409   2.065 -0.3297  0.1560  0.1980
 7034W        W24558  13.268   7.330   1.948  0.2278 -0.1465  0.1535
 7035W        W24559   0.883   2.886   2.136 -0.1037 -0.0769 -0.2264
 7036W        W24560   9.772  14.189   2.062  0.0007  0.4069  0.2113
 7037W        W24561  14.509  17.450   1.122  0.0082 -0.0500  0.0534
 7038W        W24562  14.830   3.728  14.102 -0.0588  0.0936  0.1565
 7039W        W24563  14.217  11.439   3.201 -0.3982  0.6015  0.1074
 7040W        W24564   9.018   4.189  12.670  0.0388  0.0055 -0.1142
 7041W        W24565  17.357   9.263  14.836 -0.5691  0.0473 -0.1659
 7042W        W24566  17.746  13.663  11.843  0.0280  0.1996 -0.0445
 7043W        W24567   6.163   5.282   3.987 -0.1172 -0.2981  0.0596
 7044W        W24568  17.984  10.298   3.842  0.0054  0.0536 -0.3585
 7045W        W24569   6.199  14.543   3.554  0.1124  0.1132 -0.1537
 7046W        W24570   8.789   1.188   1.786  0.1276 -0.1783 -0.0122
 7047W        W24571  12.011   7.964   2.168  0.2971 -0.4356 -0.4438
 7048W        W24572  12.545  14.962  11.794  0.1737  0.1035  0.3626
 7049W        W24573  17.572   7.449   2.853  0.0533  0.0394  0.1690
 7050W        W24574  16.996   8.124   0.284 -0.0914  0.0352  0.0793
 7051W        W24575  13.629  15.483  13.740  0.2980 -0.1791 -0.0137
 7052W        W24576  14.928  12.979   0.284  0.2057  0.1100 -0.4422
 7053W        W24577  17.123   5.106   1.370  0.0288  0.0461 -0.0725
 7054W        W24578  12.343  16.164   4.497  0.0711  0.1522 -0.2189
 7055W        W24579  14.096  13.447   0.222  0.1236 -0.2323  0.0518
 7056W        W24580   4.896  10.486  13.082  0.0460  0.0810 -0.1584
 7057W        W24581   0.146   5.934  12.488 -0.3204  0.0419 -0.1193
 7058W        W24582   2.475   5.040  10.735 -0.3222  0.2313  0.1086
 7059W        W24583   0.552   7.317   3.503  0.0243  0.2356  0.0452
 7060W        W24584   0.707   9.251   0.867 -0.0593 -0.0544  0.1106
 7061W        W24585   6.342   8.516  11.633  0.0816  0.2408 -0.2653
 7062W        W24586  15.988   0.317   1.683 -0.2280  0.1778 -0.3047
 7063W        W24587   2.544   2.718   1.203  0.0231 -0.0065  0.3359
 7064W        W24588   4.263  18.364  10.276  0.2009 -0.0558 -0.0195
 7065W        W24589  15.841   1.281  13.252 -0.2155  0.1225  0.1309
 7066W        W24590  13.755  10.799   4.415  0.0077  0.2336  0.0492
 7067W        W24591   2.083   7.582  13.847 -0.0342  0.3290  0.1731
 7068W        W24592  14.618  14.874  15.160 -0.1313 -0.2102  0.0751
 7069W        W24593  10.518  15.156   0.967 -0.0063  0.0129 -0.0691
 7070W        W24594   7.640   4.549  14.816 -0.0180 -0.0736 -0.2302
 7071W        W24595   9.603  10.020  15.396 -0.1604  0.3971 -0.2056
 7072W        W24596  16.718  18.142   0.814  0.4373 -0.1941 -0.3266
 7073W        W24597   9.073   6.380   3.580 -0.4150 -0.0860  0.0055
 7074W        W24598   9.001   0.322  15.451 -0.0424 -0.2712  0.0371
 7075W        W24599  15.486  10.143  14.886 -0.0686 -0.3712  0.0944
 7076W        W24600  12.321   4.459   2.523  0.0426  0.0624  0.0173
 7077W        W24601   0.764   6.956  10.543  0.1778  0.0032  0.0178
 7078W        W24602   4.631   7.217   4.523  0.1200  0.0217  0.1283
 7079W        W24603  10.032   6.426   4.002  0.2270  0.0818  0.1749
 7080W        W24604  11.884  12.604   0.007 -0.0138 -0.0292 -0.0659
 7081W        W24605   7.041  18.200   1.655 -0.3671 -0.3617  0.1817
 7082W        W24606  10.971   1.998   4.517 -0.2161 -0.0341 -0.0602
 7083W        W24607  10.630   3.097   3.342  0.0454 -0.1378 -0.5727
 7084W        W24608  15.761   4.654   1.237  0.0871  0.1160  0.1800
 7085W        W24609  17.657   1.361   1.462  0.2020 -0.0842 -0.4304
 7086W        W24610   3.823   3.055  13.893  0.0887  0.1659  0.1695
 7087W        W24611   6.160  18.182  11.371 -0.0083  0.3159  0.1174
 7088W        W24612  15.116  12.938  14.510  0.2555  0.0104  0.1184
 7089W        W24613  15.384  17.376   3.561 -0.0181 -0.1178  0.0720
 7090W        W24614   3.977  12.117  10.906  0.1746  0.1779  0.0645
 7091W        W24615  14.702  14.230   1.947  0.2281 -0.1900  0.0288
 7092W        W24616   9.111   9.058   0.062 -0.1157  0.1270 -0.0438
 7093W        W24617   4.826  17.521   0.857  0.0385 -0.2684  0.1980
 7094W        W24618  18.310   4.083  13.196 -0.1342 -0.1271  0.0804
 7095W        W24619  18.463   8.876  12.382  0.0393 -0.0212 -0.1398
 7096W        W24620  16.191  16.368   4.423 -0.1430 -0.1851  0.1555
 7097W        W24621  13.960   7.527  14.800  0.1006  0.0386 -0.1135
 7098W        W24622  16.387   5.463   4.376 -0.0213  0.1684 -0.0212
 7099W        W24623   6.971   0.588   0.566 -0.1447  0.1738  0.0754
 7100W        W24624  12.160  10.067   1.586  0.0805  0.1577  0.0057
 7101W        W24625  17.207  15.836   0.764  0.0497 -0.3864 -0.4170
 7102W        W24626  12.318  12.355   1.707  0.1474  0.1439 -0.2356
 7103W        W24627   7.088  17.769   4.027  0.2851 -0.5539 -0.2968
 7104W        W24628   8.515  10.677  13.947  0.0384  0.0804 -0.1711
 7105W        W24629  11.146   2.101   2.949 -0.0593  0.0623 -0.0589
 7106W        W24630  10.393   3.885  13.891  0.1414 -0.2644 -0.0570
 7107W        W24631   7.162  11.947   0.993 -0.4452  0.0690  0.1097
 7108W        W24632   1.809  17.022  12.700  0.1266 -0.1305  0.2271
 7109W        W24633   2.848   7.538   4.381 -0.0619 -0.1780  0.2306
 7110W        W24634  12.244  16.960  15.007 -0.1176  0.0745 -0.2468
 7111W        W24635   9.971  16.782  12.159  0.1150  0.0570  0.0946
 7112W        W24636  11.297   5.858   4.757  0.0631  0.0130  0.2046
 7113W        W24637  18.395  14.749  13.397 -0.1932  0.0428  0.2681
 7114W        W24638   5.494   8.390   0.931  0.2519  0.0701 -0.2573
 7115W        W24639   6.192   0.555  15.305  0.1482 -0.2787  0.1685
 7116W        W24640   5.806  13.245   0.116  0.1364 -0.0042  0.3870
 7117W        W24641   3.119   2.415   0.913 -0.0626  0.2302  0.0743
 7118W        W24642  13.402   9.214  12.905  0.0034  0.1183  0.1214
 7119W        W24643  15.783   1.879   3.884 -0.1150 -0.0144 -0.1150
 7120W        W24644  11.311  15.115   4.411  0.0342 -0.4000  0.0940
 7121W        W24645   6.017  16.900   4.790  0.0366 -0.1269 -0.0078
 7122W        W24646  12.966  13.769   2.901 -0.4628 -0.0238  0.1661
 7123W        W24647   8.769  18.270   1.304  0.0292 -0.0016  0.2005
 7124W        W24648   3.515  18.018  12.009 -0.0105  0.0397 -0.0236
 7125W        W24649  16.254  15.286  14.381  0.1750 -0.0733 -0.1239
 7126W        W24650  13.620  16.556  14.275  0.0118  0.1174 -0.2031
 7127W        W24651  11.406   8.329  13.123 -0.0391 -0.2322  0.0825
 7128W        W24652   4.064   5.476  11.794  0.2300  0.2371 -0.3440
 7129W        W24653   7.184  10.863  15.159  0.1530  0.0910  0.1120
 7130W        W24654   0.838   1.808  12.046 -0.1676 -0.2504  0.0444
 7131W        W24655  15.013   8.381  12.655  0.0472  0.3691 -0.0027
 7132W        W24656   4.383  12.699  14.264 -0.2726 -0.1585 -0.2643
 7133W        W24657  14.500   9.058  14.584 -0.2619 -0.1370  0.0097
 7134W        W24658   9.538   1.819  14.080  0.2921 -0.4489  0.0815
 7135W        W24659  10.174   1.058  11.923 -0.2841  0.1756  0.2670
 7136W        W24660  13.662   7.110  13.435 -0.0281 -0.0325  0.1978
 7137W        W24661  17.826  18.335  13.539 -0.1687  0.0533  0.0434
 7138W        W24662   0.026  13.473   0.744 -0.2542  0.0628 -0.0744
 7139W        W24663  10.959   4.835   1.270  0.1767  0.3468  0.1572
 7140W        W24664   5.012   4.944  13.405  0.3726  0.0821 -0.0997
 7141W        W24665   0.053   3.623  13.098  0.3333  0.1587  0.0652
 7142W        W24666   0.035   3.587  10.892 -0.2153  0.0467 -0.1816
 7143W        W24667   6.282   4.288  11.031  0.6042  0.0019  0.2210
 7144W        W24668   9.206  11.053  13.267 -0.2900  0.0319  0.0186
 7145W        W24669  17.118  13.256  11.049 -0.1191 -0.1123  0.0300
 7146W        W24670  12.468   5.148   4.607  0.2258 -0.2296 -0.1934
 7147W        W24671   2.541   0.796   4.501 -0.4352  0.2501  0.0400
 7148W        W24672  14.859   4.102  14.612 -0.3265  0.0368  0.0340
 7149W        W24673   1.478  15.532  14.342  0.1120  0.1686  0.2763
 7150W        W24674   2.720  16.821  14.952  0.0354  0.2659 -0.0959
 7151W        W24675  15.361   7.863  14.653 -0.1253 -0.1751 -0.0033
 7152W        W24676   1.949  18.356   2.755  0.0396  0.1822 -0.2085
 7153W        W24677   0.549  12.752   2.141 -0.0387 -0.1089  0.1459
 7154W        W24678   4.719  13.020   1.275  0.5272 -0.4779 -0.0225
 7155W        W24679  12.911   2.880  12.599  0.4193  0.1085 -0.0334
 7156W        W24680  11.791  16.870   0.752 -0.0018  0.0324 -0.0330
 7157W        W24681  15.106  15.052  15.101  0.0294 -0.1121 -0.2977
 7158W        W24682  14.281  10.184  12.899 -0.1270  0.2838  0.0833
 7159W        W24683   0.753  10.683  13.325 -0.0523  0.2553 -0.1312
 7160W        W24684   2.364  15.531   5.003 -0.5107 -0.0932 -0.0064
 7161W        W24685   5.248  12.506   1.800 -0.3160  0.0905  0.0442
 7162W        W24686   2.670  12.028  14.821  0.0226 -0.0377 -0.0292
 7163W        W24687   7.282   0.230   0.823  0.1275 -0.1048  0.2219
 7164W        W24688  16.379  14.290  11.133  0.2243 -0.2200  0.0695
 7165W        W24689  15.894   1.407   4.605  0.0492  0.0305 -0.0386
 7166W        W24690   4.818   2.925   2.868 -0.0304 -0.0956  0.1914
 7167W        W24691  11.161   3.630  15.489  0.0166  0.1694 -0.3198
 7168W        W24692   2.693  16.890   1.918  0.2476  0.2993 -0.0272
 7169W        W24693   5.014  10.631  11.532  0.0379  0.1787  0.1084
 7170W        W24694  11.980   4.665  13.319 -0.1988 -0.1729  0.0414
 7171W        W24695   4.187  13.296   4.109  0.1250 -0.0550 -0.0103
 7172W        W24696   4.277  11.514   1.240 -0.0433  0.0696 -0.0002
 7173W        W24697   1.466   8.861  15.574 -0.0741  0.4584  0.1208
 7174W        W24698   1.299  11.033  12.784  0.0970 -0.0508  0.1629
 7175W        W24699   5.840   5.540   4.274 -0.1553 -0.0570  0.3464
 7176W        W24700   2.218   7.506   2.478  0.0585  0.0809 -0.0299
 7177W        W24701   5.131   7.312   5.234  0.2301 -0.0782 -0.1016
 7178W        W24702  12.571   7.860  11.786  0.1028 -0.1344  0.1350
 7179W        W24703   8.166  14.453  11.346  0.0529  0.2572 -0.1207
 7180W        W24704   5.552  12.446   1.230  0.0421  0.1151 -0.3340
 7181W        W24705   8.073   3.099   2.814  0.0598  0.1766  0.1487
 7182W        W24706   8.967  13.142   4.928  0.0854 -0.3451 -0.1663
 7183W        W24707  13.852   2.186   2.838  0.3898  0.5176 -0.0319
 7184W        W24708   5.699   0.694   3.591  0.2541 -0.0671 -0.0169
 7185W        W24709   7.299  11.023  11.731 -0.0844 -0.0150  0.0354
 7186W        W24710  12.347   0.483  11.294 -0.0667  0.0818  0.2207
 7187W        W24711  12.657  12.043  10.119 -0.0882 -0.0674 -0.0385
 7188W        W24712  11.321   7.183   1.542 -0.1835  0.1430  0.1194
 7189W        W24713   1.384   9.555  14.891  0.1486  0.1076 -0.0270
 7190W        W24714   5.454  14.794  14.003 -0.1676  0.4085 -0.0307
 7191W        W24715   3.560  15.813  12.368  0.1579  0.2099 -0.0330
 7192W        W24716  13.548   3.414  11.416  0.0776 -0.1030  0.2196
 7193W        W24717   6.558   0.661   4.931 -0.1238  0.1209  0.0268
 7194W        W24718   6.646  16.187   3.408 -0.1375  0.0082  0.0021
 7195W        W24719   8.470  18.082   1.981  0.2157 -0.4628 -0.0633
 7196W        W24720   5.463   8.338   5.075  0.1392 -0.1677  0.3103
 7197W        W24721  10.238  11.352  13.458  0.2277  0.1220 -0.1856
 7198W        W24722   0.099   2.021  13.745  0.0574 -0.1111 -0.3439
 7199W        W24723  16.252  14.179  12.739  0.1288  0.0558  0.3174
 7200W        W24724   9.825   8.104   2.663 -0.0171 -0.2583  0.3190
 7201W        W24725   4.090   6.570   1.727  0.0295 -0.3344 -0.0733
 7202W        W24726  11.342   5.793   9.705 -0.0726 -0.1038 -0.1138
 7203W        W24727  11.348  15.104   1.434 -0.0349 -0.0355  0.0255
 7204W        W24728  17.249  11.982  12.449 -0.1535  0.0325 -0.2531
 7205W        W24729   1.920  17.045  11.447  0.3663  0.1152  0.3922
 7206W        W24730   3.406  13.396  11.422 -0.0808  0.1817 -0.0171
 7207W        W24731   7.561   1.757  12.540  0.3658 -0.0861 -0.2948
 7208W        W24732  17.514  17.779  15.515 -0.2197 -0.0564  0.0948
 7209W        W24733   8.122  15.385  11.609  0.1602 -0.1920 -0.2047
 7210W        W24734   6.694  12.564  12.581  0.3649 -0.3787  0.1807
 7211W        W24735   3.565   2.966   2.124  0.0221  0.4138 -0.0392
 7212W        W24736  14.583   6.712  14.076 -0.0192  0.0912 -0.1016
 7213W        W24737  17.740  11.602  13.677 -0.0854  0.1565 -0.1675
 7214W        W24738   1.418  11.269   5.032 -0.0365 -0.1497 -0.0300
 7215W        W24739  12.984  14.401  11.942 -0.0148 -0.2887 -0.2564
 7216W        W24740   0.155   6.679  14.811  0.0704  0.0621  0.1555
 7217W        W24741  15.353  10.097   2.502 -0.4347 -0.2290 -0.5444
 7218W        W24742  13.531  17.570   3.663  0.0045  0.2057  0.0304
 7219W        W24743  12.705  14.161   2.930  0.3246  0.0801 -0.1735
 7220W        W24744   9.361   7.553   1.921 -0.1352  0.0850 -0.0395
 7221W        W24745   4.316   1.608   2.347 -0.1555  0.2040  0.0574
 7222W        W24746   9.891  12.485  10.857  0.0462  0.0179 -0.2859
 7223W        W24747  15.983  16.220   1.903  0.0388 -0.1228  0.0475
 7224W        W24748   8.753  17.521  11.385  0.2810  0.0969  0.0443
 7225W        W24749   2.588  10.977   2.867  0.2289  0.0710  0.0263
 7226W        W24750   5.109   0.341  12.192 -0.1857 -0.0576 -0.1705
 7227W        W24751   3.550   4.958   2.734  0.2630  0.0643 -0.1294
 7228W        W24752  18.344   4.294  15.148 -0.0067 -0.0065 -0.1356
 7229W        W24753  14.306  15.562   0.683  0.1960  0.0654 -0.2455
 7230W        W24754  16.673   3.472  14.544 -0.0008  0.0842 -0.1197
 7231W        W24755  16.149  17.167   4.592 -0.1923  0.0672  0.0684
 7232W        W24756  15.004   2.652   0.790 -0.0800 -0.0136  0.0349
 7233W        W24757   0.077  13.894   5.924  0.2500 -0.0727  0.3330
 7234W        W24758   2.334  15.178  15.227  0.1864  0.0516  0.2723
 7235W        W24759   3.144  14.112   1.207  0.0235  0.0835 -0.0386
 7236W        W24760  18.408  11.611   4.246  0.0905  0.2370 -0.0817
 7237W        W24761  12.714  15.086  14.154 -0.1722 -0.0721 -0.2496
 7238W        W24762  13.303   6.083  14.803  0.0063  0.0576 -0.0433
 7239W        W24763   8.689   4.827   1.941 -0.1905 -0.1760 -0.2104
 7240W        W24764   1.803   5.489  14.722  0.2698  0.1954 -0.0371
 7241W        W24765  11.925  16.391   4.746 -0.1831 -0.1220  0.0655
 7242W        W24766   0.248   8.422  11.199  0.0860 -0.1581  0.0022
 7243W        W24767   9.409   0.594  11.873  0.1993  0.2656 -0.3771
 7244W        W24768   0.607   2.579  12.475  0.0119 -0.2793 -0.1724
 7245W        W24769  14.182  13.138  12.543  0.4027  0.0763  0.3819
 7246W        W24770  10.435   6.931  14.956 -0.0651 -0.0252  0.1869
 7247W        W24771  11.326  14.597  11.981 -0.1240  0.0834 -0.0034
 7248W        W24772   3.415   3.406   0.599  0.1352  0.0504 -0.1448
 7249W        W24773  17.888   7.068  15.161  0.2135 -0.0030 -0.1736
 7250W        W24774   0.991   6.228  13.750  0.3735 -0.3269  0.1400
 7251W        W24775   2.309   0.069   3.937  0.0705 -0.2403 -0.0664
 7252W        W24776  16.449  12.403   4.079 -0.1736  0.0460 -0.0123
 7253W        W24777   0.347  15.378   0.261  0.2168  0.1432  0.1916
 7254W        W24778   5.023  18.326  13.749 -0.0779 -0.0092  0.1451
 7255W        W24779  10.339  13.462   3.268  0.1196 -0.1213 -0.1150
 7256W        W24780  18.044   4.412  10.617  0.1367  0.1164 -0.4167
 7257W        W24781   0.661   7.391  12.177 -0.0729 -0.0123 -0.2469
 7258W        W24782   8.272   0.305   3.259  0.3829 -0.3021 -0.1346
 7259W        W24783  15.334   3.386  11.859  0.0006 -0.2355  0.1021
 7260W        W24784   8.451  14.277  11.745 -0.1524 -0.2675 -0.3199
 7261W        W24785  15.190  10.693   2.216  0.0047  0.0352  0.1663
 7262W        W24786  12.725  11.067   1.868  0.0980 -0.1570  0.1692
 7263W        W24787  13.186   7.841  12.903 -0.4285 -0.1976  0.3325
 7264W        W24788   1.438   6.629  11.086  0.0335  0.0660  0.0618
 7265W        W24789   2.197  16.626   1.940 -0.0535  0.1506 -0.4003
 7266W        W24790   0.253  10.661  10.099 -0.0040  0.2366 -0.1512
 7267W        W24791  18.383   2.445  11.758  0.1698  0.1380  0.2062
 7268W        W24792   1.411  17.668   1.554 -0.3793  0.1405 -0.1477
 7269W        W24793   9.829   3.096  15.032  0.1371  0.1966  0.3612
 7270W        W24794   1.832   5.798  14.150  0.2845  0.0849 -0.1356
 7271W        W24795   3.866  12.955  15.217  0.0999  0.0513 -0.1088
 7272W        W24796   3.137   1.780  15.229  0.1368 -0.0814  0.3349
 7273W        W24797   6.281  17.229  10.786 -0.0407  0.0490  0.5222
 7274W        W24798   3.532  15.437   1.815  0.0957  0.5482  0.0519
 7275W        W24799   9.088  15.473   4.052  0.2990  0.1397  0.2476
 7276W        W24800  10.277   0.334   3.601 -0.2630  0.0054  0.0486
 7277W        W24801   9.711  10.151   4.658  0.1069  0.1894 -0.2194
 7278W        W24802   7.460  13.965   1.507  0.0472  0.2663  0.0913
 7279W        W24803   7.790   5.640   2.532  0.0145 -0.1754  0.0938
 7280W        W24804  17.778   9.460   0.064 -0.4841  0.3633  0.0566
 7281W        W24805   2.437   9.074   2.683  0.1532  0.0260 -0.1890
 7282W        W24806  17.522   8.361   9.936 -0.0161  0.1150 -0.2553
 7283W        W24807   2.942  10.576   0.345  0.0884 -0.3218  0.2282
 7284W        W24808  16.133  10.548  11.386 -0.0681  0.0047  0.0753
 7285W        W24809  13.295   1.331   1.479  0.1025  0.0784  0.0802
 7286W        W24810  10.246  14.317  11.781 -0.1316 -0.1878 -0.1215
 7287W        W24811  15.896   5.066  11.630  0.1115  0.0730 -0.1920
 7288W        W24812   4.478   0.465   2.097 -0.2274  0.1067 -0.3200
 7289W        W24813   3.165  16.669   4.769 -0.1401  0.0245  0.2430
 7290W        W24814  11.077  14.103  12.231 -0.0738  0.0917 -0.1441
 7291W        W24815   4.470   9.962   2.200 -0.0049 -0.0692  0.4628
 7292W        W24816  14.312   4.337  12.748 -0.2069 -0.2674  0.2848
 7293W        W24817  16.038  18.184   4.750  0.0508 -0.2918 -0.3104
 7294W        W24818   7.452   3.929   3.469 -0.2705 -0.3234  0.2424
 7295W        W24819   0.529  11.741   3.485  0.1093 -0.1638  0.0199
 7296W        W24820  17.512  17.553  12.419 -0.0582  0.2008 -0.2785
 7297W        W24821  12.581   6.489  11.614 -0.0239 -0.2709  0.1715
 7298W        W24822   4.111   1.117   2.591 -0.1281  0.2553  0.0595
 7299W        W24823   4.419   8.269  13.919  0.1156  0.0489  0.0980
 7300W        W24824   4.172   0.714  12.452 -0.0885  0.2845 -0.1381
 7301W        W24825  17.461  11.497   3.431 -0.1799  0.0904 -0.2470
 7302W        W24826  14.153  10.095   2.050 -0.1372  0.0523  0.0342
 7303W        W24827  15.363   3.469   1.842  0.2967 -0.4152 -0.2133
 7304W        W24828   1.665   6.344   3.045 -0.0014 -0.0686  0.1035
 7305W        W24829   0.305   0.299  11.741 -0.1507  0.0861  0.2900
 7306W        W24830   0.560  10.295  12.522 -0.2087  0.1049  0.0451
 7307W        W24831  16.785   2.320   0.658 -0.0117  0.1360 -0.0484
 7308W        W24832  13.090  17.207  13.152  0.3821  0.1699 -0.0100
 7309W        W24833   8.952   5.653  14.883  0.3341  0.1944  0.0038
 7310W        W24834   6.071   6.360   3.817 -0.1579  0.1383 -0.4488
 7311W        W24835  11.165  13.788   4.229  0.1263 -0.5545  0.2258
 7312W        W24836  16.701  14.627   1.599 -0.0030 -0.1070 -0.0414
 7313W        W24837  17.982   6.106  14.359 -0.3152 -0.0735  0.3530
 7314W        W24838   7.911   0.157   5.115 -0.0349 -0.4332  0.2098
 7315W        W24839  12.475  11.345   3.264 -0.1628  0.4659 -0.1306
 7316W        W24840   9.626  17.456  15.679 -0.0749  0.0340 -0.2926
 7317W        W24841  12.451   1.147  11.679 -0.0179 -0.1717 -0.0292
 7318W        W24842  13.037   6.256   0.408 -0.2499  0.0368 -0.5380
 7319W        W24843  11.699   1.095  13.121  0.1738 -0.0340  0.1115
 7320W        W24844  12.231  15.383  11.086 -0.1508  0.0034  0.2959
 7321W        W24845  12.265   2.850  13.353  0.1058  0.0996 -0.3010
 7322W        W24846   6.637  10.493   2.575 -0.0343  0.1256  0.0806
 7323W        W24847   9.048   0.463   0.736  0.2803 -0.1611 -0.1168
 7324W        W24848  18.246  11.694  14.442 -0.4005 -0.2625  0.1329
 7325W        W24849   3.618   6.002  15.723 -0.1121 -0.0728 -0.1669
 7326W        W24850  10.894   4.119   0.322 -0.2914 -0.0081  0.3086
 7327W        W24851   4.867   9.016   4.665 -0.1205  0.0134  0.1662
 7328W        W24852   3.077   8.321   2.050 -0.1007 -0.0343  0.2107
 7329W        W24853  15.842  12.042   1.693 -0.1223 -0.0708 -0.1440
 7330W        W24854   4.336  14.162   2.931  0.1655 -0.1308  0.3236
 7331W        W24855   3.227   6.842   0.005  0.0151  0.1802  0.2203
 7332W        W24856  14.499  12.420   2.016  0.2391  0.2742  0.1899
 7333W        W24857   9.428  13.969  15.112 -0.0214  0.3562  0.1922
 7334W        W24858   7.210  12.077   0.473  0.0414  0.0853 -0.1035
 7335W        W24859   8.743   3.520   3.384 -0.2451  0.1192 -0.0959
 7336W        W24860  10.664  14.303   0.331 -0.0939 -0.0641  0.3091
 7337W        W24861  17.087  14.317   5.093  0.3111 -0.1816 -0.0457
 7338W        W24862  11.226  13.550   2.526  0.0459 -0.1734  0.0725
 7339W        W24863  17.800   8.306  13.623 -0.0190 -0.0192  0.2328
 7340W        W24864  16.813   2.349  15.361 -0.1076 -0.0260 -0.2331
 7341W        W24865   7.382  14.694   4.319 -0.2667 -0.2668  0.0240
 7342W        W24866  15.222   2.004  11.274  0.1026  0.0330  0.2382
 7343W        W24867  12.206  15.690   4.707 -0.0837 -0.1924  0.1941
 7344W        W24868  15.675   4.460  13.355 -0.0252 -0.2411  0.0804
 7345W        W24869   7.119  11.770  11.292  0.2265  0.1741  0.0448
 7346W        W24870  12.808   5.868   1.944 -0.1651 -0.1229 -0.0062
 7347W        W24871  13.031   5.901  13.180 -0.0858  0.1255 -0.2822
 7348W        W24872   6.252  10.259   2.317  0.1277 -0.1212 -0.2032
 7349W        W24873   0.000   6.130   3.131 -0.0750  0.1054  0.0787
 7350W        W24874  12.579   7.948  12.853  0.1365 -0.3764 -0.0796
 7351W        W24875  17.612  13.714   4.553 -0.4621 -0.1476 -0.0585
 7352W        W24876   3.775  17.248   1.255  0.1800  0.2542 -0.2266
 7353W        W24877  11.285   4.402  10.442 -0.0145 -0.2237  0.0230
 7354W        W24878   5.347   4.548  11.262 -0.1680 -0.0417 -0.3177
 7355W        W24879   1.253   6.630   3.125 -0.1839  0.0798 -0.1795
 7356W        W24880  15.044  17.487   0.548  0.2357  0.0910  0.1130
 7357W        W24881  12.003  12.149   5.388  0.2630 -0.1652 -0.2446
 7358W        W24882  18.422  16.871   4.490 -0.0445  0.0900 -0.0325
 7359W        W24883   3.881  12.423   4.379 -0.1943 -0.1397 -0.0200
 7360W        W24884  17.336  18.063  14.637  0.1629 -0.1937 -0.1690
 7361W        W24885  13.297  15.844  15.578  0.2500  0.1290 -0.2160
 7362W        W24886   8.155   3.875   1.644 -0.1577 -0.2126 -0.2705
 7363W        W24887  13.110   2.378  13.347  0.0551 -0.1004  0.1184
 7364W        W24888   6.087  17.546  13.869  0.0114  0.2456  0.3464
 7365W        W24889   9.961   5.158   3.430  0.4444 -0.0059  0.0431
 7366W        W24890  16.865   7.868   3.867  0.1021 -0.1485 -0.1083
 7367W        W24891   9.470   8.270  11.453  0.1067  0.2034 -0.1395
 7368W        W24892   5.752   3.928  11.798 -0.2987  0.2755  0.1045
 7369W        W24893   7.131  15.410   2.639  0.1929 -0.1907 -0.0066
 7370W        W24894   0.894   9.825   3.638 -0.0733 -0.0052 -0.1955
 7371W        W24895   0.341  11.944  13.055  0.5658  0.0671  0.0889
 7372W        W24896   9.476  12.971   9.987  0.0629  0.1758 -0.3643
 7373W        W24897  14.332  13.973   2.103 -0.0995  0.3123  0.1125
 7374W        W24898  12.639  14.729  12.780  0.1754 -0.0299 -0.2868
 7375W        W24899  16.366   9.886   1.925  0.3867 -0.3835  0.0467
 7376W        W24900  11.294   3.559   3.770 -0.0402 -0.2811 -0.1546
 7377W        W24901  11.995   0.572  13.796 -0.3187  0.3230 -0.3381
 7378W        W24902  15.012   2.317   2.549 -0.1495 -0.1565  0.4643
 7379W        W24903   8.483   6.873   3.976  0.1143 -0.0113  0.0169
 7380W        W24904  10.833   9.063  11.179  0.0217 -0.0398  0.2066
 7381W        W24905   9.044  11.927   1.406  0.1661 -0.0410  0.1184
 7382W        W24906   5.843   6.745   1.226 -0.1725 -0.1632 -0.0104
 7383W        W24907   6.817  10.373   1.616 -0.1342 -0.3771 -0.2146
 7384W        W24908  11.460  12.619   2.697 -0.0096  0.0437 -0.0527
 7385W        W24909  18.414  13.998   3.151 -0.2919 -0.0359 -0.2875
 7386W        W24910   2.028  16.184  13.310  0.0048  0.3202  0.0555
 7387W        W24911  11.268   0.176  14.767 -0.0734  0.0001 -0.0803
 7388W        W24912  12.086  13.644  11.747  0.0396  0.0529 -0.1790
 7389W        W24913  10.278  17.214  12.067  0.2426 -0.3550 -0.0902
 7390W        W24914   0.069   8.308  12.317 -0.0714  0.0792 -0.2390
 7391W        W24915   6.965  17.736  10.943  0.0514 -0.3253 -0.1151
 7392W        W24916  11.575   5.238  12.692  0.0114  0.2056 -0.0053
 7393W        W24917  17.118  15.633   3.153  0.0127  0.1096  0.1722
 7394W        W24918   5.176   6.290   1.713 -0.2513  0.0154 -0.0173
 7395W        W24919  16.412   2.083  15.246  0.3256 -0.0192 -0.0800
 7396W        W24920   1.875   5.681   0.699 -0.1242  0.2258  0.0448
 7397W        W24921   3.545  13.610  14.625  0.2637 -0.2586 -0.1517
 7398W        W24922   1.581  15.243   4.034 -0.1483 -0.1213 -0.1784
 7399W        W24923   0.998  14.045   3.978 -0.0616  0.1851 -0.5465
 7400W        W24924   2.555   9.333   0.579  0.0671 -0.1048  0.0084
 7401W        W24925   3.722  14.310   5.053 -0.1302  0.1962 -0.1806
 7402W        W24926   5.172   1.294   4.021 -0.1126 -0.0359  0.1326
 7403W        W24927  14.834   9.325   2.047 -0.0764  0.0578  0.1454
 7404W        W24928   8.273   7.521  12.900 -0.0162 -0.2097 -0.2702
 7405W        W24929  17.447   0.161  15.201 -0.6060 -0.1864  0.2192
 7406W        W24930   7.019  10.007   0.688  0.0965  0.0440 -0.1007
 7407W        W24931  16.703   8.736   1.444  0.1120 -0.0248  0.1930
 7408W        W24932   5.531  18.389   5.542 -0.2953  0.0083  0.0199
 7409W        W24933  12.034  15.061   4.745 -0.1410 -0.1260  0.0700
 7410W        W24934   5.987  14.926  10.989 -0.1139  0.0653  0.0824
 7411W        W24935  11.187  14.541  13.127 -0.2577  0.3243  0.1972
 7412W        W24936  18.001  13.575  14.826  0.4073 -0.3576 -0.0733
 7413W        W24937   6.503   4.155   4.033  0.0225  0.0436 -0.0929
 7414W        W24938  14.801   8.803  12.925  0.4030  0.0316 -0.4285
 7415W        W24939   2.811   7.104   0.302 -0.0156  0.1050 -0.0632
 7416W        W24940  13.888  11.336   0.917 -0.1886 -0.2663 -0.1000
 7417W        W24941  14.995  12.965  13.722  0.2109  0.1333  0.1042
 7418W        W24942  16.583   7.581   1.321  0.0235  0.0597  0.1057
 7419W        W24943   0.751   4.424   0.019 -0.3006  0.2422 -0.1579
 7420W        W24944  10.608   0.773   3.674 -0.2896 -0.0668 -0.1490
 7421W        W24945   3.541  13.088   1.799  0.3193 -0.0482  0.0540
 7422W        W24946   5.201   2.780  14.004  0.0122  0.1057  0.0275
 7423W        W24947   5.403  16.644  11.550 -0.4118  0.1248  0.3323
 7424W        W24948  12.346  16.918  14.491  0.0577 -0.0060 -0.0213
 7425W        W24949  15.388  12.583  13.214  0.1546 -0.0632 -0.2351
 7426W        W24950   9.555  14.790   3.195  0.2918 -0.2133 -0.4130
 7427W        W24951  17.555   2.016   0.097 -0.0180 -0.1148  0.1907
 7428W        W24952   0.632   1.891   3.251  0.1235 -0.1691  0.0337
 7429W        W24953   7.572   1.000  11.591  0.1425  0.2322  0.2289
 7430W        W24954   8.347   1.627  14.627 -0.0997 -0.2939 -0.0641
 7431W        W24955  12.570   9.005   0.197 -0.0805 -0.2843 -0.0188
 7432W        W24956   6.183   2.186  10.342  0.1562 -0.1044  0.0816
 7433W        W24957  12.693   2.435  12.604 -0.4098  0.1821  0.2649
 7434W        W24958   2.046   4.435  14.751  0.1263 -0.5283  0.0411
 7435W        W24959  11.479  15.246   0.353 -0.0510  0.0200 -0.2395
 7436W        W24960   9.385  13.073   4.671  0.1358 -0.1599  0.1536
 7437W        W24961  13.146  16.703   4.950  0.0646  0.2235 -0.0468
 7438W        W24962  11.900  11.709  12.820 -0.2908 -0.4276  0.1060
 7439W        W24963   0.958  14.321  15.565 -0.2846  0.3339 -0.2428
 7440W        W24964  15.461  16.092  11.407  0.3175 -0.2970 -0.0555
 7441W        W24965  15.174  16.789  12.695 -0.0361  0.4115  0.0476
 7442W        W24966   4.570   4.884   3.438  0.0028 -0.0371  0.0650
 7443W        W24967  16.571   8.492   2.731 -0.1408  0.4040 -0.0350
 7444W        W24968   8.740  11.268   1.377  0.0350  0.1228 -0.0067
 7445W        W24969  13.789   8.906  15.148 -0.0542  0.0073  0.2719
 7446W        W24970   1.826   9.616   5.480  0.1999  0.1109  0.0140
 7447W        W24971   7.149  15.289   2.121  0.1722  0.0177 -0.3265
 7448W        W24972  10.550  13.780   4.028  0.1655 -0.2178  0.0690
 7449W        W24973   8.776   0.936   3.829 -0.0488  0.1109 -0.0165
 7450W        W24974   8.552  14.492   1.617  0.0781  0.1456 -0.1789
 7451W        W24975  10.032   6.421  14.144 -0.0545  0.1301 -0.2562
 7452W        W24976  15.348   4.937  15.542  0.4419  0.0609  0.1921
 7453W        W24977   5.922  17.910  15.129 -0.1699 -0.3515 -0.2010
 7454W        W24978  10.341  14.276   1.731 -0.0875  0.0532  0.1412
 7455W        W24979  14.250   0.869   4.489  0.2268 -0.1714  0.2500
 7456W        W24980   9.986  14.660  14.314  0.4347 -0.1156 -0.0532
 7457W        W24981  14.536   0.239  15.237  0.2578  0.0944 -0.3115
 7458W        W24982   3.748   7.724  12.293  0.1725  0.1061 -0.1053
 7459W        W24983  17.789  16.070  11.247  0.0392 -0.0335  0.1195
 7460W        W24984   6.311   7.565   3.284 -0.2643 -0.2606  0.0070
 7461W        W24985  17.952  11.342   4.274 -0.0274 -0.0201  0.3691
 7462W        W24986   6.312  15.434  11.911 -0.1268 -0.2277  0.0269
 7463W        W24987  12.841   3.602  13.102 -0.1923 -0.1406 -0.0229
 7464W        W24988   2.973   0.912  12.014 -0.3915 -0.1821 -0.1394
 7465W        W24989  12.536  10.252  13.980 -0.0195  0.0877 -0.4455
 7466W        W24990   2.123  14.578  13.602 -0.0519 -0.2048 -0.0052
 7467W        W24991   7.045   3.969   2.688  0.2380  0.1136  0.1226
 7468W        W24992   6.115   1.912  12.552  0.2493 -0.0785  0.0354
 7469W        W24993   1.930  12.794  13.663 -0.2969 -0.0656  0.3460
 7470W        W24994  11.514   7.164   3.056 -0.3072  0.0704 -0.0644
 7471W        W24995  15.902  10.441   0.161 -0.1268  0.0410 -0.1357
 7472W        W24996  14.395  11.418  13.038 -0.0072 -0.2354 -0.1590
 7473W        W24997  12.243  10.748  13.900 -0.0085  0.0691 -0.0251
 7474W        W24998  14.055   8.805   3.521  0.4554  0.1608 -0.0772
 7475W        W24999   5.065   6.702  15.230  0.2059 -0.2222 -0.4694
 7476W        W25000  12.962  17.909  11.378 -0.0932 -0.2970 -0.2695
 7477W        W25001  12.437  14.719   4.749 -0.3290  0.0351  0.0496
 7478W        W25002  11.651   6.447   2.727  0.3958  0.1000 -0.2153
 7479W        W25003   2.281  16.844  13.981  0.0774  0.0564 -0.4331
 7480W        W25004   2.783   4.152   0.540 -0.0875  0.1005 -0.2178
 7481W        W25005   9.240  11.811   4.173  0.1404 -0.2136  0.0639
 7482W        W25006   4.194   2.837  14.225 -0.2609 -0.2097 -0.0014
 7483W        W25007   9.045   6.846  12.682  0.2020  0.1061  0.0937
 7484W        W25008  13.821   6.314  11.066 -0.0035  0.1098 -0.0035
 7485W        W25009   5.626   8.465   1.417 -0.0585  0.0957 -0.0973
 7486W        W25010  16.762   0.658  13.131 -0.0165 -0.1368 -0.2111
 7487W        W25011   7.843   9.627  14.029  0.0738 -0.0685  0.1321
 7488W        W25012  12.459  11.086  14.866  0.0765 -0.0646  0.0035
 7489W        W25013  14.003   7.284  10.860 -0.1214  0.1406  0.0092
 7490W        W25014  12.277   7.560   4.587  0.0740  0.0813  0.0905
 7491W        W25015   7.041  14.193   3.004 -0.1367 -0.0779  0.0770
 7492W        W25016   2.106   1.259  13.434 -0.0869  0.0742  0.2440
 7493W        W25017   0.824   5.645  15.087 -0.0522  0.2258 -0.1473
 7494W        W25018   1.337  14.151  10.962  0.0319  0.0880 -0.2008
 7495W        W25019  17.159   6.944   1.963 -0.1637  0.0116  0.0988
 7496W        W25020   5.166   7.038   0.348  0.2303  0.1071 -0.2762
 7497W        W25021  10.337   5.487  13.316  0.1609  0.0675  0.0131
 7498W        W25022  17.190   5.239  12.744  0.2234 -0.2621 -0.1729
 7499W        W25023  10.809   2.243  11.206 -0.1515 -0.2458  0.1552
 7500W        W25024  12.697   0.176  15.326  0.0807 -0.4311 -0.1784
 7501W        W25025   2.280   5.482   1.032 -0.0237  0.1324 -0.3014
 7502W        W25026   9.791   7.768   1.057  0.0120  0.1958 -0.1723
 7503W        W25027   0.374  10.492   3.926  0.2003  0.1020  0.0663
 7504W        W25028   3.744  18.337  11.567 -0.0683 -0.1463 -0.2400
 7505W        W25029  13.982  16.019   0.609  0.0643  0.2962  0.0977
 7506W        W25030   7.466  13.578   2.394  0.0977 -0.0751 -0.1944
 7507W        W25031   6.690   0.106  12.374  0.0589  0.0994 -0.0979
 7508W        W25032  18.248  17.072  12.139  0.1709 -0.3246  0.0215
 7509W        W25033   3.529   1.586  15.560 -0.1204  0.1656  0.0944
 7510W        W25034  16.609   1.070  14.887 -0.0050  0.1318 -0.2240
 7511W        W25035  14.608   5.210   4.894  0.0554  0.2766 -0.0871
 7512W        W25036  10.117   6.654   4.382  0.1007 -0.0315  0.0993
 7513W        W25037  16.565   0.821   4.663 -0.3816  0.0560  0.1145
 7514W        W25038  10.198   9.411   3.833  0.1762 -0.0953 -0.2274
 7515W        W25039  13.927   0.066   3.694 -0.1821 -0.1457  0.1986
 7516W        W25040  13.044   0.503   0.237  0.2317  0.2007 -0.1246
 7517W        W25041   5.927  10.912   0.296  0.0913 -0.1381  0.3380
 7518W        W25042   8.745   8.730   3.972  0.0091 -0.0390  0.1639
 7519W        W25043   4.025   0.294   2.320 -0.0599  0.1232  0.1265
 7520W        W25044   0.127  13.487   3.904 -0.3869 -0.0724 -0.3182
 7521W        W25045  14.279   5.477   1.145 -0.0293  0.2841 -0.1094
 7522W        W25046  16.673   6.901   0.482  0.2722 -0.1600  0.0316
 7523W        W25047   5.061   4.571  13.777  0.0937 -0.0212 -0.1054
 7524W        W25048   0.704   6.074  11.985  0.0047 -0.1723  0.3311
 7525W        W25049   9.993   1.654   1.638 -0.1003  0.0783  0.0568
 7526W        W25050  18.148   2.338   4.075  0.1301  0.0203 -0.1352
 7527W        W25051  16.506  12.810   3.554 -0.0913 -0.1646  0.3675
 7528W        W25052   0.397   6.391  12.271 -0.0418  0.0762  0.1916
 7529W        W25053   9.934  15.626  14.376  0.5997  0.1256  0.2975
 7530W        W25054  14.384  16.842  11.686  0.0075 -0.3461 -0.4382
 7531W        W25055   7.950   5.217  14.969 -0.1024  0.2301 -0.3669
 7532W        W25056  13.138   4.633   4.147 -0.2070  0.2149 -0.0182
 7533W        W25057   4.088  11.160  11.316  0.3712 -0.1047 -0.0725
 7534W        W25058   3.547   1.091   0.191  0.2289  0.2700 -0.1193
 7535W        W25059   9.569   0.088   0.018 -0.1045  0.1052  0.0659
 7536W        W25060  18.128  15.265  14.579  0.4015  0.3517 -0.1184
 7537W        W25061  11.850  17.327  12.031 -0.4355 -0.1658 -0.0372
 7538W        W25062  10.091   1.475   2.138  0.2005 -0.1063  0.0485
 7539W        W25063   3.854   2.054   0.630 -0.3351 -0.1010 -0.0821
 7540W        W25064  13.002  11.312  13.305  0.0575  0.0171  0.5002
 7541W        W25065  11.986   7.952  13.195  0.1260  0.0655  0.1480
 7542W        W25066  18.051  15.788   1.940 -0.1734  0.0761  0.0841
 7543W        W25067  14.158   4.864   1.412  0.1220 -0.0549 -0.2209
 7544W        W25068  12.464  17.214  11.325 -0.0369 -0.1315  0.0063
 7545W        W25069   5.377  15.825  13.474  0.0457  0.1771 -0.0917
 7546W        W25070  18.311  18.248   4.649 -0.1914 -0.0927 -0.2274
 7547W        W25071   8.459   3.528   1.512  0.1874 -0.0196  0.0615
 7548W        W25072  16.919   6.006  12.165  0.2689  0.1354  0.0241
 7549W        W25073  14.948   2.529   1.684 -0.2607  0.3087 -0.4051
 7550W        W25074  11.774  13.290   2.079 -0.0039  0.0102  0.0566
 7551W        W25075  10.542  12.349  14.574  0.0391 -0.2187 -0.0455
 7552W        W25076   4.260   1.628  12.517 -0.3094 -0.1434 -0.0485
 7553W        W25077  14.554   8.198  12.847  0.3180 -0.0604  0.0518
 7554W        W25078   5.277   8.796  13.424  0.0284 -0.0620  0.1160
 7555W        W25079  13.931  17.675   2.115  0.1051 -0.1513  0.0031
 7556W        W25080   1.721  13.583   0.051  0.1377  0.1115 -0.1637
 7557W        W25081  16.712   0.662   1.024 -0.0692 -0.4259 -0.0633
 7558W        W25082  14.182  17.313   0.794  0.2827  0.4401  0.1816
 7559W        W25083   2.488  11.033  13.287  0.0500 -0.0579  0.0404
 7560W        W25084   1.418   6.632   2.325  0.0030  0.1688 -0.3156
 7561W        W25085   0.388  12.801  13.618  0.0888 -0.1472 -0.3827
 7562W        W25086  11.049   3.158   3.684  0.0176  0.1222 -0.3880
 7563W        W25087  17.500  16.542   4.454  0.1645  0.1256  0.1461
 7564W        W25088   2.240  16.888  15.312 -0.0570  0.1304  0.1092
 7565W        W25089  15.678  14.410  12.819 -0.0026 -0.1157 -0.0027
 7566W        W25090   4.727  13.947  13.060 -0.2096  0.1750 -0.0488
 7567W        W25091   2.031  15.482  12.896  0.0010 -0.0880 -0.0440
 7568W        W25092  16.546   8.212   1.372 -0.2904  0.2250 -0.3901
 7569W        W25093  17.261   5.290  14.626  0.3055 -0.0293 -0.0970
 7570W        W25094   9.545   5.595  14.082 -0.0144  0.2269 -0.3762
 7571W        W25095   3.309   7.677  14.224 -0.1426  0.0702 -0.3084
 7572W        W25096   6.156  18.339  14.891  0.2731 -0.2069 -0.2223
 7573W        W25097  11.310  12.410  11.358  0.1811  0.1839  0.1199
 7574W        W25098   0.994  18.203   5.414 -0.0560 -0.2036 -0.0139
 7575W        W25099   8.299  10.735   3.711  0.1144  0.1920  0.0400
 7576W        W25100  17.099   5.695  10.845 -0.1707  0.3545 -0.0782
 7577W        W25101   1.443  10.388   0.445 -0.2204  0.3034  0.1527
 7578W        W25102   0.664   4.076   2.850  0.2671 -0.0066 -0.2142
 7579W        W25103   2.321   3.736  15.115 -0.0691 -0.3008  0.2360
 7580W        W25104  11.720   2.848  14.094  0.0255 -0.0898  0.2065
 7581W        W25105   3.590  17.944  11.325  0.0312  0.3861  0.1935
 7582W        W25106   4.793  15.488  14.304 -0.1923  0.0531  0.1230
 7583W        W25107  13.602   9.294  14.819  0.1272 -0.2179  0.0707
 7584W        W25108  11.486   1.967  15.693  0.0130  0.1821  0.2991
 7585W        W25109   9.793   4.510   2.465  0.1832  0.0283 -0.0072
 7586W        W25110  12.477   4.830  13.282 -0.0937  0.0447  0.3276
 7587W        W25111  14.582  16.411   1.158 -0.0709  0.0594  0.2363
 7588W        W25112  14.314  11.138   1.179 -0.1032  0.2567 -0.1441
 7589W        W25113  15.719  18.401   0.837 -0.1856 -0.0525  0.1491
 7590W        W25114   5.202   9.290  11.787 -0.0582 -0.0007 -0.0323
 7591W        W25115  12.788  17.771  14.120  0.0757 -0.0533  0.0077
 7592W        W25116   0.946   2.634  15.665 -0.0569  0.0774  0.0076
 7593W        W25117  16.503  13.924   9.804  0.0242  0.0834 -0.2046
 7594W        W25118  16.023  10.606   2.348  0.3265  0.0053  0.5012
 7595W        W25119   1.418  11.962   0.933  0.0456 -0.2461  0.2497
 7596W        W25120  16.400  15.875   4.391  0.0169 -0.0123  0.0872
 7597W        W25121  17.858   1.597   2.731 -0.0802 -0.0282  0.1062
 7598W        W25122  14.984  15.425   4.233 -0.0502  0.2536 -0.3716
 7599W        W25123   8.212   8.987  12.598 -0.2118  0.0598  0.0685
 7600W        W25124   4.118  17.043   0.289  0.1689 -0.0786  0.1640
 7601W        W25125  14.588   5.862  13.735  0.2945 -0.1410  0.3915
 7602W        W25126   7.020  10.139  13.241 -0.0751 -0.1724  0.2370
 7603W        W25127  11.025   2.184   1.160 -0.3467 -0.2825 -0.0907
 7604W        W25128   2.650  11.502   3.090 -0.0331 -0.0633 -0.0669
 7605W        W25129  14.625  10.431   2.042 -0.1382  0.2327  0.0283
 7606W        W25130   6.007  13.149   1.790 -0.1858  0.2153 -0.1921
 7607W        W25131   9.078  16.657  13.001 -0.1289  0.0815  0.0608
 7608W        W25132   1.499   5.394  15.627  0.0036  0.1708 -0.5538
 7609W        W25133   2.043   6.359   0.489 -0.1020  0.0643 -0.2034
 7610W        W25134  14.853   7.339  12.557  0.1178  0.1437  0.1396
 7611W        W25135   9.142   6.258   2.737 -0.1692 -0.2990 -0.0203
 7612W        W25136   0.703  10.513   3.026 -0.0878 -0.0040 -0.2161
 7613W        W25137  17.413   8.692  11.517  0.0383 -0.3200 -0.1541
 7614W        W25138  12.762   8.998   2.795 -0.1090  0.2381  0.0727
 7615W        W25139  12.404  14.612   0.498  0.0001  0.0512  0.0773
 7616W        W25140  13.612   3.692  10.134 -0.0411 -0.1309 -0.1072
 7617W        W25141  11.106   8.842   2.330  0.0494 -0.1776 -0.0201
 7618W        W25142   9.081  15.849   3.733 -0.2513  0.2637  0.1601
 7619W        W25143   3.849  12.729   0.715  0.0671 -0.1763 -0.1222
 7620W        W25144   3.379  12.617   3.721 -0.1008 -0.2058  0.2512
 7621W        W25145  15.624   9.281   1.980  0.0486  0.0285  0.2058
 7622W        W25146   9.920  10.627   0.709 -0.0192  0.1897 -0.1122
 7623W        W25147  17.347   4.648  11.229 -0.1592 -0.1587  0.1539
 7624W        W25148   6.731   6.977   4.446  0.0654  0.0472 -0.1994
 7625W        W25149   9.226  10.268   3.182 -0.3943 -0.0710  0.3921
 7626W        W25150  10.653  15.519   0.514 -0.0715  0.1168  0.2621
 7627W        W25151  11.705  17.186  13.758 -0.1530 -0.1502  0.1101
 7628W        W25152  15.264   6.240  13.531 -0.1727 -0.0674 -0.2094
 7629W        W25153   9.025  16.191   3.317  0.0858 -0.0430 -0.0724
 7630W        W25154  13.215  16.251   4.751 -0.0389  0.4913 -0.0191
 7631W        W25155   2.341  18.192  13.812  0.3538 -0.1324  0.0890
 7632W        W25156   3.473   4.109  13.263  0.0693  0.2280 -0.4183
 7633W        W25157   1.890  16.368  11.689 -0.2413 -0.1150  0.2504
 7634W        W25158  13.802  18.069  10.374 -0.0120  0.2519 -0.1285
 7635W        W25159   0.936  12.887   2.578 -0.1914  0.1139  0.1461
 7636W        W25160  13.968   2.254   4.133 -0.2086 -0.1485  0.1943
 7637W        W25161   3.545  11.768   1.993  0.0925 -0.1971  0.4749
 7638W        W25162  12.802   6.837  14.862  0.0821  0.1100  0.0254
 7639W        W25163   2.740   9.976   3.800  0.0434  0.0003 -0.1181
 7640W        W25164   4.074  12.662   2.731 -0.1636  0.2396  0.1161
 7641W        W25165  12.541  14.427   1.686  0.0397  0.0537 -0.0583
 7642W        W25166  16.092   6.719  13.755  0.1954  0.1190  0.1295
 7643W        W25167   6.072   0.578   0.478 -0.1818 -0.0282 -0.1237
 7644W        W25168   9.252   4.839  10.840  0.2555 -0.2225  0.3535
 7645W        W25169   1.740  10.127   9.820  0.0057  0.0579  0.1759
 7646W        W25170  10.848   6.810  14.658  0.1778  0.0438 -0.2440
 7647W        W25171  15.042   0.668  13.385 -0.0723 -0.3636  0.0146
 7648W        W25172   2.718  13.813  12.420 -0.3068 -0.2575  0.2190
 7649W        W25173   5.605  10.073   0.023  0.2073 -0.2072  0.1477
 7650W        W25174   0.469   8.275  13.681  0.3128 -0.1472  0.0899
 7651W        W25175  15.787   0.119   4.779 -0.0149  0.3843  0.2352
 7652W        W25176  15.369  12.997  14.105 -0.0730 -0.1251 -0.0309
 7653W        W25177   1.909  16.505   0.567  0.0690  0.1731  0.0241
 7654W        W25178  14.386   3.529  10.938  0.0757  0.0085 -0.0555
 7655W        W25179   2.660  16.555   3.507 -0.2885  0.1401  0.0767
 7656W        W25180   6.074   5.448   1.864  0.3598  0.3620 -0.2653
 7657W        W25181   1.904  14.395   1.267  0.2764 -0.2570  0.0987
 7658W        W25182   0.672  17.624  11.292  0.0160 -0.1212  0.3126
 7659W        W25183   6.225  15.265  13.055  0.3230  0.1396  0.0259
 7660W        W25184  13.328   8.256   0.613  0.0543  0.1803  0.1621
 7661W        W25185   5.315  16.802  12.504  0.2191 -0.1591 -0.1269
 7662W        W25186   1.703  12.154   4.691 -0.0185 -0.1812  0.2902
 7663W        W25187   4.205   4.580   3.236 -0.3417  0.0781 -0.1903
 7664W        W25188  12.512   5.293   0.487 -0.0821  0.1632 -0.0413
 7665W        W25189   3.488   5.384   2.489 -0.2886 -0.2098  0.0147
 7666W        W25190  13.138  14.593  12.670 -0.3656 -0.0646  0.0502
 7667W        W25191   0.438  11.574   4.421 -0.1511  0.1617  0.0708
 7668W        W25192  17.164   7.614   0.385  0.0600  0.1416  0.2770
 7669W        W25193   3.437   0.790   1.145 -0.2643 -0.0289 -0.0506
 7670W        W25194   3.638   2.031   5.240 -0.0811  0.0793  0.1254
 7671W        W25195  15.790   0.955   1.017 -0.2316 -0.1581 -0.0857
 7672W        W25196  15.255   5.397   0.005 -0.2240  0.1383  0.3504
 7673W        W25197  16.992  18.472   0.443  0.2092 -0.0397  0.0624
 7674W        W25198   1.489   9.488  13.205  0.0538  0.0281 -0.2017
 7675W        W25199   4.441  14.826  13.109 -0.2250  0.2849  0.1480
 7676W        W25200  15.225  14.316   3.203  0.0627  0.0895 -0.0279
 7677W        W25201  11.938   0.516   3.169 -0.0320  0.2573 -0.1049
 7678W        W25202   2.938  11.344   1.553 -0.2609  0.0449 -0.3503
 7679W        W25203  15.320  12.464  11.495  0.2546  0.1097  0.4324
 7680W        W25204  10.787  11.683   2.136 -0.1371 -0.0618 -0.0577
 7681W        W25205   1.334   5.394  11.205 -0.0889 -0.0769 -0.1499
 7682W        W25206  10.967   4.589  14.121  0.3347  0.1254 -0.2120
 7683W        W25207  13.736   3.793  14.820  0.2958 -0.1683  0.1312
 7684W        W25208   2.808  13.736   0.630 -0.3131  0.0846 -0.0274
 7685W        W25209   4.763   6.849   3.620 -0.0676 -0.0264 -0.0764
 7686W        W25210   1.148  15.213   1.483  0.1065 -0.0956 -0.0515
 7687W        W25211   1.184  16.869   0.729  0.1818  0.3058 -0.1621
 7688W        W25212  17.323  17.515   0.204  0.1275 -0.2324  0.1282
 7689W        W25213   6.657  14.616   3.116  0.1943  0.0471  0.1450
 7690W        W25214   7.636   3.677  10.737  0.2783  0.0142 -0.1718
 7691W        W25215  15.050   4.796   0.957 -0.1350  0.1192  0.1055
 7692W        W25216   4.687   0.145   3.363  0.1459  0.0291 -0.0341
 7693W        W25217   2.840  10.895  11.982 -0.0263  0.2470  0.3488
 7694W        W25218  16.646  14.564  15.047  0.1267  0.2960  0.0660
 7695W        W25219   0.753  15.230   5.571  0.1222  0.1389 -0.2090
 7696W        W25220   8.193   0.925  11.647 -0.1694  0.0337  0.1809
 7697W        W25221   1.884   3.914   5.154  0.3535 -0.3810  0.0947
 7698W        W25222   5.148  17.935   0.928 -0.1876 -0.2539 -0.1449
 7699W        W25223   5.896   0.363  13.016 -0.1438  0.1540 -0.3565
 7700W        W25224  14.836   2.659   4.797  0.3258  0.0583 -0.4401
 7701W        W25225   9.484   9.564   0.743  0.1749 -0.1745  0.2475
 7702W        W25226   4.434   6.800   3.011 -0.0011  0.1336 -0.0618
 7703W        W25227  16.731   4.972   4.028  0.0862 -0.0513  0.0276
 7704W        W25228   3.746   7.084   4.426 -0.1686  0.0637  0.1448
 7705W        W25229   0.812   9.127   2.412  0.0259  0.2271  0.1308
 7706W        W25230   6.722   9.397   0.187  0.3397  0.0190 -0.1431
 7707W        W25231  15.294   7.892  13.624  0.0996 -0.1350 -0.1946
 7708W        W25232  15.692  17.687   3.180 -0.3014 -0.2029 -0.1673
 7709W        W25233   4.436  13.738  15.208 -0.1481 -0.2196 -0.0738
 7710W        W25234   0.005   1.870  12.919 -0.1099 -0.0791 -0.0225
 7711W        W25235  11.434  16.639   0.201  0.1329  0.1254  0.3801
 7712W        W25236  11.798  12.511   3.146  0.0341  0.2685  0.2567
 7713W        W25237  13.785  10.370   0.608  0.2103 -0.0869 -0.1293
 7714W        W25238  11.704  13.590   5.219  0.0552  0.5420  0.0503
 7715W        W25239   6.978   5.401   4.443  0.4406 -0.3446 -0.0853
 7716W        W25240  15.768   7.800  12.702  0.0632 -0.0657  0.2086
 7717W        W25241  13.182  10.998   3.596  0.1828  0.0233  0.1428
 7718W        W25242  15.059   7.028  12.235  0.4472 -0.0333  0.0256
 7719W        W25243   2.678   0.457  15.135 -0.1221 -0.1201 -0.1137
 7720W        W25244   7.884   4.123   3.658 -0.2308 -0.0587  0.0888
 7721W        W25245  11.725   6.570   5.537  0.0596 -0.0234  0.1972
 7722W        W25246  10.926   6.802  13.031 -0.0091  0.3171  0.0815
 7723W        W25247   7.647   5.528   1.893 -0.0222  0.1779 -0.0284
 7724W        W25248  16.635   2.778  12.153 -0.1533 -0.0775 -0.2903
 7725W        W25249   5.851   4.279   4.657  0.1398 -0.2739  0.1166
 7726W        W25250   5.208  10.204   1.047  0.3130  0.3627 -0.0427
 7727W        W25251   6.679   9.380  14.436 -0.1913  0.0467  0.0614
 7728W        W25252   4.008  12.982   3.554  0.3743 -0.0594  0.2894
 7729W        W25253  17.435  18.450   1.658  0.0082 -0.2021  0.1910
 7730W        W25254   6.509   0.660  11.881 -0.1851 -0.0506 -0.1262
 7731W        W25255   0.577   9.025  14.982 -0.0960  0.1677 -0.0947
 7732W        W25256  15.637  10.432   2.019 -0.0007 -0.2094  0.1615
 7733W        W25257   1.646   8.523  11.101  0.1476 -0.0748 -0.2216
 7734W        W25258   0.773   8.401   3.963 -0.0703 -0.4187 -0.1041
 7735W        W25259  13.280   1.434  15.182  0.0910  0.2147  0.2260
 7736W        W25260  12.892   7.968   0.838 -0.1698 -0.2589  0.3389
 7737W        W25261  16.257  14.550   3.169  0.0989  0.2223  0.3176
 7738W        W25262   5.092   1.772  11.436  0.1193 -0.2569 -0.1545
 7739W        W25263  17.265  12.774  14.054 -0.0480 -0.1284 -0.0607
 7740W        W25264  14.717  12.245  15.205 -0.0507 -0.1425  0.2231
 7741W        W25265  11.785   6.500   1.070  0.0920  0.2494  0.0643
 7742W        W25266   3.559  16.319   3.345  0.1267 -0.0085 -0.1990
 7743W        W25267   9.931   2.655   4.903  0.1910  0.2840 -0.2567
 7744W        W25268  16.614  15.334   4.789 -0.0214  0.1936  0.3062
 7745W        W25269   9.395  16.632   1.116 -0.2277 -0.1317 -0.2545
 7746W        W25270  11.407   9.084  11.164  0.1260 -0.1328  0.0359
 7747W        W25271  17.784   8.794  13.820  0.0638 -0.1434  0.4042
 7748W        W25272   8.614   1.667   0.734  0.0924  0.0491  0.0869
 7749W        W25273   8.377  14.789  14.045  0.0258 -0.1157  0.1958
 7750W        W25274   0.941   6.343  12.921 -0.1831 -0.1327 -0.2438
 7751W        W25275   6.136  12.646  11.626  0.3982  0.2753 -0.2500
 7752W        W25276   1.465  17.300  12.928 -0.0753 -0.2071 -0.3539
 7753W        W25277  18.229   9.823  10.583 -0.1287  0.0297 -0.4139
 7754W        W25278   3.358   9.041  10.814  0.0509  0.1328  0.1261
 7755W        W25279   3.279  11.052  15.079 -0.3081  0.0568  0.0198
 7756W        W25280   9.793   9.389  13.529  0.1552  0.2749  0.1052
 7757W        W25281  11.690   1.243   0.529  0.0167 -0.3188 -0.2862
 7758W        W25282  10.386  17.998  13.938  0.2174  0.1793  0.1101
 7759W        W25283  14.920   7.901  14.874 -0.0665 -0.1402 -0.0300
 7760W        W25284   5.194  12.905   4.031 -0.2485  0.1612  0.1844
 7761W        W25285   2.617   4.373   1.492  0.0068 -0.2347 -0.1643
 7762W        W25286  17.174   5.645   3.033 -0.1054 -0.0327  0.0805
 7763W        W25287  11.684  11.070  13.405 -0.1864  0.1591  0.2346
 7764W        W25288   2.314   7.202  11.223  0.1696 -0.2009 -0.0143
 7765W        W25289   3.746  11.849  14.162 -0.1452  0.0876 -0.1831
 7766W        W25290   4.046   8.648  13.937  0.1968  0.4033 -0.2628
 7767W        W25291  14.173   1.807  14.801  0.2360 -0.0056  0.0207
 7768W        W25292   3.454   2.605   0.065  0.0689  0.1039  0.0608
 7769W        W25293   0.678   1.516   0.261 -0.5224  0.2287 -0.1187
 7770W        W25294  10.832  13.774  15.200  0.2605 -0.1008 -0.1313
 7771W        W25295   0.121   0.085  13.813  0.3288 -0.0930 -0.0501
 7772W        W25296  17.482   3.177  14.824  0.1217  0.3174 -0.3738
 7773W        W25297   5.631  15.225  13.786  0.1404 -0.2607  0.2146
 7774W        W25298  17.897   1.558  11.649  0.0912 -0.0493  0.1654
 7775W        W25299  10.947   6.128   3.688 -0.0300 -0.0314 -0.3448
 7776W        W25300   2.374  17.228   0.160  0.1438 -0.1129  0.3402
 7777W        W25301  13.428  13.569  14.224 -0.0511  0.0884 -0.0635
 7778W        W25302  16.520  15.748   3.390 -0.0924  0.2429 -0.0406
 7779W        W25303   6.264   2.625   3.027 -0.1297  0.1012 -0.2061
 7780W        W25304  15.514   9.847  13.408 -0.0935 -0.0621 -0.2863
 7781W        W25305   6.358   2.472  11.153  0.1195 -0.0988 -0.0160
 7782W        W25306  12.941  15.324  11.589 -0.2953 -0.2330  0.1093
 7783W        W25307  14.415  15.777   2.359  0.1841  0.0752  0.0980
 7784W        W25308   2.364  11.785   3.419  0.2866 -0.3467 -0.0978
 7785W        W25309   6.760   2.046   2.193 -0.1523  0.2092  0.2656
 7786W        W25310   2.418   5.091   4.425 -0.0285 -0.2547 -0.2607
 7787W        W25311   6.202   8.919  11.979  0.1812 -0.0333 -0.0805
 7788W        W25312   8.963  13.960  15.711 -0.1446 -0.0430 -0.0563
 7789W        W25313   9.209  10.902   1.334 -0.1974  0.1284 -0.1726
 7790W        W25314  12.662   2.573  13.658 -0.0154  0.2077  0.2784
 7791W        W25315  15.560   1.291  12.766 -0.4958 -0.0643  0.2808
 7792W        W25316  17.279  13.341  11.952 -0.0818 -0.1511  0.0862
 7793W        W25317   3.306   1.843   1.898  0.2690  0.0964  0.0674
 7794W        W25318   5.711   2.064   9.879  0.0938 -0.2412  0.1484
 7795W        W25319  11.318   5.783   1.000  0.3423 -0.2570 -0.1108
 7796W        W25320   1.245  11.491   3.162 -0.0568 -0.4358 -0.3850
 7797W        W25321  12.024   6.982  14.750 -0.1443  0.2542  0.1050
 7798W        W25322   4.811  15.111  14.661  0.0228  0.0103 -0.2479
 7799W        W25323  10.245  17.444   3.651  0.1646  0.2173  0.0280
 7800W        W25324  13.111  17.943  10.894 -0.2862 -0.0505  0.0344
 7801W        W25325   7.365   7.575  12.491 -0.1502  0.0550  0.0544
 7802W        W25326   8.913  17.338  11.937 -0.0864 -0.1236  0.0193
 7803W        W25327   8.624   3.283   4.118 -0.0157 -0.2247  0.2542
 7804W        W25328   6.002   0.948  14.332  0.2097 -0.2117  0.0712
 7805W        W25329   9.575   0.639   0.555  0.1609 -0.1182 -0.2641
 7806W        W25330   9.433   8.770  12.078  0.1899  0.1370  0.1193
 7807W        W25331   2.941  10.919   2.497  0.0976 -0.0381  0.0099
 7808W        W25332   1.891  17.936   5.339  0.1620 -0.1487 -0.1778
 7809W        W25333  12.097   3.183  13.754 -0.0948 -0.1830  0.1834
 7810W        W25334  15.772   7.984   0.773 -0.0155  0.0914 -0.1535
 7811W        W25335  14.000  12.283  12.860 -0.0900 -0.3374  0.2071
 7812W        W25336   1.922  10.877   0.801  0.0038  0.0294  0.0703
 7813W        W25337  10.849   8.735  14.391  0.1450  0.0530  0.1060
 7814W        W25338   6.642  18.010   0.242  0.0365 -0.0675 -0.1760
 7815W        W25339   5.054   7.934  13.184 -0.1224  0.0442 -0.0994
 7816W        W25340  11.974  18.293   3.742 -0.0257 -0.1474  0.0453
 7817W        W25341   8.076   0.269  11.581 -0.0911  0.2060 -0.0168
 7818W        W25342   1.649   1.650   3.306 -0.1942  0.1964  0.0196
 7819W        W25343  13.715   9.314  11.948  0.2114 -0.0471  0.2431
 7820W        W25344  10.839   1.183   3.801  0.0725  0.0981 -0.2037
 7821W        W25345   7.653   0.488  13.379 -0.0694  0.3113 -0.2072
 7822W        W25346  16.237  11.587   0.429  0.1378  0.0021 -0.1212
 7823W        W25347   1.566  10.416   3.928 -0.2674 -0.0804  0.0936
 7824W        W25348  15.232   5.985  15.070  0.0829 -0.3618  0.0044
 7825W        W25349  14.717  15.648   0.380  0.0029  0.0901  0.0054
 7826W        W25350   6.528   3.326  11.829 -0.0054 -0.0740  0.1400
 7827W        W25351   4.673   9.545  12.988  0.2762  0.2073  0.2219
 7828W        W25352   1.312  12.118  11.613  0.3022 -0.3698 -0.2872
 7829W        W25353  13.473   0.069   1.091 -0.1008 -0.1251  0.3374
 7830W        W25354  13.469   8.361   4.236  0.1636  0.2095  0.0129
 7831W        W25355   0.368  15.516   5.334 -0.0902 -0.0875  0.2117
 7832W        W25356  13.419   9.214  15.293  0.1218  0.3525  0.1651
 7833W        W25357   8.239   7.046   1.201 -0.1370  0.0602  0.2053
 7834W        W25358   0.339  10.452   0.380 -0.0924  0.0729  0.3257
 7835W        W25359   2.427  12.921   1.441  0.0152 -0.0351 -0.0922
 7836W        W25360  15.042  13.085  12.370 -0.2212 -0.0854  0.2787
 7837W        W25361  11.719  14.435   0.440 -0.5545 -0.2084  0.0386
 7838W        W25362   5.622  16.591   4.392  0.0192  0.2877  0.0930
 7839W        W25363   1.080   8.089  12.807  0.1153  0.2115  0.1359
 7840W        W25364   4.186   7.348   1.715  0.1465  0.0088  0.0407
 7841W        W25365   0.378   1.990   1.045 -0.1079  0.2455  0.0711
 7842W        W25366   0.399   4.337   4.253  0.0132  0.3099 -0.2485
 7843W        W25367   3.597   7.403  10.313 -0.1102  0.2018  0.1004
 7844W        W25368   8.700  11.172  10.586  0.0348  0.1672  0.1163
 7845W        W25369   3.069  14.272  13.463  0.2515  0.4312  0.1113
 7846W        W25370  11.261  15.652  14.388  0.1002 -0.0633 -0.1610
 7847W        W25371   3.141  13.708  12.143 -0.1757  0.1597 -0.0560
 7848W        W25372   3.647   6.656  12.356 -0.0837 -0.1356 -0.0539
 7849W        W25373   9.072  15.998  11.754  0.3995  0.1271 -0.1180
 7850W        W25374  13.223  16.184  11.604 -0.0987 -0.2952 -0.4072
 7851W        W25375  17.217   1.933  13.429  0.2079 -0.0864 -0.2375
 7852W        W25376   7.225   2.983  14.839 -0.1203 -0.0937  0.0332
 7853W        W25377   4.049  14.777  12.715  0.0287  0.0583 -0.1964
 7854W        W25378   5.794   5.079  12.685  0.1447 -0.0981  0.2709
 7855W        W25379  13.772   8.262   3.384  0.0653  0.3420 -0.0635
 7856W        W25380   2.533  11.546  11.568 -0.3650 -0.3752  0.0826
 7857W        W25381   6.711   9.064  12.289 -0.0105 -0.2442 -0.0636
 7858W        W25382   6.725   2.856  11.926  0.0770  0.0886 -0.1365
 7859W        W25383  17.128  14.647  12.499  0.0570  0.1789  0.2069
 7860W        W25384   7.356   3.317   3.530 -0.2294  0.0113  0.1423
 7861W        W25385  17.232   7.870  15.014 -0.0002  0.0137 -0.0439
 7862W        W25386  13.651  12.636  13.729 -0.2332  0.1711 -0.1046
 7863W        W25387  11.589   3.210   3.556 -0.1502 -0.0749  0.0881
 7864W        W25388   8.704  14.163   2.853  0.0348 -0.2043 -0.0806
 7865W        W25389   7.718   6.207  12.942  0.2286  0.0354 -0.1191
 7866W        W25390   4.297  14.796  13.799  0.0470  0.1755 -0.0721
 7867W        W25391   0.187   1.492  15.372 -0.2440 -0.1634  0.1775
 7868W        W25392   3.669  15.088  14.640  0.2143 -0.0177 -0.1127
 7869W        W25393  12.902   0.906   3.858  0.0970  0.0449 -0.2373
 7870W        W25394  17.734   0.463  12.196 -0.0870 -0.2181 -0.1622
 7871W        W25395  12.662   4.100   2.523  0.0897  0.1895  0.1195
 7872W        W25396  14.823   1.128  13.143 -0.3308  0.1830  0.1003
 7873W        W25397   7.954   8.486  15.371 -0.2385  0.1478  0.2630
 7874W        W25398   6.086   2.247   2.785 -0.0395  0.1929 -0.0926
 7875W        W25399   3.857  13.265   1.429 -0.1734 -0.2044  0.1423
 7876W        W25400   4.414  13.942  14.308  0.1816 -0.3424  0.1620
 7877W        W25401  14.108  15.941  15.479  0.1224 -0.2951  0.2095
 7878W        W25402  14.042  17.057   4.939  0.1383 -0.0207 -0.1144
 7879W        W25403  18.225   6.280  15.667  0.0384  0.0052 -0.1344
 7880W        W25404   1.953   3.296   0.783 -0.1032  0.0064  0.1262
 7881W        W25405   8.708   3.909   0.705 -0.0781 -0.3040  0.1305
 7882W        W25406   7.387   7.342  14.581 -0.2302  0.4187 -0.0806
 7883W        W25407  11.050  14.450  11.237 -0.3062  0.3209 -0.2213
 7884W        W25408   2.217  14.200  14.166 -0.0310 -0.3272 -0.0348
 7885W        W25409   2.884  12.029   3.311 -0.0984 -0.1176 -0.0595
 7886W        W25410  12.143   7.445   3.774 -0.3153  0.1103 -0.1128
 7887W        W25411   8.117  14.561  13.138 -0.1235  0.1693 -0.0961
 7888W        W25412  11.669   5.347  11.013 -0.1877 -0.1045 -0.0366
 7889W        W25413  15.083  15.969   0.523  0.1777 -0.1242  0.0754
 7890W        W25414  17.666   5.784   5.101  0.0008  0.1062  0.0031
 7891W        W25415  16.856   6.834  14.873  0.1358  0.2040  0.1640
 7892W        W25416   0.783   9.890   5.035  0.2944 -0.0464 -0.2856
 7893W        W25417   2.899   4.084  13.392 -0.0608 -0.1883  0.1089
 7894W        W25418  15.778   0.726   3.648  0.5030  0.0443 -0.0900
 7895W        W25419  14.317  14.770  14.617 -0.2453 -0.1274  0.1516
 7896W        W25420   0.783   0.774   4.684 -0.6163 -0.2524 -0.1335
 7897W        W25421  18.420   4.822   4.551 -0.1010  0.3983 -0.0875
 7898W        W25422  17.428  15.921  10.418  0.1249  0.0628 -0.3295
 7899W        W25423   3.820   2.420   2.133 -0.2641  0.2359 -0.1302
 7900W        W25424  17.217   1.355   0.491  0.5135  0.2611  0.1654
 7901W        W25425   3.485   3.157  14.745  0.1183  0.0053  0.1840
 7902W        W25426   7.496   5.184   0.101  0.0437  0.2946 -0.1201
 7903W        W25427   4.678  10.422   3.939  0.2503 -0.2486  0.0418
 7904W        W25428  15.979  13.462  10.835  0.1636  0.1981 -0.1687
 7905W        W25429   8.828   5.513   3.084 -0.1532 -0.1391 -0.3731
 7906W        W25430  15.603   4.954  12.943 -0.2752  0.0021  0.1290
 7907W        W25431   9.729  14.660   2.724  0.0017 -0.2152  0.1014
 7908W        W25432  13.445   7.828   0.931  0.1024 -0.0775 -0.0365
 7909W        W25433  17.576  16.826  15.458  0.0011 -0.3245 -0.0163
 7910W        W25434   2.438   3.159   3.525 -0.3643  0.0206  0.0152
 7911W        W25435   7.101  18.257   0.775 -0.1763 -0.1177  0.0591
 7912W        W25436   6.465   7.696   3.755  0.1063 -0.3017 -0.3050
 7913W        W25437   8.689   8.921   0.332  0.4558 -0.1683 -0.0846
 7914W        W25438  10.782   3.245   0.015  0.0275 -0.0146 -0.0710
 7915W        W25439  17.085   4.644   3.745 -0.0597 -0.4139  0.0932
 7916W        W25440  10.143  12.738   2.635 -0.1324  0.0728 -0.0518
 7917W        W25441   5.484  11.215  14.078  0.2042 -0.0133 -0.0694
 7918W        W25442  17.693   5.367  15.620 -0.1402 -0.0514 -0.4347
 7919W        W25443   4.759   6.032  14.279  0.0732 -0.1186 -0.0331
 7920W        W25444  10.050  12.631   3.405  0.2177  0.4046  0.0242
 7921W        W25445   4.922  10.182   3.153  0.0921 -0.1511 -0.0985
 7922W        W25446   7.567   8.813  13.913  0.0153  0.3316  0.0487
 7923W        W25447   5.622   4.768  15.071 -0.0517  0.1412 -0.1653
 7924W        W25448  14.997  12.184   0.849 -0.3215 -0.1197 -0.0071
 7925W        W25449   2.825   6.484  13.590  0.0705 -0.6176 -0.1212
 7926W        W25450  18.228  11.084   0.766  0.0651  0.3310 -0.1977
 7927W        W25451  16.290   7.530   4.477 -0.0776  0.0054  0.0609
 7928W        W25452   7.355   4.986   0.914  0.0389  0.2543  0.0173
 7929W        W25453  16.547  13.942  12.413  0.1082 -0.0923  0.2754
 7930W        W25454   6.458  18.439   1.206 -0.4771 -0.0098 -0.0193
 7931W        W25455  17.034  11.790   0.968  0.0776 -0.4026  0.2020
 7932W        W25456  17.331   0.698  11.281 -0.0266  0.0834 -0.1706
 7933W        W25457   6.219  12.558  13.443 -0.1054 -0.0382 -0.3382
 7934W        W25458  15.694  10.172  11.223 -0.1590  0.5299 -0.1055
 7935W        W25459   0.445  13.686   0.452 -0.1795 -0.1471 -0.2672
 7936W        W25460   1.669   1.864  15.091  0.0420 -0.0634  0.0771
 7937W        W25461   1.173  13.620   2.703  0.2908 -0.0588  0.1418
 7938W        W25462   7.433   4.821   1.390  0.1087 -0.0813  0.0409
 7939W        W25463   2.682   3.107  11.811  0.1187 -0.1533 -0.0780
 7940W        W25464   0.530  16.606  13.288  0.1926  0.0376 -0.0537
 7941W        W25465  15.889   5.317  12.956 -0.2065 -0.0037  0.0667
 7942W        W25466  15.610   8.459   3.157 -0.0012  0.0306 -0.1254
 7943W        W25467   5.354   9.843   2.413  0.0475  0.0874 -0.3032
 7944W        W25468   1.558  11.585  15.242  0.2314 -0.1567  0.0817
 7945W        W25469   9.724  10.484   3.955 -0.0877 -0.1560 -0.1780
 7946W        W25470   5.839   3.405   1.115 -0.0472 -0.0768  0.3773
 7947W        W25471   9.760  15.414   4.287 -0.1588 -0.0402 -0.0628
 7948W        W25472   1.416   6.095   2.229 -0.2984 -0.4240  0.0455
 7949W        W25473  14.959   2.108  14.698  0.1652 -0.0102 -0.0351
 7950W        W25474  17.788   9.087   4.406 -0.2015 -0.0964  0.1111
 7951W        W25475  10.751   0.241   3.948  0.1565  0.3408 -0.3344
 7952W        W25476  12.119  11.631   1.359 -0.3498 -0.1186 -0.0529
 7953W        W25477   9.259  14.565   0.841  0.0665 -0.1752 -0.1490
 7954W        W25478   5.935  16.001   3.602 -0.2224 -0.0592  0.0397
 7955W        W25479   1.835  12.216  13.135  0.2099  0.1668  0.0405
 7956W        W25480  15.497   3.331  15.723 -0.2674 -0.0275 -0.2882
 7957W        W25481   6.808  11.856   3.853 -0.0744 -0.2102 -0.0482
 7958W        W25482  16.047  18.167  15.493 -0.1829  0.0466  0.1644
 7959W        W25483   1.451   1.771  13.953 -0.2672 -0.0536  0.3789
 7960W        W25484  11.292   4.258  12.978 -0.0792  0.0295 -0.1188
 7961W        W25485   8.668  16.976  13.179 -0.2600 -0.1816 -0.0605
 7962W        W25486  11.636  11.679   1.739 -0.1309  0.0506 -0.1440
 7963W        W25487  13.819   2.064   2.010 -0.0916  0.0391 -0.0572
 7964W        W25488   6.948   6.024   0.076  0.0036 -0.3174  0.2590
 7965W        W25489  16.139   5.650   1.684  0.0316  0.1227  0.1161
 7966W        W25490  18.448   1.895   4.882 -0.1805  0.3041 -0.4276
 7967W        W25491  11.016   1.400   3.151 -0.0459 -0.1447 -0.1136
 7968W        W25492   3.507  15.218   1.304  0.0295  0.1245 -0.2253
 7969W        W25493   7.938  14.869   0.184  0.0164 -0.0093 -0.0527
 7970W        W25494   4.531   6.451  14.454 -0.1468  0.2115 -0.2994
 7971W        W25495  15.924   8.837  10.660 -0.1999  0.1790  0.3424
 7972W        W25496   0.449   3.978  13.263  0.1806 -0.2170 -0.0197
 7973W        W25497   6.722  11.906  10.973 -0.3629  0.2763 -0.1338
 7974W        W25498   7.518  11.626  14.733  0.2519  0.0156 -0.1282
 7975W        W25499   4.645   0.993   3.462 -0.0420 -0.2953 -0.1288
 7976W        W25500   9.787   5.926  14.846 -0.1575 -0.0074 -0.1936
 7977W        W25501  14.920   7.414  13.069 -0.2016  0.0799  0.1079
 7978W        W25502   9.372  15.452  12.986 -0.2894 -0.2108 -0.0658
 7979W        W25503   5.522   5.887   1.705  0.1526  0.0939 -0.2930
 7980W        W25504  18.218  17.512  12.541 -0.0213 -0.4137 -0.3000
 7981W        W25505  15.872  16.502   2.643  0.0800  0.1440 -0.0471
 7982W        W25506  13.816   2.377  11.451 -0.0283  0.1066 -0.2650
 7983W        W25507   9.059   8.454   1.054 -0.1113  0.1368  0.0452
 7984W        W25508   2.537   4.481  14.532 -0.2067  0.3674  0.0031
 7985W        W25509   8.444   7.541  11.587  0.1707 -0.0714 -0.2889
 7986W        W25510   0.838   9.240   4.485  0.0322 -0.1952  0.0764
 7987W        W25511   6.999  13.096  14.354  0.0430  0.2727  0.2593
 7988W        W25512  10.747   9.306   3.452  0.0327 -0.0682 -0.0353
 7989W        W25513  10.886   6.866  11.645 -0.1306  0.3262  0.1962
 7990W        W25514   4.610   3.440  13.109 -0.0068 -0.2167 -0.2313
 7991W        W25515   4.791   6.863  15.712 -0.3920 -0.1188 -0.3437
 7992W        W25516  15.147  13.418   3.621 -0.0631 -0.0999  0.1908
 7993W        W25517  10.524  17.004   3.495  0.2253 -0.2104 -0.2621
 7994W        W25518   3.808   8.474  14.508 -0.2355  0.0538 -0.2643
 7995W        W25519   8.890   9.412  13.655 -0.3220  0.1013  0.0785
 7996W        W25520   6.088   6.819   4.239 -0.0860 -0.0801 -0.0124
 7997W        W25521   1.952   9.031   2.812 -0.0078  0.2806  0.3144
 7998W        W25522   9.245  10.805   0.205 -0.2116 -0.0001 -0.2226
 7999W        W25523   5.129  14.160   3.413 -0.0231  0.0432 -0.2525
 8000W        W25524  11.134  12.662   2.193  0.1952  0.2664 -0.2072
 8001W        W25525  10.846   7.342   5.048 -0.0200  0.0597 -0.0531
 8002W        W25526   5.144  12.725   1.307  0.1200  0.0566 -0.0778
 8003W        W25527   8.883  11.838   3.820  0.0694 -0.4471  0.2709
 8004W        W25528   5.665   8.224  12.639 -0.0701  0.3531  0.2104
 8005W        W25529  17.893   4.738  15.484  0.0246 -0.0346 -0.0794
 8006W        W25530  14.983  16.231  14.117  0.1083 -0.0437  0.1887
 8007W        W25531  11.063   5.060  14.842 -0.1958 -0.3903  0.1885
 8008W        W25532  13.469  11.481  13.075 -0.0658 -0.0029 -0.1164
 8009W        W25533   3.880  15.766   3.930  0.0432 -0.1557 -0.0704
 8010W        W25534  17.595   2.702  11.563  0.3380 -0.0967 -0.0316
 8011W        W25535  17.906   7.177   2.588 -0.3588  0.0102  0.0321
 8012W        W25536   5.419  12.149  15.044 -0.2402 -0.0700 -0.0214
 8013W        W25537   3.252  12.519   1.442  0.2973  0.0695 -0.0722
 8014W        W25538  18.273  16.538  12.929 -0.1300  0.0684 -0.1302
 8015W        W25539   6.428  10.700  12.332 -0.1363  0.2629 -0.0507
 8016W        W25540   9.659   8.088   1.422  0.1008  0.1340 -0.2066
 8017W        W25541   7.268  11.062   3.644 -0.2580  0.1188  0.2130
 8018W        W25542   9.761  15.920  13.410  0.0618 -0.2210  0.3015
 8019W        W25543   1.985   1.600  15.518 -0.1596  0.2085 -0.1507
 8020W        W25544   9.668  16.383   4.043 -0.0896 -0.0454 -0.3036
 8021W        W25545  14.347   4.731  13.524  0.1050  0.0485  0.0150
 8022W        W25546   9.556   6.484   0.256 -0.1411  0.1770 -0.1257
 8023W        W25547   7.510  10.205  12.514 -0.0521  0.0452 -0.1199
 8024W        W25548  11.385  16.554   2.348 -0.1615  0.0491  0.1576
 8025W        W25549  17.804  15.944  13.362  0.3319 -0.2087 -0.0176
 8026W        W25550   7.882  10.395   1.640 -0.0445  0.0251  0.1607
 8027W        W25551   1.893  15.344   1.824  0.1147  0.2782 -0.0955
 8028W        W25552  16.636   4.732   1.123  0.2333 -0.1522 -0.1622
 8029W        W25553   7.353  17.482  12.840  0.0871  0.0060 -0.0338
 8030W        W25554  12.330  16.983   4.145 -0.0708  0.0541 -0.0588
 8031W        W25555  12.222   1.059  14.873  0.1497  0.1804 -0.3409
 8032W        W25556   9.943  17.844   3.648 -0.1934 -0.1340  0.0247
 8033W        W25557   3.141   3.239  13.208 -0.0249 -0.1221  0.1723
 8034W        W25558   5.071  10.656  13.675 -0.1422 -0.1139 -0.0431
 8035W        W25559   6.587  11.638  13.185 -0.2410  0.0802 -0.1808
 8036W        W25560  17.365  12.246   3.755 -0.2943  0.1900  0.0955
 8037W        W25561  14.189   8.891   5.485  0.1869 -0.2530  0.1255
 8038W        W25562   2.935   7.065  12.825  0.0005 -0.1590 -0.1249
 8039W        W25563  15.971  12.194   9.754 -0.1287 -0.3359  0.0540
 8040W        W25564   8.816   7.991  14.311 -0.2526 -0.3419 -0.3142
 8041W        W25565   8.696  15.767  15.276  0.0067 -0.2813 -0.0677
 8042W        W25566   3.614  12.243   2.129  0.1460 -0.1728  0.2256
 8043W        W25567   8.703  18.225  13.497  0.0517  0.0836  0.1884
 8044W        W25568  18.384  17.993   5.125 -0.2059  0.1282  0.0510
 8045W        W25569  13.349  15.359  12.832  0.2236 -0.1545  0.2047
 8046W        W25570  12.160  10.666  12.839 -0.0228 -0.2130 -0.0100
 8047W        W25571   2.113  15.981  14.749  0.2448  0.0544  0.0216
 8048W        W25572  17.993  13.646  11.405  0.0150 -0.1768  0.0546
 8049W        W25573   6.929   4.765  14.761 -0.0712 -0.2633 -0.0684
 8050W        W25574   1.312  11.900  12.181  0.4068 -0.2482 -0.1533
 8051W        W25575   3.520  10.614  10.733  0.1013  0.0299  0.1513
 8052W        W25576   7.112  13.183   0.731 -0.2576  0.1157  0.1353
 8053W        W25577  16.719  13.806   2.193  0.1568  0.0340  0.0344
 8054W        W25578  12.917   8.462   3.039  0.3264  0.1492 -0.0842
 8055W        W25579  10.063  15.005  10.421 -0.1038  0.0935 -0.0719
 8056W        W25580   2.385  10.478  10.985 -0.1250 -0.1875 -0.1131
 8057W        W25581   4.551  16.308   1.274  0.1938 -0.1018 -0.2785
 8058W        W25582  11.059  17.103  13.228  0.1402 -0.0082  0.3687
 8059W        W25583   9.494   9.653  12.170  0.1245 -0.1129  0.0627
 8060W        W25584   5.593   7.132  15.340  0.0447 -0.0721  0.2618
 8061W        W25585   1.406  18.310  11.672 -0.1255 -0.1475 -0.3591
 8062W        W25586   0.528   0.321   4.716  0.1578  0.0007 -0.0409
 8063W        W25587   0.816   5.848   4.624 -0.1412  0.0079 -0.1663
 8064W        W25588  17.826  18.004   4.383 -0.1243  0.2116 -0.3588
 8065W        W25589  14.451  14.347  12.872 -0.1208 -0.2987  0.1524
 8066W        W25590   4.232   7.539   3.447 -0.3324 -0.0964 -0.2413
 8067W        W25591   1.149   7.596  12.969  0.2620  0.1161 -0.3315
 8068W        W25592   3.404  16.199  15.074  0.3154 -0.2536  0.3134
 8069W        W25593   4.543   8.780  10.285 -0.0524 -0.2077  0.1568
 8070W        W25594   9.138   4.985  11.325  0.0165 -0.1467  0.0687
 8071W        W25595  11.896   8.516  14.508  0.0692  0.0215  0.0958
 8072W        W25596   3.061   0.778  11.473 -0.2501  0.3811 -0.0561
 8073W        W25597   7.888  10.013  10.972 -0.0973  0.2968 -0.0366
 8074W        W25598   8.740   0.315   2.371 -0.2388  0.0769  0.0598
 8075W        W25599   4.967  10.036  14.478  0.2194  0.3439  0.1219
 8076W        W25600   3.967   3.123  14.745 -0.1109 -0.0375 -0.0238
 8077W        W25601  11.656   5.797   4.394 -0.0810  0.1283  0.1581
 8078W        W25602   3.950   5.089   4.576 -0.0430  0.0873  0.2035
 8079W        W25603   5.294  14.018   2.899 -0.2565 -0.0614 -0.1211
 8080W        W25604  16.729   9.668   0.472  0.1685  0.2289  0.4188
 8081W        W25605   4.351  15.239  14.473  0.3201 -0.1430  0.4517
 8082W        W25606   9.228   8.998   4.857  0.1444  0.0888 -0.0867
 8083W        W25607   1.177   8.947   1.615 -0.5491  0.1847 -0.1392
 8084W        W25608   7.726   0.338  15.078  0.0465  0.1232 -0.2231
 8085W        W25609  17.340   1.249   0.011  0.2083 -0.0614 -0.1912
 8086W        W25610   0.358   1.192  10.124 -0.2876  0.0958  0.0298
 8087W        W25611  15.723   9.347   2.594  0.1728  0.0954 -0.0618
 8088W        W25612   8.857  11.532   0.464  0.1123  0.0738  0.2075
 8089W        W25613   1.479   8.807   2.980 -0.0900  0.2500  0.1613
 8090W        W25614   9.149   1.582  13.199 -0.2541 -0.2282 -0.0390
 8091W        W25615   0.770  18.120   3.340 -0.0002 -0.0021  0.2012
 8092W        W25616  11.841  15.362   5.517 -0.1982 -0.0007 -0.0089
 8093W        W25617   1.442   3.852   1.055 -0.0612 -0.0629 -0.0880
 8094W        W25618  17.310  14.854  14.233  0.0388  0.1048 -0.1344
 8095W        W25619  18.228  13.529   2.960  0.0671 -0.0386 -0.1828
 8096W        W25620   5.197   1.986   2.808 -0.2937 -0.0784  0.0160
 8097W        W25621  11.005   5.494  12.131 -0.0919  0.1577 -0.2269
 8098W        W25622   9.830  12.114  15.611  0.0451 -0.1162  0.0853
 8099W        W25623   2.716   3.499  12.137 -0.1960 -0.0407 -0.0230
 8100W        W25624   1.250  17.966  12.870 -0.0146 -0.0095 -0.1191
 8101W        W25625  11.367   8.654   1.366  0.2667 -0.1620 -0.0440
 8102W        W25626   8.082  10.458  14.965  0.2087 -0.0047  0.3420
 8103W        W25627  15.721   1.866   4.387 -0.3921 -0.1285 -0.2175
 8104W        W25628   6.823   0.061   3.535 -0.2652  0.3803 -0.1268
 8105W        W25629  10.780  17.020   0.869 -0.3391 -0.0433 -0.1569
 8106W        W25630  14.020   8.402   1.637 -0.0978 -0.1231 -0.0998
 8107W        W25631   7.441   5.081  13.809 -0.2439 -0.4519 -0.1027
 8108W        W25632   0.070  15.569   1.238 -0.2807 -0.3074 -0.1673
 8109W        W25633  14.975  16.407   1.468 -0.0868  0.1996 -0.1923
 8110W        W25634  15.031   6.588  13.214  0.2523 -0.2692 -0.2099
 8111W        W25635  15.685   1.157   3.420 -0.2712 -0.0842 -0.2201
 8112W        W25636  10.902  14.151  13.444  0.0440 -0.2431  0.4318
 8113W        W25637   6.632  11.795   9.913 -0.0241  0.0832 -0.0758
 8114W        W25638  16.989   8.240  15.541  0.2776 -0.1495  0.0521
 8115W        W25639   1.281   5.600   1.431  0.1638  0.1362  0.0977
 8116W        W25640   4.838   5.970  12.851 -0.2386 -0.0795 -0.1033
 8117W        W25641  18.103   2.901  15.507 -0.0020  0.2273  0.3231
 8118W        W25642   2.659   5.832   3.410 -0.1390  0.0991 -0.1072
 8119W        W25643  13.243  15.486  15.116 -0.1882  0.0859  0.2379
 8120W        W25644   7.408  12.476  15.111 -0.0412  0.1577  0.1281
 8121W        W25645   0.794   7.224   2.215 -0.2172 -0.0906  0.0885
 8122W        W25646   1.163  15.686   0.363  0.0076 -0.3190 -0.2455
 8123W        W25647   7.357   1.695   4.455  0.0379  0.3884  0.0876
 8124W        W25648   8.898   3.061  14.764 -0.1119  0.1767  0.1067
 8125W        W25649  10.365   9.415   0.588  0.0838 -0.1130  0.2974
 8126W        W25650  16.661   2.066   5.626 -0.0252  0.2311 -0.1233
 8127W        W25651   0.696   9.229  13.394 -0.4028  0.0707  0.1997
 8128W        W25652   1.273   7.230  13.889  0.1810 -0.0510 -0.3120
 8129W        W25653   5.577  16.496  12.036 -0.1208  0.3168 -0.2447
 8130W        W25654  16.328   1.661  13.019 -0.0064  0.0198 -0.0773
 8131W        W25655  11.369   8.775  13.846 -0.0102 -0.4527  0.0723
 8132W        W25656   6.038   5.898  14.909  0.3165  0.0066  0.1927
 8133W        W25657   8.576  12.524  13.088 -0.1058 -0.1159  0.2411
 8134W        W25658   4.746   3.529   3.968  0.1118  0.0304 -0.0626
 8135W        W25659   7.683   7.188  12.925  0.2678  0.0936  0.0960
 8136W        W25660   3.909  14.156   9.997  0.1425 -0.3749 -0.2749
 8137W        W25661   2.685  17.730  13.979  0.1481 -0.1968 -0.0048
 8138W        W25662  15.410   7.743   2.721  0.0305 -0.0541 -0.1269
 8139W        W25663   8.868  12.522   1.777  0.4244  0.0895 -0.0201
 8140W        W25664  15.586   6.784  15.682 -0.3299 -0.0300  0.3705
 8141W        W25665   9.063   9.393  14.704  0.0896  0.2880  0.0039
 8142W        W25666  18.191  12.976   3.399 -0.1502  0.1332 -0.1159
 8143W        W25667   2.886   3.375   3.595 -0.2047  0.2243  0.1353
 8144W        W25668  17.230   2.701  15.250 -0.0244 -0.0426 -0.3371
 8145W        W25669  13.382   9.769  12.811 -0.2961  0.1846  0.0260
 8146W        W25670   9.420   1.657   3.975  0.1867 -0.1205 -0.0947
 8147W        W25671  10.714   6.435  11.380 -0.0479 -0.0764  0.0939
 8148W        W25672   2.050  11.501  11.463 -0.0444  0.0838  0.0823
 8149W        W25673   9.437   9.770  13.206  0.2829  0.2181  0.0757
 8150W        W25674  11.292   7.848  13.898  0.1100  0.1297 -0.0654
 8151W        W25675  11.638  11.597   4.835 -0.2269  0.2521 -0.2020
 8152W        W25676   6.054  17.073   1.589  0.0992  0.3076  0.1473
 8153W        W25677  16.713   0.991  15.661 -0.1028 -0.2414 -0.1343
 8154W        W25678  10.013  13.830   4.154  0.0864 -0.3264  0.3319
 8155W        W25679   2.257  10.757  11.387  0.0421  0.0370  0.1473
 8156W        W25680   6.504   9.531   4.552  0.0810 -0.3840  0.2067
 8157W        W25681  16.937   2.853  13.201  0.0908 -0.2924 -0.0925
 8158W        W25682   3.522  18.247   0.189  0.0345 -0.1848  0.0386
 8159W        W25683   2.779   1.916  14.393  0.0054 -0.0659  0.2009
 8160W        W25684   9.435  18.167  13.147 -0.0867 -0.0596  0.0581
 8161W        W25685   7.922   2.861   1.224  0.2114  0.3988  0.2964
 8162W        W25686  18.143   1.297  14.605 -0.0350 -0.0076 -0.0938
 8163W        W25687  13.987  14.005  11.582 -0.2225  0.0615  0.0917
 8164W        W25688  14.057  13.320   1.312 -0.2303  0.2656  0.0670
 8165W        W25689   8.609  11.974  11.456  0.1253 -0.1786 -0.0758
 8166W        W25690  17.694   7.725   0.195 -0.2128 -0.1583  0.0872
 8167W        W25691  14.268  18.219   5.156 -0.0258  0.1512 -0.1393
 8168W        W25692  18.374  14.099  11.435  0.3723  0.1391  0.1007
 8169W        W25693  11.783   4.478   1.633  0.2306  0.0865 -0.3891
 8170W        W25694   4.508   2.889   6.011 -0.0069 -0.0064 -0.1651
 8171W        W25695   4.928  11.157  13.859  0.0546  0.2665  0.4766
 8172W        W25696   9.179   4.355   5.747  0.0612 -0.2643 -0.1671
 8173W        W25697   1.943  18.449  13.459  0.1226 -0.2143 -0.1628
 8174W        W25698  10.553   0.891  10.758  0.0268  0.4022 -0.2763
 8175W        W25699   6.027   5.926  10.815  0.2400  0.0637 -0.1251
 8176W        W25700   8.011   9.943   2.351 -0.0966 -0.0444 -0.1508
 8177W        W25701  11.595  16.693  12.996 -0.1329  0.3905  0.3488
 8178W        W25702   4.599   1.828  12.211 -0.2253  0.2310 -0.0909
 8179W        W25703  12.790   9.206   3.766  0.0275 -0.0947  0.1037
 8180W        W25704   2.484   2.829  12.656  0.3669  0.2022 -0.2408
 8181W        W25705  15.146  18.233  12.754  0.0502 -0.1487  0.1988
 8182W        W25706   8.286  13.836   0.039 -0.1927  0.0005  0.1239
 8183W        W25707  17.749   8.781   3.531  0.3318  0.0930 -0.1634
 8184W        W25708  15.856   6.580  10.920  0.0522  0.2252 -0.2735
 8185W        W25709  15.199  11.878  11.586  0.0001 -0.2799  0.0915
 8186W        W25710   3.332   3.455   0.079 -0.0384 -0.1043  0.1046
 8187W        W25711  12.014   5.957  14.005  0.0004 -0.0661  0.0810
 8188W        W25712   4.556   9.394  11.546  0.3388 -0.0755  0.0017
 8189W        W25713  17.777   1.923   4.134  0.0867 -0.3523  0.0666
 8190W        W25714  17.313   3.629  15.642 -0.0595 -0.6094 -0.0943
 8191W        W25715   9.243  17.389   0.996 -0.2572 -0.0086 -0.1066
 8192W        W25716   4.603   3.440  11.335  0.4054  0.0215 -0.0170
 8193W        W25717   8.424   3.967   2.435 -0.0014 -0.1858 -0.0392
 8194W        W25718   3.125   0.510  14.304  0.0605  0.1070  0.0302
 8195W        W25719  15.516   6.170   1.653  0.2627 -0.1108 -0.0842
 8196W        W25720  14.513   1.473  14.193 -0.0916  0.2751 -0.2924
 8197W        W25721  16.058   8.709   3.799 -0.2804  0.0061 -0.1717
 8198W        W25722  17.491   5.269   0.952  0.3514 -0.2191 -0.2811
 8199W        W25723  15.236   9.349   4.312  0.2077  0.0751 -0.0570
 8200W        W25724   1.423  13.971  12.490 -0.1454  0.1048 -0.0413
 8201W        W25725  16.374   0.101   2.638  0.0355 -0.1752  0.3327
 8202W        W25726  14.381   6.042  11.351 -0.2544  0.1546 -0.2375
 8203W        W25727   9.634   6.407   3.433  0.3149  0.4090  0.0210
 8204W        W25728  11.706   4.889   3.275  0.0770  0.1752 -0.1424
 8205W        W25729   1.125   8.059   3.841 -0.1965  0.1294 -0.1179
 8206W        W25730   0.711  14.030  12.958  0.4489 -0.2321 -0.0129
 8207W        W25731  17.901   3.614  12.208 -0.4762  0.3611  0.0788
 8208W        W25732   8.712  12.445  14.622  0.0414 -0.0370  0.0515
 8209W        W25733   9.381  12.673   1.934  0.3573 -0.2770 -0.3739
 8210W        W25734  10.363   1.806  12.755 -0.0507  0.3382 -0.0650
 8211W        W25735   8.422   1.742  11.115 -0.0290 -0.0412 -0.0084
 8212W        W25736   6.044   1.470   0.516  0.1780  0.0048 -0.0054
 8213W        W25737  17.754   2.074  14.750  0.3664  0.0324 -0.0885
 8214W        W25738  12.203  15.124  10.176 -0.1181  0.1042  0.0291
 8215W        W25739  16.618  11.730   2.628  0.0724  0.1560 -0.0291
 8216W        W25740  12.473   0.421   3.055 -0.0620  0.0156  0.3321
 8217W        W25741  11.492  11.682  15.025  0.1510 -0.2160 -0.0051
 8218W        W25742  13.564   4.112   2.953 -0.1771  0.3427  0.0141
 8219W        W25743  17.449   4.489   5.245  0.3250  0.2775 -0.0695
 8220W        W25744   0.645   7.707  12.785  0.5587  0.3385 -0.0466
 8221W        W25745   3.429  15.602  11.911 -0.1421  0.2868  0.0138
 8222W        W25746  14.999  17.810   3.902 -0.0351 -0.0788 -0.1237
 8223W        W25747   4.775   9.295  12.383  0.1732 -0.3712 -0.2266
 8224W        W25748  11.879   3.840  12.858  0.1723 -0.0453  0.1137
 8225W        W25749   1.021   4.613   0.522 -0.2606  0.0050  0.0706
 8226W        W25750  16.324   9.493  13.263  0.1544  0.0060  0.0151
 8227W        W25751   9.777   2.802  12.321  0.1106 -0.1221 -0.0428
 8228W        W25752   6.247  14.902  12.039 -0.0730 -0.0091 -0.1677
 8229W        W25753  13.235  10.922  11.056 -0.2026 -0.0793 -0.1789
 8230W        W25754  13.885   1.113  13.951 -0.0718  0.2825  0.0241
 8231W        W25755   0.349   1.840  13.330 -0.1632 -0.3017  0.2981
 8232W        W25756  10.521  13.257  10.770  0.0555 -0.0677  0.1331
 8233W        W25757   9.682   6.700   1.575 -0.1097 -0.1106  0.0776
 8234W        W25758   3.293  18.149  12.971 -0.0367 -0.0515  0.1423
 8235W        W25759  18.417   3.093  14.236  0.2550  0.0902 -0.0361
 8236W        W25760   4.326   7.777   1.052  0.0906 -0.0542 -0.0395
 8237W        W25761   1.436   6.590  13.867 -0.3150 -0.0529 -0.3193
 8238W        W25762   5.729   2.712   0.327  0.1135  0.1261  0.3208
 8239W        W25763   2.099   7.091   3.205  0.3264 -0.0800 -0.0472
 8240W        W25764   6.709   0.497   2.639  0.1156  0.0460  0.3437
 8241W        W25765   3.382   5.760   3.236  0.2316 -0.1682 -0.2378
 8242W        W25766   9.344  17.607  13.122  0.1031  0.0676 -0.1482
 8243W        W25767   5.917   5.369   0.964  0.1390  0.1953 -0.0224
 8244W        W25768  10.397  13.713   4.757  0.1707 -0.0039  0.2055
 8245W        W25769  12.697   7.431  13.188  0.2737 -0.1201 -0.1602
 8246W        W25770   8.682  14.809   4.266 -0.1184  0.1877 -0.2017
 8247W        W25771   2.256   5.575  14.405  0.0202  0.1088  0.0828
 8248W        W25772   0.222   2.254  12.652 -0.0918  0.0301  0.1180
 8249W        W25773  12.688   6.911   4.113 -0.1966 -0.0068 -0.2407
 8250W        W25774  18.280   0.371   3.198 -0.0180  0.2354  0.1416
 8251W        W25775   2.221  12.485   2.109  0.1506 -0.0730 -0.0241
 8252W        W25776  16.272  15.692  13.626 -0.2574 -0.0212 -0.2426
 8253W        W25777   8.301  10.811  11.985 -0.0867 -0.0388 -0.3097
 8254W        W25778  10.963  16.650  14.552 -0.0255 -0.1565  0.3749
 8255W        W25779   4.030   3.767  12.362  0.1052  0.0113 -0.1229
 8256W        W25780   4.813  14.824   4.269  0.1990 -0.4186  0.1304
 8257W        W25781  18.175  12.576   2.990  0.2931 -0.3206 -0.2216
 8258W        W25782  10.680   4.114   4.361 -0.1418  0.3876  0.1100
 8259W        W25783   0.125  16.384  11.047  0.0135  0.2160 -0.0796
 8260W        W25784  14.720   7.370  11.936 -0.0883 -0.1567  0.1177
 8261W        W25785   9.076   5.214   2.793 -0.0472  0.0249 -0.1641
 8262W        W25786  13.323  16.807  11.583  0.1596 -0.2146  0.1119
 8263W        W25787   2.859  18.202  13.868  0.0295  0.1175  0.3384
 8264W        W25788   0.838   6.109   0.825 -0.1711  0.1010 -0.3431
 8265W        W25789   8.333   7.693   3.562  0.0320 -0.0145 -0.2183
 8266W        W25790   4.446  16.509   2.480  0.0918  0.0094  0.0662
 8267W        W25791   9.247   7.119   2.891 -0.0555 -0.0559 -0.0744
 8268W        W25792   9.360  18.180   0.636  0.0869  0.1033 -0.2296
 8269W        W25793  10.613  11.578   4.470 -0.1024 -0.1402 -0.2705
 8270W        W25794  10.853  18.481   5.242  0.2818  0.0099 -0.1397
 8271W        W25795   7.834   7.910  13.923  0.1559  0.1879  0.1329
 8272W        W25796   3.452   8.403  12.353  0.0822  0.3855  0.1905
 8273W        W25797  10.173   4.108   0.349  0.1507 -0.0957 -0.2057
 8274W        W25798  14.997  14.831   3.788 -0.2246 -0.0984  0.1952
 8275W        W25799  14.219  18.240  12.517  0.3713  0.1780 -0.0037
 8276W        W25800  15.151   1.193  11.456  0.0655 -0.2073  0.0496
 8277W        W25801   7.620   8.781  14.542  0.2168  0.0401  0.0658
 8278W        W25802  17.744  12.254  14.738 -0.1565 -0.0861 -0.2369
 8279W        W25803  10.646  17.813   2.841  0.1976  0.1850  0.3645
 8280W        W25804   8.257  14.707   0.641  0.0677 -0.0718  0.0043
 8281W        W25805  12.907   9.457  12.875 -0.4196 -0.2396  0.3116
 8282W        W25806  16.024   3.734   3.834  0.0297 -0.3043 -0.1360
 8283W        W25807  12.347  17.165  11.891 -0.0133 -0.1388 -0.1948
 8284W        W25808  12.169   2.764   4.445 -0.1615  0.1957  0.0262
 8285W        W25809  15.554   3.933  13.278 -0.2568  0.0445  0.0481
 8286W        W25810  10.930  11.451   4.838  0.4459  0.2892 -0.0855
 8287W        W25811  15.596   7.028  11.763 -0.0248 -0.0295 -0.3038
 8288W        W25812   0.319  10.029   5.312  0.2440  0.0068  0.0269
 8289W        W25813  14.398   5.290   1.569  0.1366  0.1186  0.2800
 8290W        W25814   9.177   7.880   3.087  0.0545  0.0343  0.0454
 8291W        W25815  16.572   1.777   1.376 -0.1505 -0.1858  0.0197
 8292W        W25816   7.293  11.599   1.410  0.3209 -0.2233  0.2374
 8293W        W25817  13.316  14.247  15.236 -0.1633 -0.3107  0.0263
 8294W        W25818  13.202   1.279  12.163  0.3063  0.0980  0.1961
 8295W        W25819   9.133  17.073   2.914 -0.4124  0.0018 -0.1640
 8296W        W25820  18.261  12.031   0.602  0.1167 -0.0063 -0.3054
 8297W        W25821   9.401  15.819  11.381 -0.1543  0.1480 -0.1812
 8298W        W25822   3.105   9.394  15.278 -0.0195 -0.1814 -0.1325
 8299W        W25823   4.830  16.849   2.013  0.1677  0.1917  0.0943
 8300W        W25824   3.681   7.255   2.716 -0.2579 -0.3677 -0.1669
 8301W        W25825  14.512  16.981  13.934 -0.2202 -0.1815  0.1944
 8302W        W25826   0.654  17.112  13.205  0.1679  0.1692  0.3734
 8303W        W25827  12.007  10.204   3.999 -0.3136 -0.3333  0.0652
 8304W        W25828  12.277   4.377   3.872 -0.0287 -0.0394 -0.1012
 8305W        W25829   6.391   3.667  12.782 -0.1405  0.2318  0.2328
 8306W        W25830   0.061   2.772   5.867  0.2066  0.1144 -0.2404
 8307W        W25831  18.215   9.212   0.248  0.0942 -0.1144 -0.0540
 8308W        W25832  17.582  16.356   2.500  0.2509  0.1862  0.2513
 8309W        W25833   9.765   9.285  11.974  0.0380 -0.2590 -0.1542
 8310W        W25834   2.211   1.210  11.062 -0.0453 -0.0164 -0.1544
 8311W        W25835  13.412   3.134   4.304  0.1367 -0.2161  0.0724
 8312W        W25836  12.628   9.299   2.446  0.2830 -0.1226  0.1128
 8313W        W25837  10.280   4.361  15.145  0.0915 -0.1164  0.1371
 8314W        W25838   9.939  17.462  11.758  0.2725  0.0897 -0.3226
 8315W        W25839   5.140   6.931  11.890 -0.1855  0.2025 -0.3046
 8316W        W25840   6.098  11.755   2.551  0.2203  0.2627  0.1373
 8317W        W25841   2.540  12.749   3.679 -0.1072  0.0009  0.1219
 8318W        W25842   8.027   8.354  13.670  0.0672 -0.2187 -0.0331
 8319W        W25843   4.636  11.856  14.731 -0.2151 -0.2479 -0.2806
 8320W        W25844   1.774   3.464  12.216  0.1415  0.3054  0.0958
 8321W        W25845   2.955  11.835  11.511 -0.1443 -0.0786  0.2428
 8322W        W25846  16.302   5.567  12.914 -0.3228  0.1881  0.0111
 8323W        W25847   8.121   2.849  11.883  0.1827 -0.0501 -0.1323
 8324W        W25848   6.595  18.121   2.991 -0.1425 -0.0216 -0.2015
 8325W        W25849   8.136  15.983  14.823  0.0549  0.1084 -0.3086
 8326W        W25850   8.039  10.873  13.518  0.0831  0.1455  0.0218
 8327W        W25851  16.965   5.951  11.589  0.2546  0.0699 -0.0652
 8328W        W25852  10.456   4.968  13.478  0.1883  0.1375  0.2274
 8329W        W25853  11.818  13.743  12.716 -0.0275 -0.1114 -0.1961
 8330W        W25854   8.061  17.841  10.692  0.0917  0.0716  0.0475
 8331W        W25855   3.547   9.068  12.364 -0.2046 -0.0667  0.0484
 8332W        W25856   3.631  17.850   3.643 -0.1199 -0.0902 -0.1277
 8333W        W25857   4.759   8.239  10.756  0.0428 -0.2107 -0.0634
 8334W        W25858   6.729   7.171   2.074 -0.0562  0.2600  0.3395
 8335W        W25859  13.587  15.019   3.597 -0.1073  0.2251  0.1341
 8336W        W25860  11.430   4.091   1.549  0.0595 -0.1952 -0.3311
 8337W        W25861   7.536   3.221  11.457  0.2084  0.1597  0.3475
 8338W        W25862  15.138  16.319  13.082 -0.0161  0.1836  0.0075
 8339W        W25863  13.140   9.499  15.655  0.1484 -0.2263 -0.2861
 8340W        W25864  12.574   7.818  14.281  0.4655  0.0837 -0.1762
 8341W        W25865   1.799   2.040  12.846 -0.2578  0.3029 -0.0538
 8342W        W25866   0.194   7.133  11.242 -0.1295 -0.0378 -0.1155
 8343W        W25867   2.754  14.063  12.007 -0.1027 -0.0168  0.0160
 8344W        W25868  12.537   4.385  13.566  0.0242  0.1728  0.1621
 8345W        W25869   3.606   4.076   0.153 -0.1384 -0.2920  0.1137
 8346W        W25870   5.064   6.849   1.716  0.0977 -0.2044 -0.2618
 8347W        W25871   0.872   0.259  15.196  0.1349  0.1135 -0.1710
 8348W        W25872  12.304  16.607   1.585  0.0846 -0.1966 -0.0428
 8349W        W25873  15.000  16.569   3.633  0.0364  0.1394 -0.0310
 8350W        W25874   7.006  10.138   2.670  0.3124  0.1061  0.5226
 8351W        W25875   7.812  11.829  11.852 -0.0984  0.1568  0.1183
 8352W        W25876  12.844   7.469  10.007 -0.1895 -0.0673 -0.1168
 8353W        W25877   5.966   4.014  12.759  0.1767  0.1870 -0.2340
 8354W        W25878   6.666  16.281  12.108  0.1680  0.1435 -0.1778
 8355W        W25879   5.211   8.571   2.066  0.1362 -0.1995  0.0115
 8356W        W25880   1.728   4.097  13.992 -0.1553 -0.0959 -0.1728
 8357W        W25881  12.992  11.408  10.381  0.2348  0.1686  0.1102
 8358W        W25882  13.083  18.349   3.013  0.0810  0.0572  0.2788
 8359W        W25883   8.720   7.440  14.923  0.3520  0.0104 -0.1300
 8360W        W25884   6.214   0.524   2.507 -0.3339  0.0107 -0.0916
 8361W        W25885  14.533   6.844  14.898 -0.2758  0.1894  0.1558
 8362W        W25886  16.595   5.376  15.655  0.0700  0.0436  0.1736
 8363W        W25887   7.258   7.914   1.331 -0.3319  0.2377  0.3143
 8364W        W25888   9.556   8.300   0.920 -0.2238  0.1019  0.0515
 8365W        W25889   4.397   2.075   2.481  0.1411  0.2545 -0.1610
 8366W        W25890   7.968   5.084   0.039 -0.1053  0.1304  0.0102
 8367W        W25891   6.590   0.875   3.907  0.0414  0.3078  0.0150
 8368W        W25892   3.406  12.678   4.590 -0.4098 -0.0437 -0.2827
 8369W        W25893  17.851   4.306  12.875  0.0567 -0.0559  0.0587
 8370W        W25894   7.039   2.878  14.403  0.0057  0.0473  0.3928
 8371W        W25895   8.550   7.236   4.314  0.1846  0.1062  0.1593
 8372W        W25896  12.114   3.267   3.382  0.0490 -0.2495 -0.0627
 8373W        W25897   7.662  14.788   1.347  0.0104 -0.0018  0.0207
 8374W        W25898   0.695   2.431  12.954 -0.2690 -0.1382 -0.1926
 8375W        W25899  11.186  12.382  12.404 -0.2021 -0.1817  0.0877
 8376W        W25900  17.427   5.996  11.291 -0.1232  0.1914  0.1642
 8377W        W25901   6.135  13.039  12.859  0.1508  0.0822 -0.2617
 8378W        W25902  14.109  13.632  11.263 -0.0754  0.3351 -0.1349
 8379W        W25903  16.447  17.978   0.097  0.2093  0.0867 -0.2491
 8380W        W25904  10.042  14.230  15.017 -0.0049 -0.2449  0.1913
 8381W        W25905   7.821  15.798  14.102  0.2187  0.2604  0.0308
 8382W        W25906  13.778   2.482  12.749  0.2034 -0.2507  0.0186
 8383W        W25907  13.209   3.136   1.688  0.1686  0.0333  0.0470
 8384W        W25908   2.633   3.072  11.030  0.0357 -0.1855 -0.1314
 8385W        W25909  12.532  10.009  14.415  0.4890  0.2470 -0.1862
 8386W        W25910   5.940   7.259   4.225 -0.6640 -0.2121  0.0675
 8387W        W25911  16.851   9.427   0.035  0.1083  0.3988  0.3916
 8388W        W25912   4.339  10.921  15.557 -0.1733  0.2220  0.0029
 8389W        W25913  14.534  10.470  11.388  0.1272 -0.2251  0.1098
 8390W        W25914   6.762  13.161   1.325 -0.6247  0.1350 -0.2084
 8391W        W25915   4.023  14.842   4.295 -0.2470 -0.1332  0.0943
 8392W        W25916   3.930  10.488  14.789  0.0052  0.1849 -0.1429
 8393W        W25917   2.209  11.552   5.096 -0.0138 -0.0011 -0.0973
 8394W        W25918   1.664   0.495  15.437  0.0550 -0.0865 -0.0505
 8395W        W25919   3.329  18.345  13.511  0.1803 -0.0005 -0.0321
 8396W        W25920   0.618   3.695  10.742 -0.1841 -0.0923 -0.3308
 8397W        W25921   1.379   7.895  10.641 -0.3318 -0.0393  0.0207
 8398W        W25922   9.612  17.741   0.956  0.1941 -0.2360 -0.1220
 8399W        W25923   9.448   4.071  13.487 -0.1486 -0.1504 -0.0767
 8400W        W25924   9.220   5.898   0.023 -0.1322 -0.2066  0.0081
 8401W        W25925   7.543   4.438  11.104  0.0054 -0.1887  0.0926
 8402W        W25926  13.036   7.468   3.111 -0.1363 -0.1875 -0.1532
 8403W        W25927  11.435  12.887   3.247 -0.3106  0.0565  0.0852
 8404W        W25928   2.048   1.605  14.931  0.2657  0.0647 -0.0632
 8405W        W25929  18.479  15.964   0.211  0.1246  0.1170 -0.0652
 8406W        W25930  10.118   1.340  12.812  0.0863  0.0677 -0.0007
 8407W        W25931   7.380  13.049   2.474  0.0269 -0.2150 -0.0422
 8408W        W25932   9.031  17.036  15.251 -0.0699  0.0334  0.0224
 8409W        W25933   7.614  16.101  13.742  0.2847  0.1776 -0.1341
 8410W        W25934  17.229   9.252  11.464 -0.1544  0.0983  0.2462
 8411W        W25935   3.116  14.826   2.746 -0.2335 -0.0116  0.0474
 8412W        W25936   4.556   8.170   4.790 -0.0058  0.0939 -0.2257
 8413W        W25937   5.378   5.708   4.544 -0.0082 -0.1271  0.0288
 8414W        W25938  15.146   2.547  14.781 -0.0048 -0.0661 -0.3293
 8415W        W25939   9.721  11.122  13.290 -0.0196 -0.2772  0.0683
 8416W        W25940   2.400  16.703   5.104  0.0857  0.0403 -0.2049
 8417W        W25941  15.646  11.523   0.752  0.2751  0.2465  0.1177
 8418W        W25942   0.504  11.538   1.270 -0.1487 -0.2619  0.1947
 8419W        W25943  13.582   8.027  15.449  0.0857  0.0555  0.1115
 8420W        W25944   2.940   5.779  13.132 -0.3518 -0.1832  0.2220
 8421W        W25945   4.200  16.854  13.509  0.1327  0.0809  0.0972
 8422W        W25946   7.040   0.808  12.574 -0.0857 -0.0704 -0.0374
 8423W        W25947  13.527   1.979   0.277  0.2142 -0.1736 -0.2664
 8424W        W25948  12.449  13.645   0.320 -0.0890  0.0555 -0.0039
 8425W        W25949  10.985   1.307  11.549 -0.1152 -0.0917  0.0930
 8426W        W25950   3.426   8.458  12.874 -0.1943 -0.0060 -0.1921
 8427W        W25951   4.652  10.157   1.764 -0.2773  0.5299  0.0534
 8428W        W25952  14.908   1.015  15.515  0.0610 -0.0997 -0.0199
 8429W        W25953  15.677  11.397   2.374  0.2933 -0.5025  0.0611
 8430W        W25954   5.277   6.312  10.880 -0.2946  0.0045  0.2395
 8431W        W25955   9.460  14.107   5.336 -0.0883  0.0974  0.1175
 8432W        W25956  10.282  12.760  13.391 -0.2061  0.2080 -0.0537
 8433W        W25957  11.580  16.332  14.102  0.0090  0.1529  0.1289
 8434W        W25958  16.417   8.027  11.843  0.0653  0.3204  0.1234
 8435W        W25959   0.577   1.422  14.297 -0.0301 -0.0849 -0.1169
 8436W        W25960  14.945   6.786   1.059  0.0941 -0.1174 -0.0601
 8437W        W25961  14.977  18.305   3.194 -0.1351  0.0736  0.2709
 8438W        W25962   1.728  14.760  11.446 -0.0471 -0.3264  0.0088
 8439W        W25963  11.856   6.584   4.259  0.1056  0.0166 -0.1806
 8440W        W25964   4.707  12.853   4.111  0.1483 -0.0094 -0.2598
 8441W        W25965   1.938   8.853   0.084  0.1453 -0.3245  0.0498
 8442W        W25966   4.984   9.041   3.387 -0.1461  0.0670  0.1093
 8443W        W25967  11.236  16.764  11.332  0.0120 -0.1173 -0.0042
 8444W        W25968  17.595  11.153  13.522 -0.2294  0.1179  0.1602
 8445W        W25969  13.287   0.041   0.197  0.0163  0.1949 -0.0665
 8446W        W25970  14.622  10.114  10.301  0.1782 -0.4553  0.1227
 8447W        W25971   1.410  15.160   4.982  0.1133  0.3945  0.2238
 8448W        W25972  12.204   1.236  13.038  0.0035 -0.2310 -0.1604
 8449W        W25973   0.308  17.233   1.706  0.0525 -0.0019  0.0060
 8450W        W25974  13.148   0.728   3.451  0.0437  0.1130 -0.3079
 8451W        W25975  10.333   9.896  15.010  0.2017 -0.1269 -0.2371
 8452W        W25976   7.215  14.410   2.587 -0.0093 -0.2161 -0.0339
 8453W        W25977  15.247   6.668   1.605 -0.0565  0.0345 -0.3616
 8454W        W25978   4.042  12.989  11.514 -0.0931  0.3521 -0.2644
 8455W        W25979   5.329  16.243   1.360 -0.0599 -0.0402  0.1310
 8456W        W25980  18.284   7.201  14.335  0.1263  0.1822 -0.1481
 8457W        W25981  12.745  17.735  14.972 -0.2689  0.1565  0.3490
 8458W        W25982   7.739  16.505   4.203 -0.2994  0.0852  0.2136
 8459W        W25983  18.272   2.802   4.136 -0.1010  0.2299  0.2344
 8460W        W25984   2.592  13.562  11.875  0.0287  0.1192  0.1008
 8461W        W25985   3.583  16.298  12.215 -0.0240  0.2676  0.2529
 8462W        W25986  16.710   6.579  15.544 -0.2578 -0.1997 -0.3798
 8463W        W25987  16.449   0.279   1.291  0.0360  0.0744  0.1867
 8464W        W25988   4.063   8.098   2.309 -0.0204 -0.6739 -0.0154
 8465W        W25989  18.342  17.725   4.659  0.0557 -0.0648 -0.0248
 8466W        W25990  11.454   4.484   2.197 -0.2094 -0.0174 -0.0442
 8467W        W25991   7.301   6.121  11.757  0.2870  0.0979 -0.2088
 8468W        W25992   3.936  17.543   4.057  0.0588  0.3590  0.0069
 8469W        W25993  13.914  17.255  12.794 -0.3275 -0.2925 -0.1740
 8470W        W25994   2.218   8.802  13.242  0.1802 -0.1793 -0.1283
 8471W        W25995  12.798   7.287   0.074  0.0603  0.1003  0.0434
 8472W        W25996   8.591  10.572  14.541  0.1607  0.1012  0.2314
 8473W        W25997  13.207   3.970  13.115  0.0249  0.2276 -0.4315
 8474W        W25998  13.855  13.776  15.665 -0.1905  0.1465 -0.1954
 8475W        W25999  15.424  12.766  14.874 -0.0485  0.2328  0.4430
 8476W        W26000  17.735   6.552  12.069  0.1358  0.4487 -0.0837
 8477W        W26001   3.079  12.177   3.780 -0.0806 -0.3126  0.0084
 8478W        W26002   8.477  15.590   2.159  0.2102  0.2420  0.0238
 8479W        W26003  12.609   3.126  12.886  0.0980  0.0375  0.1546
 8480W        W26004   2.414  15.633   1.733 -0.2816 -0.0045  0.4600
 8481W        W26005  12.539   2.883  15.120 -0.1523 -0.2807  0.0639
 8482W        W26006  11.239   2.208   1.598 -0.1445  0.2553  0.0767
 8483W        W26007   4.771   0.445  13.030 -0.1902 -0.2507 -0.1450
 8484W        W26008   0.081   2.368   0.199 -0.0304 -0.0630 -0.2367
 8485W        W26009  11.472  11.493  13.622 -0.2841  0.1241  0.2172
 8486W        W26010   1.287  16.317   6.103 -0.2287 -0.0481  0.0069
 8487W        W26011  11.574   4.455   3.294  0.1481  0.4752 -0.0116
 8488W        W26012   1.431   9.585   2.375  0.1437  0.1986 -0.2186
 8489W        W26013   7.804   8.131   5.102  0.0289  0.1231  0.1168
 8490W        W26014  14.765   2.104   2.993  0.0764  0.1908  0.0562
 8491W        W26015   6.928   2.161  11.906 -0.0733 -0.2039  0.1266
 8492W        W26016  13.889  11.081   2.471 -0.0697  0.0182  0.3140
 8493W        W26017  14.451   7.033  10.746  0.0431  0.1796  0.1457
 8494W        W26018  12.802  11.879  12.891 -0.0461 -0.2764  0.3638
 8495W        W26019  14.195  18.325   2.887 -0.0104 -0.3968 -0.1834
 8496W        W26020   1.041   6.020   3.632  0.0338  0.3723 -0.0960
 8497W        W26021  14.313  13.803   2.598 -0.2011 -0.0707  0.0423
 8498W        W26022   1.353  11.346   4.514  0.2213 -0.2720 -0.2193
 8499W        W26023   4.341  15.992  11.712 -0.1253  0.3666 -0.2643
 8500W        W26024   4.890   1.742   3.938  0.3765  0.1772 -0.2345
 8501W        W26025   0.938  12.186  12.370 -0.0802  0.0128  0.0466
 8502W        W26026   0.648  11.264  11.624 -0.5399  0.1237  0.0463
 8503W        W26027   2.925  12.485  12.859  0.0587 -0.0390  0.2459
 8504W        W26028  13.454  12.778  14.199 -0.3432 -0.0670 -0.0459
 8505W        W26029  11.786   4.577  15.091 -0.1876 -0.1513 -0.0512
 8506W        W26030   8.390   1.531  10.004 -0.1533 -0.1587  0.1665
 8507W        W26031   1.101   9.344   0.076  0.0166  0.4071  0.2469
 8508W        W26032   9.193   0.721   1.678 -0.1741  0.1516 -0.0634
 8509W        W26033  13.534   0.998   3.677 -0.1252 -0.1480  0.2308
 8510W        W26034   5.217   8.121   1.712  0.2953  0.0787 -0.1277
 8511W        W26035   3.484  16.463  13.892 -0.2842  0.4000  0.0308
 8512W        W26036  14.303   9.134   4.063 -0.5348  0.1012  0.2714
 8513W        W26037  13.835   2.932   1.276 -0.2149  0.1102  0.2200
 8514W        W26038  17.304  12.339   0.533  0.1133  0.0401 -0.2049
 8515W        W26039  10.019  15.686   5.682 -0.3637 -0.0706  0.4090
 8516W        W26040  10.157   0.653   1.275 -0.0061 -0.0804 -0.3000
 8517W        W26041   9.824   3.917   3.788  0.2401 -0.1622 -0.0348
 8518W        W26042  17.748  18.470  14.753 -0.2120  0.0682  0.0070
 8519W        W26043   3.316  18.400   1.676  0.0199  0.1987 -0.0591
 8520W        W26044   3.438  11.945  13.816  0.3326  0.0552  0.1287
 8521W        W26045   4.434   6.885   0.372  0.0105  0.2322  0.2589
 8522W        W26046   9.225  15.394  12.398  0.0198  0.0874  0.0389
 8523W        W26047  12.978   8.866  12.884  0.0041  0.1083  0.0423
 8524W        W26048   8.831   8.569  11.447 -0.2716  0.0102  0.0377
 8525W        W26049   4.023  14.368   3.273  0.2157  0.0280  0.2870
 8526W        W26050   4.896  14.985   2.369 -0.1623 -0.1517 -0.2989
 8527W        W26051   1.162   1.356   4.148  0.2253 -0.1740 -0.1167
 8528W        W26052   9.057   4.069   2.182  0.2633 -0.0069  0.2617
 8529W        W26053   0.911   5.610  11.846 -0.2326  0.4941  0.1310
 8530W        W26054  17.133  16.387   2.917 -0.0646 -0.3811  0.1527
 8531W        W26055   5.393   8.646  11.250  0.1995  0.3730 -0.0203
 8532W        W26056   3.681   5.381   2.038 -0.3261 -0.0338  0.1549
 8533W        W26057  17.924  16.370   4.044  0.1268 -0.0610  0.1222
 8534W        W26058   2.720   1.357   2.549  0.1725 -0.1061 -0.1595
 8535W        W26059   6.168   2.799   0.565  0.2142  0.3752 -0.2869
 8536W        W26060   4.235   4.757  12.397 -0.1346  0.1378  0.2207
 8537W        W26061   8.540   1.525  12.408 -0.0549 -0.2511  0.1665
 8538W        W26062  15.304  10.362  13.724 -0.0927 -0.1885 -0.1139
 8539W        W26063  12.580   5.866   1.324  0.1223 -0.0376 -0.0218
 8540W        W26064  13.371   4.230  14.818  0.3093 -0.1340 -0.1846
 8541W        W26065  12.464   5.350  12.375 -0.1700  0.3271  0.0903
 8542W        W26066  13.721   0.664   3.198 -0.0330  0.1438 -0.1559
 8543W        W26067  17.768  18.453   4.761 -0.0419 -0.0059  0.0593
 8544W        W26068   6.392  14.996   3.394  0.0553 -0.4146 -0.1114
 8545W        W26069   7.776   8.612   0.918  0.1545  0.1696  0.0670
 8546W        W26070  17.677  14.392   1.553  0.2003  0.2235  0.2959
 8547W        W26071  10.474   0.105   4.409  0.1191 -0.0436 -0.0017
 8548W        W26072  13.557  16.519   1.238  0.0497 -0.0464  0.0750
 8549W        W26073   4.128  11.585  11.561  0.0544  0.1424 -0.0185
 8550W        W26074   4.252   9.944   4.625 -0.1673 -0.0956  0.2267
 8551W        W26075   8.167  16.790   4.125  0.0213  0.0056  0.1428
 8552W        W26076   3.247   3.976   1.138 -0.0198  0.0551 -0.0038
 8553W        W26077   5.835  14.406  14.032  0.3857 -0.1655  0.2436
 8554W        W26078   9.308  10.675   5.574 -0.0033  0.0625  0.0382
 8555W        W26079  11.773   3.059   4.512  0.1091 -0.1611  0.0116
 8556W        W26080   0.064   7.301   3.554 -0.0085 -0.0288  0.0826
 8557W        W26081   0.564   4.611   3.431 -0.1140  0.1298 -0.3414
 8558W        W26082  12.265   2.029   3.730  0.1240  0.1005 -0.2597
 8559W        W26083  13.792  15.789   0.081 -0.3464  0.0127 -0.1329
 8560W        W26084  17.873   4.553  11.390  0.0707  0.0642 -0.0909
 8561W        W26085   7.781   5.188  12.825  0.1736 -0.2218 -0.2297
 8562W        W26086   3.233  13.506   0.961  0.0017  0.0695  0.0039
 8563W        W26087  12.216  17.141   2.665  0.1517  0.1662 -0.0941
 8564W        W26088   0.525  14.730   3.167  0.0283 -0.0969 -0.0109
 8565W        W26089   3.399  15.673   4.583 -0.0901  0.2159  0.1417
 8566W        W26090  13.399   1.200  11.733  0.0189 -0.1817  0.0953
 8567W        W26091   1.231  12.080   3.909  0.1537  0.1276  0.4916
 8568W        W26092  16.147  11.126   2.241  0.0746 -0.2727 -0.1880
 8569W        W26093   1.268  14.870   0.479  0.3622 -0.1316  0.3949
 8570W        W26094   0.876  11.078  13.024 -0.1440 -0.1883  0.0092
 8571W        W26095  14.480  17.924   1.301 -0.0822 -0.0807  0.2257
 8572W        W26096  17.604   4.791   1.079 -0.1139  0.2671 -0.2441
 8573W        W26097  12.435   5.208  10.625  0.2902 -0.2087 -0.0727
 8574W        W26098   4.600   8.234   0.928 -0.0792 -0.0834 -0.5426
 8575W        W26099   0.088   5.980   1.326  0.2633 -0.2112  0.2582
 8576W        W26100   4.170   3.127  13.552 -0.1075  0.0189  0.0503
 8577W        W26101   2.820   3.735   0.090 -0.3764 -0.0672  0.1704
 8578W        W26102  15.975  11.510  11.768 -0.0254  0.2394 -0.2908
 8579W        W26103   8.846  16.359  14.058 -0.2207 -0.1732 -0.0738
 8580W        W26104   7.996  12.364  12.459  0.0068  0.1942  0.0764
 8581W        W26105   1.661  18.258   6.177 -0.0337 -0.2335 -0.1425
 8582W        W26106   4.305   8.683   0.727 -0.1749  0.0573  0.1187
 8583W        W26107   7.129   9.025   1.695  0.1819  0.1240 -0.3859
 8584W        W26108  12.279  13.930  14.860 -0.3113 -0.0076  0.0372
 8585W        W26109   5.220  12.522  15.351 -0.2167  0.0663  0.0134
 8586W        W26110  12.357   5.978   3.853  0.2878 -0.0008  0.0225
 8587W        W26111  15.036   2.042  10.781  0.0678 -0.1444  0.0843
 8588W        W26112  17.131   3.168   2.555  0.2521  0.1217  0.0023
 8589W        W26113   4.317   8.806  12.102 -0.1027 -0.1659  0.1081
 8590W        W26114   3.857  14.331   4.219  0.0589  0.0598  0.0131
 8591W        W26115   8.107   8.921   3.863  0.0378  0.0694  0.3010
 8592W        W26116   7.912   6.722  12.282  0.2260  0.2966 -0.0748
 8593W        W26117  10.607   1.290  14.935  0.1509  0.1127  0.0147
 8594W        W26118  17.706  13.662   3.826  0.1954 -0.0366 -0.1633
 8595W        W26119  14.105  15.119   3.796  0.2266 -0.1168 -0.0328
 8596W        W26120  11.866  15.135  13.422  0.0360 -0.1236  0.1492
 8597W        W26121  13.892   5.798  15.066  0.0158 -0.1000 -0.0537
 8598W        W26122   5.609   7.909  13.358 -0.3023  0.0142 -0.2951
 8599W        W26123   2.512  17.272   4.491 -0.0071  0.1035  0.0631
 8600W        W26124   6.659  11.121  12.141 -0.3375 -0.1472  0.1229
 8601W        W26125   4.331  14.143   3.747  0.1842  0.0180 -0.0345
 8602W        W26126  12.742   3.519   1.293  0.1283  0.1869 -0.1307
 8603W        W26127   8.627  17.596  12.325 -0.0465  0.0198 -0.0480
 8604W        W26128   7.173   5.746   0.445  0.0891 -0.0364  0.2482
 8605W        W26129   5.469  13.528   4.369  0.2075 -0.0293 -0.1256
 8606W        W26130  12.683  17.751  13.605  0.0301  0.4355  0.0446
 8607W        W26131  13.883   3.909   3.560 -0.1825  0.0059  0.0703
 8608W        W26132   0.992   7.175  11.677 -0.1084 -0.0308  0.1325
 8609W        W26133   5.093   0.901  11.444 -0.1559  0.1845 -0.1828
 8610W        W26134   2.403   5.960   4.214 -0.1354  0.2088  0.1408
 8611W        W26135   0.900  15.039   5.102 -0.2940  0.2299  0.0044
 8612W        W26136   5.672  16.982   5.201  0.1038 -0.3111 -0.0483
 8613W        W26137   1.793  17.490   4.783  0.1046 -0.0026 -0.2017
 8614W        W26138  13.788   3.303  13.692  0.1138  0.0806 -0.0143
 8615W        W26139  12.270   9.710  11.136  0.0921  0.2578 -0.2289
 8616W        W26140   8.901  11.684   2.854 -0.3263  0.2153 -0.0367
 8617W        W26141   9.095   4.518  10.397 -0.0439  0.1743  0.2254
 8618W        W26142   3.823   6.982  10.740 -0.0656  0.1669  0.0692
 8619W        W26143   6.163   9.827   0.436 -0.0439  0.0595 -0.1139
 8620W        W26144   9.460  15.020   4.211  0.2520 -0.1580  0.0723
 8621W        W26145   9.355   1.654  14.986 -0.1926 -0.3574  0.0297
 8622W        W26146   2.643   2.096  15.431 -0.1302  0.3331 -0.3064
 8623W        W26147  13.130   1.230  14.602  0.2352 -0.1158 -0.1046
 8624W        W26148   8.418  18.437  11.814  0.1222 -0.0285 -0.1415
 8625W        W26149   5.878  10.677   2.697 -0.0516  0.4755  0.1306
 8626W        W26150   1.178  15.379   5.431  0.1279  0.3457 -0.0959
 8627W        W26151  17.750  11.157   3.747 -0.4651 -0.0419 -0.0310
 8628W        W26152   0.999  14.566   1.829  0.1964  0.0023 -0.1966
 8629W        W26153  10.003   9.086  14.460  0.1034  0.2100 -0.0665
 8630W        W26154  16.834   0.160   2.755  0.1779 -0.0090 -0.1393
 8631W        W26155   6.543   9.950   1.805 -0.0035 -0.1941  0.0772
 8632W        W26156   2.381   4.128  10.528  0.1040  0.2717  0.0869
 8633W        W26157  15.480   3.758  11.537  0.1091  0.1011 -0.3823
 8634W        W26158  14.802   7.352   4.373  0.1812 -0.0513 -0.1509
 8635W        W26159   6.255  15.938  13.699  0.1178 -0.0459  0.0641
 8636W        W26160   5.614  17.013   1.851  0.2387 -0.0188 -0.1038
 8637W        W26161   5.826   7.257   3.253 -0.2394  0.1090 -0.0081
 8638W        W26162  16.147   3.778  12.269  0.1446  0.3602 -0.1607
 8639W        W26163   3.897   9.069  11.977 -0.0419 -0.0805 -0.0076
 8640W        W26164   9.963  16.962   4.052  0.1134  0.3791  0.1741
 8641W        W26165   6.975   5.185   5.312  0.1097  0.0054 -0.0894
 8642W        W26166   4.855  15.065  15.484  0.1661 -0.1389 -0.1111
 8643W        W26167   4.350   0.115  14.477 -0.1831  0.1821 -0.1170
 8644W        W26168   8.929  12.286   4.713  0.0950 -0.4934 -0.0309
 8645W        W26169  14.359  17.209   4.161  0.1615  0.0146 -0.1920
 8646W        W26170  10.435  11.039   3.000  0.0249 -0.0590 -0.0098
 8647W        W26171  17.852   9.547   1.689 -0.3190 -0.2058  0.0880
 8648W        W26172  11.187   3.641   1.201  0.0406  0.2189  0.0993
 8649W        W26173   9.209   8.883  13.929  0.0960  0.0869 -0.0136
 8650W        W26174  10.313   5.541  10.766 -0.1050  0.1817  0.0155
 8651W        W26175  12.882   3.218   0.199 -0.2779 -0.0916 -0.1336
 8652W        W26176   0.747   7.292  11.043 -0.1389 -0.0747 -0.0293
 8653W        W26177  12.832   4.458   1.543  0.0155 -0.0421  0.2816
 8654W        W26178   6.704   3.362  15.641  0.0060  0.5687 -0.0409
 8655W        W26179   7.694  14.900   1.857  0.1233 -0.3594  0.1087
 8656W        W26180   2.220   2.230  13.113 -0.0206  0.2996 -0.0255
 8657W        W26181  10.924   3.241   4.617 -0.0081  0.1734  0.0151
 8658W        W26182   7.091  12.261  14.356 -0.2171  0.0093  0.2139
 8659W        W26183  10.320   9.450  14.763 -0.0832 -0.3977  0.0419
 8660W        W26184   6.658   4.725  11.388  0.2322  0.0432 -0.1367
 8661W        W26185   5.319  14.493   0.279  0.0066 -0.0056 -0.1150
 8662W        W26186  15.791   0.874  12.543 -0.1677 -0.3890 -0.2630
 8663W        W26187  16.545  16.275   5.911 -0.0062  0.1615 -0.2068
 8664W        W26188   5.439   2.434   4.115  0.1193 -0.0797  0.1073
 8665W        W26189   8.245   4.589  12.328 -0.2715  0.3859 -0.1990
 8666W        W26190   1.022   2.281   5.576  0.1309  0.0973  0.1743
 8667W        W26191  13.192  17.082  12.467  0.0445 -0.1824  0.1924
 8668W        W26192  17.721  14.397   0.644 -0.0471 -0.1591  0.1441
 8669W        W26193  17.300   2.357   4.820  0.1762 -0.0519  0.0896
 8670W        W26194   2.818   7.679  14.965 -0.3340 -0.1659 -0.1535
 8671W        W26195  13.640  10.703   2.245  0.0210 -0.0916 -0.1798
 8672W        W26196  16.595   8.286   5.091 -0.1281  0.0963 -0.0314
 8673W        W26197   6.374  14.652   0.497  0.1827  0.1860  0.1554
 8674W        W26198  15.736   0.078  13.923 -0.2014  0.0721  0.2424
 8675W        W26199  11.923   5.153  13.112  0.1764 -0.3440 -0.0138
 8676W        W26200  15.953  15.967   1.286  0.1048 -0.2577  0.1446
 8677W        W26201   4.471  11.194  11.022 -0.1907 -0.0137 -0.0505
 8678W        W26202   7.651  17.167  11.503  0.2335  0.1314 -0.1715
 8679W        W26203  12.952  11.640   3.902  0.1979  0.1182 -0.0645
 8680W        W26204   5.920  17.588  12.399 -0.1143 -0.0714  0.1658
 8681W        W26205   8.670   7.263   0.931 -0.1459  0.0296  0.2124
 8682W        W26206  17.285   0.930   1.684 -0.1523 -0.0155 -0.0094
 8683W        W26207  17.490  17.322   3.737 -0.1331 -0.2718  0.1475
 8684W        W26208  17.871  11.731  14.146 -0.1042  0.0505 -0.0691
 8685W        W26209  17.652  10.059  11.896 -0.2629 -0.0716 -0.2501
 8686W        W26210   0.980  17.511  13.104  0.1723 -0.2250  0.0230
 8687W        W26211   5.553   6.588  15.342 -0.0830  0.1644  0.2759
 8688W        W26212   9.495   1.481  13.638  0.0179  0.0500  0.0565
 8689W        W26213  17.138  12.813   3.345 -0.2481  0.5339 -0.1109
 8690W        W26214   0.673   5.269  14.812  0.1001  0.0882  0.0666
 8691W        W26215  12.985   8.885  11.075 -0.0839 -0.3369 -0.0244
 8692W        W26216  11.482   8.780   5.108  0.1329 -0.2823 -0.1893
 8693W        W26217   8.365   9.400   1.036  0.1503  0.0187 -0.3833
 8694W        W26218  17.564   5.130  11.178 -0.1493 -0.0803 -0.1158
 8695W        W26219  17.775  15.426  13.402 -0.2645  0.0394  0.1252
 8696W        W26220   2.932  14.059   4.238 -0.1348 -0.1127 -0.2017
 8697W        W26221  17.190   9.949  14.325  0.1895  0.0466  0.0356
 8698W        W26222  12.100   9.796  11.640  0.0080 -0.1737  0.0083
 8699W        W26223   7.759  17.771   2.075  0.3891 -0.0540  0.0861
 8700W        W26224  12.678  11.236  15.546  0.0374 -0.2964  0.1097
 8701W        W26225   6.694   8.432   4.376  0.2337 -0.1643 -0.3251
 8702W        W26226   4.105   6.952  12.610 -0.0941  0.3623  0.0750
 8703W        W26227   3.965  14.707  13.306 -0.2961  0.2596 -0.0043
 8704W        W26228   4.010   4.184   3.804 -0.0244  0.0063  0.1621
 8705W        W26229   9.021   5.449   0.177 -0.1375  0.4124  0.0501
 8706W        W26230   0.349   7.268   0.846 -0.1113 -0.0091 -0.0193
 8707W        W26231  12.575   1.835   0.657 -0.0338  0.3148  0.2012
 8708W        W26232  16.034  13.191  12.224 -0.0119  0.2832  0.1161
 8709W        W26233   8.021   7.105   5.397 -0.0260 -0.1076  0.0819
 8710W        W26234   6.703   5.073   0.814  0.1192  0.3696 -0.2311
 8711W        W26235  16.201   6.525  11.305 -0.0842  0.0362  0.1940
 8712W        W26236  10.889   2.751  15.585  0.0701 -0.3901  0.1832
 8713W        W26237  10.144  13.630   3.708  0.0299  0.0469  0.0465
 8714W        W26238   6.960   4.450  11.747  0.0728  0.3167  0.2582
 8715W        W26239   2.112   7.175   2.112 -0.2615 -0.0336 -0.0243
 8716W        W26240   1.910   8.626  15.336 -0.0734 -0.0489 -0.1127
 8717W        W26241   3.532  14.038  12.246  0.0476  0.2240  0.0028
 8718W        W26242  15.181   1.833   2.852 -0.0400 -0.0967  0.1843
 8719W        W26243  11.620  11.874   1.177 -0.0126  0.0268 -0.2462
 8720W        W26244   7.268  12.735  14.727 -0.0233 -0.2462 -0.0334
 8721W        W26245   0.320   0.039   0.620  0.0635 -0.0427 -0.1242
 8722W        W26246   8.178  13.831  11.389  0.2772 -0.1628 -0.1275
 8723W        W26247   6.043   6.923  15.120  0.0785 -0.1800  0.0725
 8724W        W26248   6.002   3.255  13.476 -0.4691  0.1319 -0.0138
 8725W        W26249  11.793   2.358   1.953  0.2639  0.3224  0.1840
 8726W        W26250   5.243   5.455   3.455 -0.0502  0.1943  0.0125
 8727W        W26251   4.042  11.193  13.183 -0.3620  0.0280  0.3256
 8728W        W26252   6.223  10.908   2.405 -0.2916 -0.2041 -0.1315
 8729W        W26253  17.515   4.223  10.700  0.0156 -0.0292  0.0326
 8730W        W26254   2.403   8.339   1.215  0.0370  0.1359 -0.1401
 8731W        W26255  13.619   1.837   2.438 -0.2084 -0.0606 -0.2461
 8732W        W26256  10.990  12.565  14.271 -0.1338 -0.0727 -0.0342
 8733W        W26257   1.357  11.912  13.553 -0.0726 -0.1028  0.2328
 8734W        W26258   4.418   8.670   1.216  0.0218  0.4508 -0.0393
 8735W        W26259   4.680   2.409  12.568  0.0076 -0.2607  0.0799
 8736W        W26260  13.107  12.470   0.460  0.2848 -0.2461 -0.1211
 8737W        W26261   0.602  14.534  12.903 -0.2315 -0.1219  0.0915
 8738W        W26262   9.029   3.156  11.728 -0.1764 -0.1736  0.0182
 8739W        W26263   9.801  18.261   1.567  0.2668 -0.1350  0.1427
 8740W        W26264   2.841  14.992   1.766  0.3405 -0.0221 -0.1766
 8741W        W26265  10.456   3.603  11.178  0.1456  0.1755  0.0354
 8742W        W26266   1.101  17.418   3.219  0.0123  0.1696 -0.0143
 8743W        W26267   7.718  13.423  15.252 -0.0828  0.4117 -0.0037
 8744W        W26268  14.527   5.682   4.232  0.1296  0.1059  0.1423
 8745W        W26269  13.491   8.823  12.118 -0.4025 -0.4037  0.0559
 8746W        W26270  15.715   4.235  12.411  0.2357 -0.0904 -0.0756
 8747W        W26271   9.984  17.429  13.643  0.0664 -0.3067  0.0089
 8748W        W26272   8.628   0.163  12.263  0.0349  0.0454  0.1768
 8749W        W26273   9.187   7.655  11.124  0.1273  0.1552 -0.2047
 8750W        W26274   8.447  14.230  13.381  0.0399  0.1192 -0.0738
 8751W        W26275  17.548   8.662   1.198  0.3597 -0.0076  0.1512
 8752W        W26276  11.236  16.189   5.414 -0.2222 -0.0903  0.3076
 8753W        W26277   8.545  18.131   0.722 -0.0168 -0.1207  0.1281
 8754W        W26278  11.548   8.286   2.934  0.2853  0.1439 -0.0405
 8755W        W26279   1.919   2.213   5.196 -0.4791  0.0340  0.1523
 8756W        W26280  16.418   1.199   3.998  0.0244 -0.4236  0.0124
 8757W        W26281   0.275  18.270   5.021 -0.1672 -0.3784  0.2975
 8758W        W26282  14.911   6.340  14.317  0.0563  0.3037  0.1872
 8759W        W26283  15.532  15.139  13.342 -0.0189  0.3623 -0.3758
 8760W        W26284  15.062  11.765  13.218 -0.0324  0.1674  0.1031
 8761W        W26285   3.922   8.866   1.924  0.2224 -0.1642  0.1155
 8762W        W26286  13.657   9.534  13.764 -0.1200 -0.1542 -0.1863
 8763W        W26287   6.193  10.926  13.480 -0.0222 -0.0067 -0.3872
 8764W        W26288   9.016  16.114   1.875  0.1277 -0.0255  0.2401
 8765W        W26289   9.917   3.946  15.121  0.0164 -0.4111  0.0559
 8766W        W26290  11.990  16.472  12.852  0.2267 -0.0137 -0.0432
 8767W        W26291  16.668  14.422   0.799  0.1001  0.3923 -0.4602
 8768W        W26292  16.583  11.517  10.741  0.1303 -0.1134 -0.2950
 8769W        W26293   7.848  16.068   0.555 -0.4355  0.1013 -0.2027
 8770W        W26294   4.706   3.089   3.753 -0.0237 -0.1067 -0.0287
 8771W        W26295  10.287   7.931   5.871  0.2608  0.0127 -0.2419
 8772W        W26296   1.924   3.371  13.822 -0.0356 -0.4502 -0.1990
 8773W        W26297  18.164   0.435  12.571  0.1724 -0.0752  0.0128
 8774W        W26298   3.590   6.497  14.683  0.1071  0.3916  0.1967
 8775W        W26299  15.243   3.003   1.679  0.2338 -0.2214 -0.1279
 8776W        W26300   2.117  10.072  10.876 -0.0735 -0.1570  0.0278
 8777W        W26301   6.360   4.976   3.652 -0.0091  0.1969 -0.1754
 8778W        W26302   4.017  18.293  14.649  0.2624 -0.0975 -0.0639
 8779W        W26303  14.150  15.287  11.062 -0.2114  0.0580 -0.0056
 8780W        W26304   2.766   0.841   3.262  0.1440  0.2416 -0.0031
 8781W        W26305   2.705  17.044   0.622 -0.2880 -0.1888 -0.2169
 8782W        W26306  17.134  14.374  13.066 -0.1114  0.0613 -0.5091
 8783W        W26307   6.773   6.809  11.465 -0.0543  0.0988  0.0833
 8784W        W26308  11.097   3.776  11.705  0.0697 -0.2451 -0.2474
 8785W        W26309   0.937  14.444   2.924  0.0322 -0.0474 -0.2737
 8786W        W26310   7.106  15.012  11.702 -0.2089  0.1203  0.0404
 8787W        W26311   7.017   1.792  12.869 -0.1550 -0.0102  0.2998
 8788W        W26312  11.557   2.964   1.433  0.0455  0.2028 -0.0242
 8789W        W26313  13.246   2.724   4.066  0.1815 -0.0424 -0.1090
 8790W        W26314   9.428  15.622  11.971 -0.1674  0.2187  0.0307
 8791W        W26315   8.023  18.377   3.331 -0.0396 -0.5615  0.0818
 8792W        W26316  15.253  14.573  12.327  0.0196  0.2660 -0.0755
 8793W        W26317   6.641  12.437  15.397  0.0212  0.1246 -0.0602
 8794W        W26318  13.003   4.925  12.904 -0.1713  0.0853  0.0249
 8795W        W26319   6.883   9.789  11.569  0.2379 -0.1168 -0.1376
 8796W        W26320  17.820  10.563  12.053 -0.0138 -0.4504  0.2654
 8797W        W26321  16.420   1.245  12.437  0.3878  0.0376  0.0626
 8798W        W26322   9.087  12.859  13.734 -0.2994 -0.0362  0.1278
 8799W        W26323   7.523  12.047  10.891 -0.0700  0.1441 -0.3668
 8800W        W26324  15.008  11.180  15.238 -0.2854 -0.0037 -0.1648
 8801W        W26325   1.064  18.243  11.307  0.1777 -0.0655 -0.1616
 8802W        W26326   4.103  12.098  12.482 -0.2450  0.1281  0.0192
 8803W        W26327   7.965  12.495   0.962  0.1495 -0.2186 -0.5320
 8804W        W26328   2.006  11.092  13.558  0.1198 -0.3906 -0.1060
 8805W        W26329  16.310  12.709   2.184 -0.4090 -0.4123  0.0517
 8806W        W26330  17.459  10.510  13.748 -0.1698 -0.0857  0.1778
 8807W        W26331  12.836  10.180   3.553 -0.0431  0.0779 -0.1831
 8808W        W26332   1.200   4.480  15.315  0.1842  0.1983 -0.1418
 8809W        W26333   4.199   6.411   2.804 -0.2083  0.1481 -0.0239
 8810W        W26334   2.378  15.069  12.715 -0.0553  0.2576 -0.0530
 8811W        W26335  14.276  11.281  11.040  0.0654 -0.0314 -0.3240
 8812W        W26336   3.896   5.668   0.381 -0.0980  0.5083  0.2473
 8813W        W26337   4.353   2.725  15.259 -0.1871 -0.0738 -0.1563
 8814W        W26338  10.914   1.811   1.673 -0.5245  0.0918 -0.0756
 8815W        W26339   2.722  16.232   2.997  0.3550  0.0297 -0.1449
 8816W        W26340  12.428  15.782  13.498 -0.1015 -0.1717  0.1466
 8817W        W26341  16.891  11.423  14.475  0.2601 -0.2190  0.1583
 8818W        W26342   1.713   9.898  12.885  0.2933  0.2856 -0.0595
 8819W        W26343   9.611  17.091  12.202 -0.2503  0.1073  0.1878
 8820W        W26344  12.048   8.503   1.968 -0.2526  0.2012  0.1573
 8821W        W26345  11.515  11.688   2.324 -0.0569  0.1522  0.0319
 8822W        W26346  10.049  15.846   0.503 -0.0747 -0.1158  0.2467
 8823W        W26347  11.523  12.386   0.384  0.0638 -0.0481 -0.2734
 8824W        W26348   6.771  15.805  11.553  0.1966 -0.1971  0.1833
 8825W        W26349   7.766  12.268  11.512 -0.0234 -0.0747  0.1520
 8826W        W26350   5.773   9.024   2.857 -0.1626  0.0328  0.0513
 8827W        W26351   3.523   8.381   3.000 -0.1523  0.2210 -0.1364
 8828W        W26352  11.785   6.529  12.706  0.1666 -0.0745  0.0323
 8829W        W26353   9.638  17.503  10.681 -0.1338  0.1155 -0.1235
 8830W        W26354  12.620  14.241   3.798  0.0106  0.2790 -0.0139
 8831W        W26355   1.224   2.245   4.239  0.1216 -0.2034  0.1612
 8832W        W26356   5.093  12.705   5.634 -0.1493  0.0358 -0.1830
 8833W        W26357  11.632  17.075   2.628  0.0091  0.0633  0.3132
 8834W        W26358  13.636  14.419  12.447  0.0317  0.2383 -0.0180
 8835W        W26359   2.831  12.003  15.718 -0.2076 -0.0209  0.2240
 8836W        W26360   7.113  13.216  14.834 -0.0808  0.1450  0.2762
 8837W        W26361   6.920  16.901  13.172 -0.0458 -0.1573  0.1542
 8838W        W26362   0.458   1.546  10.526 -0.0594 -0.0627 -0.1389
 8839W        W26363   0.690   0.628   3.742 -0.0533  0.1596  0.0843
 8840W        W26364   4.350   2.542  13.647  0.1573 -0.1724 -0.1083
 8841W        W26365   7.665  12.928   1.434 -0.1044 -0.0879 -0.0360
 8842W        W26366   1.781  12.911   2.085  0.2065  0.2556 -0.0400
 8843W        W26367   4.033   8.772  10.972 -0.1601 -0.3605  0.3594
 8844W        W26368  17.794  15.745  10.871 -0.2461  0.0944  0.2055
 8845W        W26369   6.499   6.048   0.884 -0.2900  0.0749  0.5531
 8846W        W26370  13.380   8.479   0.141 -0.2232 -0.1397  0.1840
 8847W        W26371   2.331   1.953  11.503 -0.1959 -0.0615 -0.2629
 8848W        W26372   2.938  16.326   3.889 -0.1652  0.2394  0.2359
 8849W        W26373  16.861   7.856   9.552 -0.1374  0.2688 -0.1709
 8850W        W26374  18.362   0.879   1.840 -0.0783 -0.2280 -0.0837
 8851W        W26375  15.115  12.412  10.847  0.0961 -0.1132 -0.1167
 8852W        W26376   1.318   0.409   3.042  0.2230  0.1443  0.2584
 8853W        W26377   6.846   7.911   4.236 -0.1578 -0.1232 -0.0864
 8854W        W26378   0.098   3.879   2.994 -0.0350  0.2297  0.2931
 8855W        W26379   3.735   3.454  12.640  0.1164 -0.2710  0.1840
 8856W        W26380  16.388  10.977  11.542 -0.0255 -0.0119 -0.2932
 8857W        W26381  14.208   9.247   4.561  0.1652 -0.4119 -0.1900
 8858W        W26382   4.894   3.891   1.699 -0.0787 -0.1713  0.0799
 8859W        W26383   1.041  14.443   0.747 -0.4025  0.1360 -0.3598
 8860W        W26384  15.178  10.349   3.924  0.4696 -0.1964 -0.0779
 8861W        W26385   7.644   9.637   2.539 -0.0404  0.4948  0.0094
 8862W        W26386  17.262  16.271  14.723 -0.3459  0.0489 -0.2064
 8863W        W26387   6.531  14.113   3.253 -0.1448  0.0029  0.0692
 8864W        W26388  15.554   2.278  10.993  0.0711  0.3234  0.0164
 8865W        W26389   9.478  15.041   0.673  0.0781 -0.0959 -0.2069
 8866W        W26390   1.153   1.735  15.136  0.0839 -0.0162  0.0239
 8867W        W26391   7.309   2.183   5.315 -0.0509  0.1699 -0.1897
 8868W        W26392  14.163   7.474  15.379 -0.6406 -0.1197  0.3139
 8869W        W26393   6.310  11.886  15.508 -0.2984 -0.0600 -0.2504
 8870W        W26394   4.380  17.320  10.356  0.0396  0.2404 -0.1806
 8871W        W26395   7.428   3.842  14.930  0.3293  0.0067  0.0263
 8872W        W26396   7.174   6.533  14.461  0.0672 -0.3156  0.0178
 8873W        W26397   0.213  10.813  14.780 -0.0660  0.3697  0.0686
 8874W        W26398   6.258  10.441   1.197  0.3770 -0.1130 -0.1871
 8875W        W26399   5.155  13.486   2.545 -0.3359  0.2236 -0.2607
 8876W        W26400   1.711  17.977   3.788 -0.2358  0.2213 -0.2315
 8877W        W26401   2.380  10.223   4.281 -0.3153 -0.1502  0.0084
 8878W        W26402  14.554   9.942   0.639 -0.1380 -0.2946  0.1668
 8879W        W26403  12.236  14.881  12.342  0.0232  0.1400 -0.0306
 8880W        W26404   7.642  11.350   2.098  0.1966  0.0002  0.2968
 8881W        W26405  14.006   3.977   2.752  0.2479  0.1535 -0.1534
 8882W        W26406  10.026  13.479  11.599  0.1479 -0.1959 -0.0548
 8883W        W26407   9.013  11.772   4.694  0.0892 -0.1191  0.0511
 8884W        W26408   6.460  16.289   0.861 -0.5111  0.0309  0.2831
 8885W        W26409   7.661  15.656  15.351  0.0344 -0.1637 -0.1757
 8886W        W26410   1.629   5.256   0.445 -0.0441  0.1918  0.0546
 8887W        W26411  16.014   6.129   1.562  0.2463 -0.0610 -0.0715
 8888W        W26412   2.621   5.771  11.225  0.1673  0.1605  0.1012
 8889W        W26413   1.238   7.578  14.898  0.0299  0.1660 -0.1618
 8890W        W26414   9.464   4.373  10.707  0.0446 -0.0879 -0.0076
 8891W        W26415   0.268  11.715  13.608  0.1513 -0.1819 -0.1522
 8892W        W26416  17.739  11.400  14.992 -0.0461  0.0203  0.0179
 8893W        W26417   6.328   1.963   4.259 -0.2401 -0.1460  0.2071
 8894W        W26418  10.181   4.998  12.874 -0.1861  0.0885  0.2983
 8895W        W26419   6.040   7.256  12.305 -0.0214  0.4196 -0.0650
 8896W        W26420  16.217  12.301  12.457 -0.0840  0.2283 -0.1055
 8897W        W26421  14.729   7.974  13.333 -0.0510 -0.1195 -0.2736
 8898W        W26422  14.754   5.026  12.327 -0.0662 -0.2186 -0.0854
 8899W        W26423   1.500  13.453   0.630  0.0613 -0.0670 -0.1568
 8900W        W26424  17.600   8.468   1.667  0.0939 -0.0196 -0.1628
 8901W        W26425   0.749   8.852   1.347  0.2597  0.2797  0.0953
 8902W        W26426  17.147   3.785   3.896  0.1725 -0.0480 -0.1662
 8903W        W26427   8.047   8.962   1.940 -0.3034  0.2308 -0.1560
 8904W        W26428  12.132   0.195   0.190  0.1613 -0.0710 -0.0327
 8905W        W26429   0.096   7.774   3.760  0.0478  0.0346  0.0203
 8906W        W26430  11.486   4.582   1.246 -0.0906 -0.4036  0.0277
 8907W        W26431   8.201  15.540  15.594  0.0287  0.0502  0.1850
 8908W        W26432   2.217   7.623  11.455  0.1043 -0.0649  0.1070
 8909W        W26433   6.383   8.092  11.362 -0.0573 -0.0779  0.1580
 8910W        W26434  15.298  13.873   3.925 -0.2097  0.4403  0.0424
 8911W        W26435  10.931  15.975   3.399  0.0761 -0.2874 -0.0752
 8912W        W26436  17.129   9.911  13.415  0.1370  0.2178  0.2786
 8913W        W26437   0.368   5.778  14.943 -0.1356  0.0388 -0.0234
 8914W        W26438   2.667   4.945  11.750  0.0882  0.0371  0.0505
 8915W        W26439  10.418   3.798  15.134  0.0646 -0.4206 -0.0819
 8916W        W26440   6.312   2.895  13.045  0.4186  0.1113 -0.3565
 8917W        W26441   2.478   2.815   2.042  0.0312 -0.1347 -0.1612
 8918W        W26442   6.878   8.065  14.023 -0.0308 -0.0945 -0.1600
 8919W        W26443   4.388  17.570   1.989  0.1862 -0.3873 -0.1532
 8920W        W26444  16.854  10.918  10.751 -0.1923  0.3950 -0.1983
 8921W        W26445  14.882  18.485   4.584 -0.1610  0.2549  0.1431
 8922W        W26446   5.551   1.086  11.173  0.2082 -0.3182 -0.0297
 8923W        W26447  12.822  18.413  11.025 -0.0706  0.1225 -0.2526
 8924W        W26448  15.781   9.149  11.903 -0.0353  0.0898  0.2413
 8925W        W26449  11.327   9.619  12.769 -0.1012 -0.0549 -0.2997
 8926W        W26450  12.635   1.527  12.093  0.0065  0.0018  0.2111
 8927W        W26451  15.472  14.682  13.558  0.2377  0.2487  0.1152
 8928W        W26452   8.334  18.441   1.612  0.0053  0.4045  0.1514
 8929W        W26453  17.448  11.853   0.696 -0.2864  0.1997  0.2099
 8930W        W26454   0.998   8.812   3.804 -0.1961 -0.0007  0.0153
 8931W        W26455   3.839   1.201  12.414 -0.0969  0.0648  0.0264
 8932W        W26456  16.536   3.810  14.965  0.3076  0.0395 -0.1733
 8933W        W26457   0.497  14.790  11.772 -0.1838 -0.3595 -0.0839
 8934W        W26458  16.785  16.388  13.095 -0.1374  0.2660  0.1721
 8935W        W26459   7.795  16.899  13.240 -0.2168 -0.3713 -0.0911
 8936W        W26460   5.613  17.339  13.092 -0.1350  0.2316  0.1212
 8937W        W26461   5.398   4.698  12.931  0.3983 -0.3242 -0.0366
 8938W        W26462  16.308   4.016  13.956 -0.1174 -0.2597 -0.5253
 8939W        W26463   9.335   7.778   0.667  0.0829 -0.0626  0.1019
 8940W        W26464  11.118  12.174   4.020 -0.1593 -0.1648 -0.2243
 8941W        W26465   4.303   1.623   1.724  0.1164  0.0590  0.0005
 8942W        W26466   8.019   6.703  14.900 -0.0722  0.0733  0.1199
 8943W        W26467   6.352  15.440   1.535 -0.4304  0.1170 -0.2545
 8944W        W26468   2.964  16.171   2.421  0.0972  0.0346 -0.1277
 8945W        W26469   4.153  17.979   2.187  0.0060 -0.1296 -0.0436
 8946W        W26470  15.448  18.326  15.164  0.3811 -0.2542 -0.0553
 8947W        W26471   5.683   3.831  14.031 -0.1764 -0.0808 -0.0993
 8948W        W26472  15.532   4.774  11.641  0.1648  0.1019 -0.0035
 8949W        W26473   8.515  15.873   0.056  0.1163 -0.0595  0.0230
 8950W        W26474  15.513  18.042  14.311 -0.0649 -0.3747  0.1336
 8951W        W26475   4.813   4.762  14.872  0.0300  0.0105  0.4454
 8952W        W26476   1.310   5.629  14.754 -0.2899 -0.3149 -0.1017
 8953W        W26477   9.412   9.418   4.047  0.0760 -0.3318  0.3268
 8954W        W26478  14.184   0.474   1.719  0.2556 -0.1682 -0.0261
 8955W        W26479   5.204  11.790  12.916  0.1375  0.0598 -0.0457
 8956W        W26480  14.082   8.314  15.526 -0.5334  0.0080  0.1352
 8957W        W26481   8.655  16.981  11.783 -0.5081  0.0919  0.3138
 8958W        W26482  18.220  10.075  14.574 -0.0441  0.1135 -0.1615
 8959W        W26483  14.073  15.762   2.917 -0.1675  0.2440  0.0807
 8960W        W26484   8.208   1.897   4.068  0.0333 -0.0987  0.1661
 8961W        W26485   6.425  12.812  13.865  0.1393  0.1810 -0.0453
 8962W        W26486  12.712  17.637   0.580 -0.0435 -0.4697  0.0501
 8963W        W26487  10.634   3.578  14.731 -0.0791 -0.0846  0.2190
 8964W        W26488   5.253   2.003   1.036  0.3345 -0.2049  0.1537
 8965W        W26489   7.050  17.859   2.236 -0.2921  0.0967 -0.1244
 8966W        W26490   7.938   0.641  11.227  0.0385  0.0609 -0.3516
 8967W        W26491   0.406  16.515  11.634 -0.0467 -0.0195 -0.1247
 8968W        W26492   0.362   4.259  10.187 -0.0723  0.4005  0.1583
 8969W        W26493   3.792   6.137   4.251  0.0425 -0.2308 -0.1634
 8970W        W26494   2.999  16.339  14.076 -0.2626  0.0736  0.3220
 8971W        W26495  12.332  15.137   5.198  0.2471 -0.1939 -0.0299
 8972W        W26496   6.034  10.305   0.370  0.1372 -0.0364 -0.1448
 8973W        W26497  12.963   4.387  13.867  0.0394 -0.1039  0.1435
 8974W        W26498   4.126   8.152  14.819 -0.4318 -0.0145  0.0345
 8975W        W26499   6.157  17.528   4.131  0.3170 -0.0285 -0.5706
 8976W        W26500   5.334   7.713   2.415 -0.1626  0.1805 -0.1970
 8977W        W26501   9.979   8.033   4.353 -0.1601  0.2182 -0.1364
 8978W        W26502  13.001   0.379   3.765  0.2735 -0.2790  0.0752
 8979W        W26503   5.221   1.657  12.290 -0.1748  0.1782  0.2945
 8980W        W26504  17.749  16.926  13.639 -0.1461  0.3079  0.1185
 8981W        W26505  13.962   2.353   2.388 -0.0262 -0.0839 -0.0464
 8982W        W26506   9.688   7.619  10.040 -0.3684 -0.0646  0.0256
 8983W        W26507   1.196   6.920  14.263 -0.0457  0.3058 -0.0634
 8984W        W26508   3.672   9.209   3.672 -0.0395 -0.0043 -0.0065
 8985W        W26509  16.939   1.281  12.185 -0.1730 -0.2332  0.0246
 8986W        W26510  12.239   6.882   0.399  0.2463  0.0141 -0.2118
 8987W        W26511   6.414   3.519  13.237 -0.2909  0.0613 -0.1023
 8988W        W26512  14.947  11.705   4.247  0.1238 -0.1106 -0.2482
 8989W        W26513  12.241  17.555   3.626  0.2379  0.2658  0.1914
 8990W        W26514  13.196   0.057  14.561  0.1129  0.0951 -0.2380
 8991W        W26515   9.694   3.247   2.103 -0.1267  0.0289  0.0653
 8992W        W26516   7.586   2.610  13.629 -0.2271  0.1496 -0.1560
 8993W        W26517   2.550  15.450   3.758 -0.1616  0.0400 -0.0659
 8994W        W26518   5.183   2.923   4.506 -0.2448  0.0897  0.5343
 8995W        W26519   8.731   1.902   1.147  0.2479  0.2191  0.0737
 8996W        W26520   5.290  13.653   5.771 -0.1402 -0.1774  0.2296
 8997W        W26521   3.013   0.173  12.477 -0.0560  0.0877  0.1585
 8998W        W26522  15.661   1.980   4.932 -0.0333  0.1822  0.0372
 8999W        W26523  18.391  11.771   3.691  0.2798 -0.3722  0.4028
 9000W        W26524   2.230  17.139   4.935  0.3205 -0.1930 -0.1196
 9001W        W26525   5.545  12.570  13.983  0.2413 -0.1404 -0.1011
 9002W        W26526  15.137  16.973   3.359  0.1102  0.0158  0.2123
 9003W        W26527  18.296  17.448  13.516 -0.3665  0.0984 -0.0267
 9004W        W26528  17.298  17.934  12.022 -0.1621 -0.2665 -0.0165
 9005W        W26529  13.062   0.476   1.162 -0.0570 -0.0546 -0.3190
 9006W        W26530   6.621  12.258  14.018  0.1247  0.2996  0.2065
 9007W        W26531  15.459   4.259  11.484  0.2520 -0.2007  0.3060
 9008W        W26532   9.689  15.588  12.435 -0.1122  0.0381  0.1432
 9009W        W26533   1.469   0.257   4.315  0.1719 -0.1090  0.0601
 9010W        W26534  11.750   0.021  11.999  0.5234  0.0966  0.0967
 9011W        W26535   0.723  11.868   2.454  0.1578 -0.0323 -0.1081
 9012W        W26536  16.184   9.163   2.306 -0.0201 -0.0647  0.0915
 9013W        W26537   6.745   8.136  13.436  0.0743  0.0645 -0.4087
 9014W        W26538   9.299   2.442  12.948  0.0493  0.1042 -0.2703
 9015W        W26539   7.730  10.762  15.296  0.0121  0.1801  0.1354
 9016W        W26540   2.427  14.322  10.810  0.3018  0.4218 -0.3694
 9017W        W26541   0.874   3.341  14.538 -0.2253 -0.0581  0.0375
 9018W        W26542  15.566  15.311  13.821  0.0647 -0.1252 -0.1656
 9019W        W26543  15.193   9.251  15.420 -0.0459 -0.2949  0.1885
 9020W        W26544   6.718  11.475  12.705  0.1415  0.0184  0.1856
 9021W        W26545  18.297   4.425  12.769 -0.1933 -0.3220 -0.1016
 9022W        W26546  13.059   2.042  10.093  0.0438  0.0321 -0.1094
 9023W        W26547   9.633   3.728  14.367 -0.0447 -0.3451 -0.2874
 9024W        W26548   3.511   1.345  14.630 -0.2868 -0.0387 -0.1800
 9025W        W26549  15.409   0.126   2.236 -0.0070  0.2792  0.1232
 9026W        W26550   9.889   9.440  14.102 -0.4547  0.2840  0.0717
 9027W        W26551   4.134   4.673  11.402  0.1931 -0.0293 -0.4180
 9028W        W26552   5.016  11.535  12.241 -0.0306  0.1047 -0.2014
 9029W        W26553   7.798   0.150  14.261 -0.3279  0.0213  0.0007
 9030W        W26554  17.202   9.570   3.686 -0.0469  0.1933  0.2215
 9031W        W26555   1.428  14.593  14.141 -0.1469  0.1253 -0.0551
 9032W        W26556  12.723   1.196   1.709 -0.0259  0.3228 -0.1735
 9033W        W26557   3.612   8.543  11.657  0.1494 -0.1260 -0.0091
 9034W        W26558  15.799   0.475   2.128  0.0060 -0.0462 -0.4290
 9035W        W26559   8.913  18.446   3.803 -0.4133  0.2070 -0.2580
 9036W        W26560   6.306   8.854  12.519  0.2848 -0.3943  0.2635
 9037W        W26561  12.282  18.320   0.535  0.0898  0.1120  0.2508
 9038W        W26562  12.879  18.229  13.548 -0.3067 -0.0965  0.1676
 9039W        W26563  17.906   4.112   4.345 -0.0908  0.0171  0.2058
 9040W        W26564  14.135  18.474  12.056  0.0872  0.0703 -0.3370
 9041W        W26565   9.724   0.133  12.842  0.0156 -0.0289  0.0080
 9042W        W26566   3.960   2.877   1.715 -0.2158 -0.0784  0.0740
 9043W        W26567   7.196   2.725   2.892 -0.2016  0.1750  0.0049
 9044W        W26568   4.929  13.614  13.370 -0.2068  0.0629  0.0182
 9045W        W26569   0.784  16.452  15.044  0.0513  0.1123  0.3341
 9046W        W26570   8.796  16.385  12.548 -0.0296 -0.0266  0.1215
 9047W        W26571  11.311  17.477   0.123  0.1682  0.0211 -0.0354
 9048W        W26572   3.001  10.830   3.709  0.1931 -0.0323  0.2639
 9049W        W26573  16.660   3.602   3.924 -0.1317  0.0407 -0.0654
 9050W        W26574   5.370   1.977  12.838  0.1915  0.1339 -0.1685
 9051W        W26575   7.153  11.300   2.145  0.2085 -0.0318  0.1766
 9052W        W26576   0.352   0.006   2.039  0.0310 -0.2759  0.0529
 9053W        W26577   7.896  16.756   4.628  0.0077  0.3238  0.1868
 9054W        W26578  11.276  12.959   4.458  0.0368 -0.0519  0.1767
 9055W        W26579   1.237   3.111  11.269 -0.0428 -0.0461  0.1080
 9056W        W26580   1.289   4.367  13.859 -0.1635  0.0927 -0.3461
 9057W        W26581   1.106   2.496   3.281 -0.0599 -0.0123 -0.2768
 9058W        W26582   6.443  15.161   4.839 -0.0313 -0.0916 -0.2146
 9059W        W26583  14.929  11.449  12.831 -0.0309 -0.0133  0.1313
 9060W        W26584  11.599   5.132   0.450 -0.0726  0.0920 -0.0984
 9061W        W26585  10.678   4.267  14.927 -0.3372 -0.1401  0.0909
 9062W        W26586  15.167   0.739   5.641 -0.0744 -0.2477 -0.1432
 9063W        W26587   9.808  10.049   0.625  0.3676 -0.4787  0.0620
 9064W        W26588   3.109   5.687  10.444 -0.1288 -0.0523 -0.0337
 9065W        W26589  14.853   0.605   0.112  0.1399  0.0282 -0.2278
 9066W        W26590   8.540   5.679  13.109  0.2905 -0.0016  0.0071
 9067W        W26591   3.786  10.517  12.456  0.2236  0.1198 -0.0561
 9068W        W26592  10.200   9.493  15.271  0.0272  0.2064 -0.0160
 9069W        W26593   0.266   9.252  11.184 -0.3201 -0.2711 -0.3433
 9070W        W26594   9.367  15.718  10.865 -0.2873  0.0476  0.1669
 9071W        W26595  13.337   1.983   2.840 -0.1485  0.1634 -0.2326
 9072W        W26596   3.237   8.403   3.414 -0.2399 -0.0350 -0.4009
 9073W        W26597  10.230  10.279   0.530  0.2304 -0.0405 -0.1780
 9074W        W26598   1.634   1.514  13.529  0.1769 -0.0936 -0.0389
 9075W        W26599  11.281  11.891  14.603  0.2270 -0.1454 -0.0069
 9076W        W26600  15.493   0.567  11.403 -0.1499  0.2540 -0.2616
 9077W        W26601  11.425   5.374   4.364  0.2840 -0.1984  0.5380
 9078W        W26602  14.106  12.198  15.687 -0.1405 -0.1887 -0.2188
 9079W        W26603  10.830   0.006   1.534 -0.0910 -0.1415 -0.1039
 9080W        W26604   0.701   9.167   1.808  0.1141 -0.3035 -0.2877
 9081W        W26605   1.926  14.455   3.337 -0.2972  0.1533 -0.0218
 9082W        W26606   2.000  10.638   4.337  0.2735 -0.2487  0.1309
 9083W        W26607  17.199   3.785   3.273  0.1168  0.0946  0.1787
 9084W        W26608  14.655  18.084   2.750  0.0667  0.0245  0.0462
 9085W        W26609  18.363  18.190  13.534  0.0664 -0.0240 -0.0790
 9086W        W26610   6.911   9.392  15.370  0.2820 -0.0401  0.1698
 9087W        W26611   6.860   3.190  13.344  0.2604  0.0452 -0.1176
 9088W        W26612  11.447  18.033  13.911  0.0269 -0.3011 -0.1548
 9089W        W26613   3.535   2.492  11.778  0.0984 -0.2034  0.0927
 9090W        W26614   7.623  17.828   3.889  0.3346 -0.1994  0.2091
 9091W        W26615  18.124   2.695   3.522 -0.0722 -0.1015  0.2493
 9092W        W26616   8.483  17.735  10.917  0.0026 -0.0356 -0.2587
 9093W        W26617   3.273  13.175   1.344  0.0935 -0.3126  0.2174
 9094W        W26618   9.847   5.562  14.506  0.0555  0.1706  0.0571
 9095W        W26619  14.500  12.390  14.751  0.1799  0.2983  0.0458
 9096W        W26620   1.252   2.316   0.117  0.0466 -0.0533  0.0562
 9097W        W26621   4.022   3.565   0.877 -0.1953  0.0654 -0.2128
 9098W        W26622   2.565  15.909  11.850 -0.0195  0.1271  0.0634
 9099W        W26623  11.993   4.070  15.140  0.0085 -0.3759 -0.1685
 9100W        W26624  10.795   8.182  11.145  0.0809 -0.0084 -0.0076
 9101W        W26625  14.940   7.475  13.591  0.0608  0.2252 -0.4528
 9102W        W26626   7.492  18.160   1.864 -0.2518  0.0016  0.3012
 9103W        W26627   4.761  15.473   2.147 -0.1217 -0.0078 -0.1498
 9104W        W26628   5.667   8.835  12.716  0.5159 -0.0943 -0.0295
 9105W        W26629   0.987  10.014  11.635  0.0873 -0.0066  0.0236
 9106W        W26630   8.067  12.024   3.700 -0.3256  0.1671 -0.1819
 9107W        W26631   3.821   3.987   4.751  0.1983 -0.1930  0.2046
 9108W        W26632  17.349   6.747  11.892 -0.2298 -0.3295  0.0590
 9109W        W26633   0.280  15.503   3.127  0.1027  0.0296 -0.1332
 9110W        W26634   9.873  15.111   1.611 -0.2934  0.1701 -0.2574
 9111W        W26635   7.219   8.355  14.756 -0.4632  0.0459 -0.1586
 9112W        W26636  14.279   1.980  13.724 -0.0616 -0.0307  0.0310
 9113W        W26637   7.197  15.407   0.275  0.0217 -0.4609  0.1264
 9114W        W26638  11.613   3.418   4.184  0.2044  0.0029  0.1811
 9115W        W26639  16.365  14.064   1.929  0.0324  0.2440 -0.4214
 9116W        W26640   5.755  10.858  10.879  0.0750  0.1500  0.0015
 9117W        W26641   1.527   9.949   4.388 -0.0855  0.2899 -0.0939
 9118W        W26642   5.561   2.384   0.662 -0.0110 -0.1482 -0.1540
 9119W        W26643   5.178  17.876  15.433 -0.1089 -0.0114  0.0037
 9120W        W26644  13.389   1.709  12.801  0.0603  0.1113  0.0832
 9121W        W26645  14.192  14.508   4.419  0.4941  0.5765  0.1777
 9122W        W26646   7.800   7.048  14.549 -0.0196 -0.1523  0.0585
 9123W        W26647  15.126  16.429  13.608 -0.2057 -0.0550 -0.1131
 9124W        W26648   2.739   1.791  14.914 -0.2648  0.1842 -0.0204
 9125W        W26649   3.797   2.088   2.524  0.4271 -0.0840 -0.3622
 9126W        W26650  13.894  15.201   2.750 -0.1883  0.0615  0.1566
 9127W        W26651   2.303  13.185  11.656  0.0140  0.1173 -0.0943
 9128W        W26652   9.607   6.022  13.678 -0.0986  0.2618 -0.3029
 9129W        W26653  13.309  16.258  13.315  0.0661 -0.1424  0.0832
 9130W        W26654   0.968  11.521   1.567  0.1964 -0.2420 -0.2502
 9131W        W26655   0.640  12.459   3.369  0.4613 -0.1116 -0.1442
 9132W        W26656   7.772  13.578   0.754  0.2502  0.1957 -0.0915
 9133W        W26657  14.064  10.408  11.259  0.0733  0.0962  0.2232
 9134W        W26658  13.165   8.013  11.050  0.0082  0.1069 -0.0511
 9135W        W26659  15.461   4.053   4.141  0.3073  0.0901  0.0416
 9136W        W26660  13.420   2.128  14.131  0.0053 -0.0198 -0.1602
 9137W        W26661   8.423   7.122  14.120  0.2546 -0.3850  0.2779
 9138W        W26662   9.209   5.962  11.758  0.0176  0.1436 -0.1157
 9139W        W26663  10.396  15.243   1.698  0.1313 -0.2063 -0.1906
 9140W        W26664  11.284   9.909   1.299 -0.0045  0.0553 -0.1042
 9141W        W26665  18.436  18.214   0.662 -0.1567 -0.0015  0.1165
 9142W        W26666  12.650   6.432  15.664  0.0389 -0.0592  0.0554
 9143W        W26667   6.659  11.119  13.179 -0.0522  0.1163 -0.1957
 9144W        W26668  18.179   6.896  14.776 -0.0732  0.3491 -0.1491
 9145W        W26669   5.240   3.392  14.873 -0.0384 -0.0777  0.1258
 9146W        W26670  10.029   3.553   2.844  0.0593 -0.0505 -0.0713
 9147W        W26671   3.720   7.180  12.341  0.0318  0.2086  0.1195
 9148W        W26672  14.636  10.995  13.587 -0.2253 -0.1426 -0.1569
 9149W        W26673  11.673   0.464   5.024  0.0453 -0.1275 -0.1186
 9150W        W26674  16.781  13.755  11.984 -0.0635 -0.1515 -0.3449
 9151W        W26675   2.030   9.394   3.646 -0.0815 -0.1243  0.2553
 9152W        W26676  11.605  15.404  14.031 -0.0639 -0.2880 -0.1518
 9153W        W26677   7.803  17.233  14.216 -0.1252  0.0457 -0.1312
 9154W        W26678  10.968   4.481   2.085  0.1314  0.1451 -0.4121
 9155W        W26679   7.998   0.427   4.173 -0.2496  0.0268  0.1094
 9156W        W26680  12.587   0.610  13.971  0.3053  0.1723  0.0916
 9157W        W26681  18.485  18.100   3.793  0.0731 -0.0856 -0.1513
 9158W        W26682  11.555  13.326  14.318  0.1555 -0.2480 -0.1967
 9159W        W26683   8.411  16.950   4.555  0.1141 -0.1167  0.1446
 9160W        W26684  10.587   0.528   0.619 -0.0476 -0.1437 -0.3574
 9161W        W26685   3.392  15.029   3.733  0.0725  0.0180 -0.0419
 9162W        W26686   3.720   5.367  12.759  0.0389  0.1794 -0.1681
 9163W        W26687  14.227   9.656  12.804 -0.3006 -0.2362 -0.5190
 9164W        W26688   1.399  14.314   3.147 -0.3047  0.0896 -0.4040
 9165W        W26689   2.477  17.554   0.918  0.3429  0.1701 -0.0040
 9166W        W26690  18.177  17.801   3.451  0.1777  0.0190  0.2253
 9167W        W26691  18.132  13.006  12.404 -0.0491 -0.1611 -0.4194
 9168W        W26692   8.531  12.161   3.418 -0.3605 -0.0887 -0.2400
 9169W        W26693   9.030  16.948  10.274  0.0350  0.0981 -0.0216
 9170W        W26694  17.174  12.381   4.705  0.1045  0.0113 -0.3958
 9171W        W26695  17.000  10.462  11.564 -0.0961 -0.1210 -0.0012
 9172W        W26696  15.558   9.766  10.940 -0.2667 -0.1566 -0.0348
 9173W        W26697   0.637   5.776   1.454  0.1403 -0.1769 -0.3236
 9174W        W26698  12.168   4.188  13.856  0.2963  0.0292  0.1470
 9175W        W26699   8.155  12.913   3.248 -0.1346  0.0772  0.0605
 9176W        W26700   8.364   0.767   2.387  0.1439 -0.2255  0.1548
 9177W        W26701   8.134   1.429  15.416  0.3374 -0.3791 -0.1717
 9178W        W26702  11.327  13.917  11.244 -0.0935 -0.1333  0.1276
 9179W        W26703   3.625  10.554  13.269 -0.1570  0.0494  0.0541
 9180W        W26704  15.370   5.345   4.414 -0.0780  0.4507  0.0532
 9181W        W26705   8.289   1.270   2.075 -0.1286 -0.0999  0.0793
 9182W        W26706  15.601   6.864  13.772  0.2280  0.1921  0.0343
 9183W        W26707  13.159   4.287  11.833  0.3226 -0.0841  0.1257
 9184W        W26708  11.065  17.143   1.289 -0.1248  0.0318  0.1507
 9185W        W26709   6.260   6.013  12.259 -0.1414  0.3040 -0.0541
 9186W        W26710  15.580   1.657   3.434  0.1736  0.0890 -0.0818
 9187W        W26711   5.351   2.183  11.458  0.1666  0.2561  0.0272
 9188W        W26712   6.141  13.500  15.377 -0.2816 -0.4614  0.0127
 9189W        W26713  16.118  13.674  12.628 -0.2662  0.0233  0.2023
 9190W        W26714  11.202   9.669   1.725  0.1624  0.1451  0.1756
 9191W        W26715   4.155  13.790   2.280 -0.4063  0.3574  0.1126
 9192W        W26716   7.744  18.321   3.783  0.3426  0.1151 -0.0077
 9193W        W26717  17.448   9.963   2.354  0.2198 -0.2333  0.1814
 9194W        W26718  10.455  11.215   3.435  0.0743 -0.1053  0.0448
 9195W        W26719  13.948   7.918   3.672 -0.0596 -0.2203  0.3382
 9196W        W26720   9.502   1.639   3.447 -0.2347  0.1504  0.1170
 9197W        W26721  13.466   9.333   0.668  0.2290  0.2476 -0.0298
 9198W        W26722  16.571  16.874  12.704  0.0084 -0.0622 -0.0316
 9199W        W26723  16.973   0.006   3.260  0.1701  0.0706  0.1754
 9200W        W26724   7.821  17.800  12.633 -0.3140 -0.0900 -0.3027
 9201W        W26725   6.735  15.791   1.535  0.1845 -0.0070  0.0292
 9202W        W26726  16.079  13.588  11.369 -0.3201  0.1681 -0.0897
 9203W        W26727  17.050  15.687  14.729  0.0376  0.1744 -0.1134
 9204W        W26728  15.242   4.845  12.159 -0.0194 -0.0368  0.1378
 9205W        W26729  16.350   5.736  11.641  0.1972 -0.0026  0.3449
 9206W        W26730   5.201  16.218  12.975 -0.0458 -0.0749  0.3245
 9207W        W26731   2.154  11.148   1.161  0.1243  0.4105  0.1779
 9208W        W26732   8.024   8.417  12.674 -0.0259  0.2215  0.1679
 9209W        W26733   9.608   4.565  13.719 -0.0112  0.1622 -0.0862
 9210W        W26734   0.400  18.123  11.341  0.1091  0.2359  0.0045
 9211W        W26735   3.778  11.996  13.095  0.0088 -0.0272 -0.2154
 9212W        W26736   8.973  16.681   2.696 -0.2473 -0.2080  0.0570
 9213W        W26737  16.607   6.907   4.057  0.2692 -0.1422  0.1693
 9214W        W26738  12.446   8.967  14.113 -0.2361 -0.0494 -0.0671
 9215W        W26739  10.489   8.463  14.600 -0.2509  0.2891 -0.0013
 9216W        W26740   1.591  10.540  12.784 -0.0881  0.0449 -0.0188
 9217W        W26741   7.870   5.243  10.847  0.1630  0.1646 -0.0226
 9218W        W26742  12.866   0.652  13.293  0.1605  0.0931  0.1263
 9219W        W26743   1.917  13.213  14.369 -0.2396 -0.2218  0.0700
 9220W        W26744  18.477  14.986   3.174 -0.0650 -0.2644  0.2263
 9221W        W26745  10.340  16.582  13.423  0.1604  0.2206 -0.0896
 9222W        W26746   3.903   4.651   4.204 -0.0854 -0.0905 -0.2757
 9223W        W26747  17.940  14.174   3.729  0.1181  0.1319  0.1019
 9224W        W26748  14.150   1.833   2.396  0.0606 -0.0584 -0.2213
 9225W        W26749   2.205  12.630  10.266  0.5928 -0.1109 -0.0732
 9226W        W26750   2.230  17.820   0.426  0.1141 -0.0334 -0.1033
 9227W        W26751   1.492   5.211   1.228  0.1985  0.0684  0.1548
 9228W        W26752   2.840  15.475  12.068  0.1630  0.0683 -0.0407
 9229W        W26753  17.087   3.500  14.874 -0.1233  0.0029  0.2751
 9230W        W26754  14.752   3.576   2.666  0.2071  0.0254  0.2318
 9231W        W26755   3.226   3.318   4.094  0.2425  0.0155 -0.0100
 9232W        W26756   4.449   9.518  11.074  0.0107 -0.1536 -0.4186
 9233W        W26757  13.407   0.249   5.178 -0.1362 -0.1087  0.2641
 9234W        W26758   2.779   3.052   3.951 -0.1647  0.4043  0.2008
 9235W        W26759   4.759   6.222  11.413 -0.0603  0.0617  0.0094
 9236W        W26760   1.965   6.515  15.144  0.0912 -0.0320 -0.1976
 9237W        W26761   2.748  12.930   0.029 -0.0952  0.2151  0.1479
 9238W        W26762   6.595  16.913  12.784  0.0187 -0.1378  0.1796
 9239W        W26763   4.497  10.266   4.354 -0.1782  0.0143  0.1837
 9240W        W26764   6.932   1.852  15.172 -0.1669 -0.0278  0.2804
 9241W        W26765  10.446  15.638   2.049  0.1211  0.2444 -0.3566
 9242W        W26766   1.875   2.930  15.493  0.1095  0.0796  0.2345
 9243W        W26767  15.508  18.205   3.977  0.0591 -0.1672 -0.1907
 9244W        W26768  15.913   5.616   0.622 -0.2011 -0.2875 -0.0481
 9245W        W26769  18.185   7.482   0.178 -0.0120  0.4232 -0.4770
 9246W        W26770   5.895  13.741   0.054  0.1978 -0.0272  0.2269
 9247W        W26771   3.075   6.602   1.665  0.0028  0.1321  0.2381
 9248W        W26772   0.989  18.405  15.601  0.2650  0.0931  0.1117
 9249W        W26773   0.314   3.224  11.646  0.1373  0.1546 -0.4171
 9250W        W26774  14.337  18.098   5.701 -0.0488 -0.1131  0.0692
 9251W        W26775  10.377   6.663  13.896 -0.0121 -0.1977  0.1083
 9252W        W26776   3.079   1.581   4.499 -0.0002 -0.2609  0.0238
 9253W        W26777  17.324   3.456   0.492 -0.1137  0.2375 -0.1821
 9254W        W26778  13.925   5.732  15.618 -0.0981  0.0302 -0.1962
 9255W        W26779   6.146  17.810   0.465 -0.1851  0.1054 -0.0577
 9256W        W26780   1.056   6.595   4.000  0.2927 -0.1014 -0.2009
 9257W        W26781   2.787  14.985  13.007 -0.2865  0.1320  0.2425
 9258W        W26782   0.075   3.054  12.040  0.0334 -0.3011  0.3415
 9259W        W26783  10.900  10.157   0.412  0.0704 -0.2326 -0.3098
 9260W        W26784  12.066  10.827  11.398  0.2679  0.1733 -0.1258
 9261W        W26785  11.883  15.345  14.667 -0.2295  0.1197 -0.1320
 9262W        W26786  12.150  17.879  10.231 -0.0628 -0.1626 -0.0467
 9263W        W26787  15.751   1.793   2.184  0.1146 -0.1247 -0.1332
 9264W        W26788  12.206   5.794  12.312 -0.2496  0.1254 -0.1431
 9265W        W26789   2.509   3.424   2.644 -0.2410 -0.3064 -0.0109
 9266W        W26790   5.726  18.133   4.133 -0.3413  0.3536 -0.2539
 9267W        W26791   9.988   8.200  11.010 -0.0991  0.0984  0.1055
 9268W        W26792   7.146  11.606  14.415  0.0537 -0.0421 -0.2545
 9269W        W26793   5.808  10.100  12.910 -0.3262 -0.0647  0.1164
 9270W        W26794   2.270   8.801  15.006  0.0771 -0.0479 -0.0396
 9271W        W26795  16.629   3.395   4.462  0.1142 -0.2444 -0.3033
 9272W        W26796   2.000  15.821   2.568 -0.1171  0.0027 -0.0542
 9273W        W26797   7.802  11.881  13.927  0.1032  0.1748  0.1803
 9274W        W26798   9.448   6.843  13.017 -0.1217 -0.1504 -0.3334
 9275W        W26799   2.620   6.400  10.589  0.0695 -0.0992  0.0613
 9276W        W26800   8.041   0.144  14.687 -0.1390 -0.2143 -0.0733
 9277W        W26801   8.396  15.428  12.904  0.0261 -0.1070 -0.0224
 9278W        W26802   1.447  16.725   1.455 -0.0152  0.2444  0.2585
 9279W        W26803   0.586  10.930   3.644 -0.1304  0.2839 -0.4608
 9280W        W26804   2.985  13.606   3.014 -0.0314 -0.0482 -0.0091
 9281W        W26805   7.099   3.187  12.753  0.2284 -0.1848 -0.3278
 9282W        W26806  12.414   3.576  15.657  0.0164 -0.0845  0.2079
 9283W        W26807  18.371  15.755  15.505 -0.2026  0.2886  0.0670
 9284W        W26808  12.860  18.441  12.046 -0.2646  0.1339 -0.1941
 9285W        W26809   6.003   9.934   3.527 -0.2875 -0.0894 -0.0058
 9286W        W26810   6.450   1.363  14.113 -0.0914 -0.0178  0.0397
 9287W        W26811   2.372   8.334   4.007 -0.1553  0.4403 -0.2243
 9288W        W26812   5.084  13.837  11.184 -0.1929 -0.3389 -0.2116
 9289W        W26813   1.825  16.859  13.803 -0.0388  0.0453 -0.2389
 9290W        W26814  11.272  13.399   1.721  0.0199  0.0675 -0.1995
 9291W        W26815   6.450   2.847   4.066  0.0268  0.1386 -0.0699
 9292W        W26816  14.799   5.655   0.136 -0.0520 -0.0618  0.1400
 9293W        W26817  14.875  12.585  15.633  0.0893  0.0593 -0.0048
 9294W        W26818   6.625  10.129   1.007  0.2358  0.2793 -0.1806
 9295W        W26819  14.406   3.492  14.991 -0.1109 -0.1776  0.2711
 9296W        W26820   1.557  18.352   1.066 -0.0316 -0.0052 -0.0674
 9297W        W26821   3.658   2.386   4.070 -0.0396  0.1572 -0.0212
 9298W        W26822  14.512   3.912   4.245  0.0212  0.0873  0.3842
 9299W        W26823   0.967  18.415  11.855  0.0900  0.3385 -0.1226
 9300W        W26824   1.697  12.894  11.473  0.0013 -0.2803  0.2760
 9301W        W26825  17.787   1.891  15.294 -0.1240 -0.2081  0.0411
 9302W        W26826  14.764  11.471  13.414 -0.0111 -0.3170 -0.2847
 9303W        W26827   2.306   6.756   5.645 -0.1931  0.0002  0.0643
 9304W        W26828   3.412   9.565  13.034 -0.0137 -0.1329  0.0358
 9305W        W26829  16.664  10.598   4.354 -0.1171 -0.0556 -0.1441
 9306W        W26830  10.631   5.928  14.963  0.1174 -0.1353  0.1688
 9307W        W26831  14.742  13.073   4.227  0.1675 -0.1229 -0.2754
 9308W        W26832  16.085  13.349   1.429 -0.2575  0.2398  0.0773
 9309W        W26833  13.268  14.946   4.830  0.3124 -0.0142  0.0295
 9310W        W26834  12.638   1.776  13.903 -0.0954  0.1938  0.0794
 9311W        W26835   3.290  12.999   0.794  0.2469  0.2168 -0.1217
 9312W        W26836   7.284   1.251   0.652 -0.0572  0.5177  0.1318
 9313W        W26837   9.882   4.755  10.756 -0.2583 -0.0068 -0.2089
 9314W        W26838   7.230   7.370  15.085 -0.2049  0.1073 -0.0981
 9315W        W26839  17.321   0.521   1.093 -0.0609  0.1589  0.1966
 9316W        W26840   8.730   2.456   1.085 -0.1026  0.1748 -0.1235
 9317W        W26841  14.943   2.859   4.355  0.2284  0.0733  0.3941
 9318W        W26842   3.448  17.564   4.061  0.3382 -0.0605 -0.1716
 9319W        W26843   4.349   6.049   1.746 -0.2548  0.4361  0.0080
 9320W        W26844  17.096  12.320  13.769  0.0308 -0.5012 -0.2135
 9321W        W26845  14.362   5.927  15.145 -0.0257  0.1770 -0.0753
 9322W        W26846  11.016   2.937   2.585  0.2731  0.0667 -0.4702
 9323W        W26847   8.543   5.200  14.919 -0.3223  0.1459 -0.2850
 9324W        W26848  18.080  11.669   0.230 -0.1052 -0.0570  0.1405
 9325W        W26849   2.005  13.074  12.406 -0.0936  0.3851 -0.0996
 9326W        W26850   5.357  13.844  13.246 -0.0874  0.0321 -0.1669
 9327W        W26851  16.455   9.550  11.798 -0.3718 -0.1172 -0.2395
 9328W        W26852  14.432  14.341   5.120 -0.0445 -0.0084 -0.1559
 9329W        W26853   4.981  16.661   4.576 -0.3627  0.0336 -0.0599
 9330W        W26854  12.070  10.333  14.142 -0.1812  0.2226 -0.2197
 9331W        W26855   2.378   7.976   1.684 -0.0309 -0.2108  0.3304
 9332W        W26856   4.615   1.489  12.973 -0.0879  0.1736  0.0616
 9333W        W26857   8.956   8.565   3.557  0.1309 -0.1410  0.1315
 9334W        W26858  15.365   6.081  14.042  0.1876  0.2526 -0.0454
 9335W        W26859   3.360   7.721   1.851 -0.0309  0.1658 -0.3060
 9336W        W26860   0.601   4.915  15.388 -0.0801  0.3515  0.1342
 9337W        W26861   2.252   2.914   1.634  0.1853 -0.3881 -0.1467
 9338W        W26862   6.476  14.654   4.653  0.2820  0.2728 -0.0782
 9339W        W26863  13.974  13.822  14.486  0.1785  0.2291  0.0793
 9340W        W26864  11.057   4.010   1.900  0.2209 -0.0334 -0.1009
 9341W        W26865   0.680  18.197  14.517  0.1365 -0.0963  0.0262
 9342W        W26866   4.853  15.547  12.192  0.1565  0.0522  0.0097
 9343W        W26867  10.695  12.356   1.235  0.1301  0.2014  0.0399
 9344W        W26868  10.745  14.103  12.572  0.1478 -0.0145 -0.0180
 9345W        W26869   9.708   9.082   5.170  0.2067  0.2431 -0.2940
 9346W        W26870  18.115  10.183  12.010 -0.3863  0.0721  0.0841
 9347W        W26871  15.343   6.482   4.737  0.2229  0.1210 -0.1334
 9348W        W26872  10.015   6.365   2.315  0.0444  0.0606 -0.0122
 9349W        W26873  16.308  16.264   3.431  0.1366 -0.1938  0.0276
 9350W        W26874   0.390   2.506  11.607 -0.0987  0.3506 -0.0578
 9351W        W26875   1.797  14.309  12.357 -0.1251 -0.1374  0.3542
 9352W        W26876  12.958  10.340  13.245 -0.0534  0.1368  0.0269
 9353W        W26877   7.921   3.337   4.147 -0.1246  0.6114 -0.0826
 9354W        W26878   1.433  13.537  15.313  0.0349  0.0482  0.1362
 9355W        W26879  16.903   8.247  14.844 -0.0256 -0.0515 -0.1999
 9356W        W26880  16.710   1.764  12.277  0.1684  0.1987 -0.2748
 9357W        W26881  15.100   4.770  13.192 -0.1385 -0.1471  0.1103
 9358W        W26882  14.552  13.980   0.919  0.1496  0.1852 -0.3759
 9359W        W26883  15.920   8.894   1.883 -0.0104  0.0170 -0.2224
 9360W        W26884   9.626   6.975  11.100  0.0569  0.0261 -0.4463
 9361W        W26885   0.342   8.854   3.214  0.0167  0.1002 -0.1743
 9362W        W26886   2.398   0.810   5.375  0.2682 -0.1863 -0.2201
 9363W        W26887  10.959   8.639  10.308 -0.0731  0.4147  0.3131
 9364W        W26888  13.301  15.768  13.952 -0.2174  0.0375 -0.2426
 9365W        W26889   2.391   8.377  12.050  0.2493  0.0147 -0.1541
 9366W        W26890   4.102   9.340   0.005 -0.3190 -0.1881  0.2937
 9367W        W26891   5.354  15.787  15.100 -0.1723  0.0041  0.0465
 9368W        W26892  13.674  16.060  14.350 -0.0232 -0.2026 -0.4399
 9369W        W26893  14.111  15.775   3.893  0.2200 -0.0482 -0.0686
 9370W        W26894   5.785   7.999   1.608  0.1550  0.1336  0.0057
 9371W        W26895   2.467   0.500   2.410 -0.1523 -0.0255 -0.1347
 9372W        W26896  17.867   3.064   1.056  0.3394 -0.0821 -0.1644
 9373W        W26897  13.212  15.676   3.234 -0.5243 -0.0430  0.2159
 9374W        W26898  17.988   8.669  12.406 -0.0633 -0.2738 -0.0092
 9375W        W26899  14.520   9.764   2.740 -0.0234 -0.1211  0.2300
 9376W        W26900   5.734  10.740  14.147  0.0501  0.3088  0.3514
 9377W        W26901   8.709   5.115   0.951 -0.2854  0.1071 -0.2779
 9378W        W26902   5.993   1.342  11.324 -0.0010  0.0548  0.1970
 9379W        W26903  16.405   8.440   4.160 -0.0604  0.1835  0.1599
 9380W        W26904   8.652   4.626   3.616  0.1281  0.3044  0.3563
 9381W        W26905   6.358   1.782  15.013 -0.1851 -0.2202 -0.0366
 9382W        W26906  11.875   0.416   2.205 -0.1250  0.1335  0.0046
 9383W        W26907   3.439  11.024   3.306  0.1009 -0.1989  0.0702
 9384W        W26908   3.304   5.423  13.176  0.0561 -0.3301  0.1838
 9385W        W26909   9.384   5.908   1.919 -0.1279 -0.1545 -0.0489
 9386W        W26910   9.257   2.969   0.618  0.0787  0.0229  0.2721
 9387W        W26911   5.839   2.208   2.181  0.3489 -0.2651  0.1297
 9388W        W26912   4.823  11.296  11.427 -0.2265 -0.0769  0.0603
 9389W        W26913   4.836   1.216   4.337  0.1922  0.0596 -0.2329
 9390W        W26914  10.282  14.064  12.757  0.0610 -0.0862  0.2169
 9391W        W26915  17.780  16.325   5.260  0.0616  0.0271 -0.0744
 9392W        W26916   2.887   4.527  14.115 -0.0330  0.0171 -0.0834
 9393W        W26917  17.020   2.349  11.051  0.3256 -0.0880  0.2006
 9394W        W26918  11.162  12.560  13.779  0.3311  0.1111  0.2172
 9395W        W26919  11.822  14.051  11.534  0.1458  0.0270  0.3034
 9396W        W26920  16.082   8.882   0.885  0.2705 -0.0437  0.1287
 9397W        W26921   4.722  10.015  13.068  0.0885 -0.0148  0.2721
 9398W        W26922   8.710   1.451  14.252  0.1033  0.0718 -0.0714
 9399W        W26923   6.580  18.079  11.092 -0.0165 -0.0619 -0.0055
 9400W        W26924   7.624   0.717  15.337  0.1136  0.0230 -0.2940
 9401W        W26925   4.837  17.059  13.719 -0.0041 -0.1195 -0.0184
 9402W        W26926  12.314   9.779  15.366 -0.2194  0.2960 -0.2883
 9403W        W26927   1.737  18.012   4.824 -0.1459  0.0179 -0.2788
 9404W        W26928   3.456  11.202   2.764 -0.1792  0.0400  0.1261
 9405W        W26929  16.401   9.473  14.819  0.0515 -0.1646  0.1772
 9406W        W26930   4.928   5.374  14.390  0.2277  0.1200  0.2883
 9407W        W26931  12.520   9.348   1.958  0.2673  0.2725  0.0556
 9408W        W26932  12.335   5.964   1.847  0.1672  0.0954  0.1863
 9409W        W26933   1.626  10.683   3.482 -0.1432 -0.1226  0.0817
 9410W        W26934  16.170  17.573  15.458  0.0549  0.1193  0.0068
 9411W        W26935   3.797  15.282  12.673  0.1287 -0.2734 -0.1154
 9412W        W26936   1.307   5.070  14.626 -0.2086  0.0303 -0.0444
 9413W        W26937  16.948   8.596   0.452 -0.2050 -0.2552  0.0424
 9414W        W26938   6.978  11.276  10.527 -0.1701 -0.1154 -0.1426
 9415W        W26939   5.543   0.413   2.080  0.2276 -0.1047  0.2247
 9416W        W26940  13.741   3.413  14.297  0.0465 -0.0439 -0.4338
 9417W        W26941   1.225  16.723   3.123 -0.0683  0.0151  0.1324
 9418W        W26942   3.879   1.115  13.878  0.1348  0.0543  0.2430
 9419W        W26943   7.274  14.128  10.974 -0.0481 -0.0331  0.0057
 9420W        W26944   5.475   2.991  15.284 -0.0736 -0.2009 -0.1941
 9421W        W26945   0.493  15.132  14.881 -0.1089  0.2385  0.1616
 9422W        W26946  17.983   0.068  15.270  0.0610  0.1130 -0.0832
 9423W        W26947  14.464  15.652  14.748 -0.0403 -0.0824  0.0140
 9424W        W26948  10.185   6.268   0.081 -0.0127  0.3330  0.1003
 9425W        W26949  10.861   0.188  13.353  0.3182  0.0683  0.3441
 9426W        W26950   6.571   8.718   2.101 -0.0643 -0.0770 -0.1373
 9427W        W26951  15.257  15.435  11.948 -0.0530 -0.0955 -0.2046
 9428W        W26952  10.025  16.808   5.729  0.2760 -0.0361  0.3240
 9429W        W26953  11.741   1.123   3.987  0.4453 -0.3361  0.0831
 9430W        W26954   5.732  14.117   0.364  0.0927 -0.0293  0.0190
 9431W        W26955   6.785  16.853   1.482 -0.2546  0.0037  0.0802
 9432W        W26956   0.681   1.637   0.901 -0.0880 -0.1478 -0.1233
 9433W        W26957   7.297   0.399  10.192  0.3308  0.0024 -0.1450
 9434W        W26958   9.857   8.718   0.272 -0.3175 -0.1402 -0.1886
 9435W        W26959   0.969  13.030   2.062 -0.3958 -0.1797 -0.3912
 9436W        W26960   3.092   3.515   1.393 -0.0178 -0.0690 -0.2686
 9437W        W26961  17.591  16.031   2.095 -0.3919  0.1895  0.0247
 9438W        W26962   5.128   2.231  14.881 -0.3552  0.1491 -0.0634
 9439W        W26963  15.152  13.649   3.049 -0.2569 -0.0391  0.1962
 9440W        W26964  16.980   7.963  11.148  0.1500 -0.0336  0.1943
 9441W        W26965   0.291  13.715  12.646 -0.0366  0.2493 -0.0442
 9442W        W26966  13.644   2.910  11.433 -0.3267 -0.1180  0.1579
 9443W        W26967  17.732   9.564   2.241 -0.0733 -0.2113  0.1589
 9444W        W26968   4.741   9.070   2.525  0.1194  0.0838 -0.0666
 9445W        W26969   4.486  13.547   0.487 -0.2409 -0.0189 -0.0482
 9446W        W26970  16.228  14.555  15.499 -0.0300  0.1753 -0.0406
 9447W        W26971  12.507  12.215  11.203  0.4417  0.0932  0.2260
 9448W        W26972   9.137   4.264  13.883  0.2300 -0.0665 -0.0466
 9449W        W26973   3.361   5.743  13.596 -0.2955  0.1021  0.1532
 9450W        W26974   0.463  17.686   6.106  0.4904 -0.0236 -0.1795
 9451W        W26975  14.836  15.220  12.114  0.1467 -0.2090  0.0947
 9452W        W26976  15.851   7.086   2.850 -0.4065 -0.1811  0.1740
 9453W        W26977   7.637   6.857   4.501  0.2511  0.2028  0.1997
 9454W        W26978  12.207  13.494   2.422  0.4528 -0.0034 -0.0461
 9455W        W26979   7.877   2.677   2.640  0.1773  0.0211  0.2250
 9456W        W26980   0.901  14.972   3.728  0.0764  0.2165  0.1433
 9457W        W26981  10.415   8.518   1.020 -0.0552  0.3115  0.1588
 9458W        W26982  15.530   2.711  14.479  0.0292 -0.0285 -0.0650
 9459W        W26983   9.279  16.337  12.690 -0.1831 -0.1424 -0.1534
 9460W        W26984  13.544   5.914   2.420 -0.2677  0.1946 -0.3526
 9461W        W26985   8.804   8.010  11.666 -0.0462 -0.1797  0.1272
 9462W        W26986  17.023  14.042   0.954 -0.1844 -0.1670  0.2272
 9463W        W26987  14.537   1.715   1.523  0.1963  0.0575 -0.2169
 9464W        W26988   0.630   4.695  13.734  0.0909 -0.0292 -0.2968
 9465W        W26989   6.433   8.189   1.379  0.0475 -0.2622  0.0749
 9466W        W26990   6.792  17.471  13.414  0.1770 -0.2662  0.0326
 9467W        W26991  16.378   8.079  14.880  0.0280 -0.1646 -0.5862
 9468W        W26992  12.830   4.597   2.653  0.0596  0.0342 -0.3680
 9469W        W26993   5.103  16.746  15.248 -0.0893 -0.1919  0.0223
 9470W        W26994   0.045  12.100   4.601 -0.1370  0.1161 -0.0651
 9471W        W26995  13.776   2.657   2.713  0.2013  0.3031  0.0806
 9472W        W26996   9.935   3.234  11.773 -0.0899 -0.2819 -0.3905
 9473W        W26997   1.528  15.330  13.608 -0.0053 -0.0612  0.0131
 9474W        W26998  12.628   3.899  15.050  0.1058 -0.2836  0.0135
 9475W        W26999   4.067  14.903  14.284  0.0663  0.1017  0.3299
 9476W        W27000  18.391  16.461  12.448  0.3126 -0.1151  0.1814
 9477W        W27001   3.540  15.197   0.311  0.2270  0.3018 -0.0674
 9478W        W27002   8.644  18.286   0.099  0.0025 -0.2905 -0.0953
 9479W        W27003  14.106  10.559  14.597 -0.2420 -0.1819 -0.2530
 9480W        W27004  12.508   5.152  14.628 -0.1186 -0.3408 -0.1990
 9481W        W27005  18.369  15.539   5.560  0.1539 -0.2730  0.0980
 9482W        W27006  15.507   5.706   0.924  0.3736  0.1992  0.1747
 9483W        W27007   0.736   6.344   2.896 -0.0480 -0.1324 -0.1953
 9484W        W27008   6.028  14.023   3.376 -0.2301 -0.1145  0.2151
 9485W        W27009   2.691   4.715   1.085  0.2823 -0.1239 -0.1586
 9486W        W27010   5.854   8.220   4.391  0.4873  0.2472  0.0012
 9487W        W27011  17.349  10.324   4.017  0.1172 -0.0992  0.1921
 9488W        W27012   6.684  17.460  14.605  0.3264  0.2051 -0.3011
 9489W        W27013  14.471  18.296  14.440 -0.3570  0.1298  0.0874
 9490W        W27014  17.587   3.262   2.371 -0.2849 -0.0613 -0.0150
 9491W        W27015   7.135   6.041   3.209  0.0068 -0.0693 -0.1674
 9492W        W27016   9.200  14.269  13.874  0.2821  0.0779 -0.1172
 9493W        W27017  10.796   3.950  11.325  0.1360  0.0646  0.2260
 9494W        W27018   0.475   4.748   3.921 -0.4208 -0.2857 -0.2170
 9495W        W27019   5.220  17.141   3.937  0.3218 -0.0786  0.2009
 9496W        W27020  10.876  13.569   3.637 -0.1253 -0.2023 -0.1064
 9497W        W27021  11.179  16.932  12.312 -0.0345  0.0210 -0.1840
 9498W        W27022  12.837  12.539  11.612  0.0855 -0.0793 -0.0327
 9499W        W27023  14.476  18.283  13.407 -0.1456  0.1979  0.0340
 9500W        W27024  17.624  15.570   3.422  0.2192 -0.1923  0.4748
 9501W        W27025  17.837   7.800   3.238  0.1648 -0.0070  0.1793
 9502W        W27026   4.480   3.369   4.567 -0.3235 -0.0197  0.2669
 9503W        W27027   1.407   2.725  10.889  0.0401  0.2273  0.3693
 9504W        W27028  11.349   4.870   3.729 -0.2781 -0.3400 -0.1615
 9505W        W27029  15.547  13.460  11.077  0.0488 -0.5743 -0.0892
 9506W        W27030  11.132   9.759  13.791  0.0624 -0.1805  0.0272
 9507W        W27031   3.176   4.468  13.629 -0.3790  0.2369 -0.0277
 9508W        W27032   1.150  14.209   2.173 -0.3975  0.1144  0.0181
 9509W        W27033   7.051   4.814  13.984 -0.0401 -0.0882  0.0747
 9510W        W27034   6.938   2.012  13.742  0.0874 -0.3607  0.1505
 9511W        W27035   9.167  14.022  12.824 -0.2325  0.2775  0.0272
 9512W        W27036   1.435  13.302  10.543 -0.1243 -0.0010 -0.0913
 9513W        W27037   3.251   1.115  15.482 -0.1183  0.0744 -0.1236
 9514W        W27038  11.555   2.362  14.590 -0.0132  0.1699 -0.0271
 9515W        W27039  18.382  12.188   4.112  0.1355  0.1913 -0.2202
 9516W        W27040   9.229  10.453   3.937 -0.0735 -0.2663 -0.0286
 9517W        W27041   3.190   5.774  12.178 -0.0091  0.0277  0.3397
 9518W        W27042   5.998   6.227  13.378  0.0620  0.1801 -0.1676
 9519W        W27043   4.856  18.481   0.031 -0.0636 -0.2392  0.0451
 9520W        W27044   7.767   8.359   3.139  0.3141  0.0823  0.0943
 9521W        W27045  15.375   7.419   3.655  0.1287 -0.0588 -0.1484
 9522W        W27046  13.534  18.208   2.927  0.1467  0.1001  0.2601
 9523W        W27047   5.257   5.957   3.091 -0.1775  0.0011 -0.0615
 9524W        W27048   6.704   5.713  12.240 -0.0412 -0.0974 -0.0344
 9525W        W27049   9.541  13.347  10.875 -0.1060 -0.0735 -0.2915
 9526W        W27050  15.871   4.790   3.773 -0.4022 -0.3101 -0.0832
 9527W        W27051  15.344  15.731   3.775  0.4126 -0.1152 -0.0543
 9528W        W27052   1.264  17.592  15.169  0.1092 -0.2291 -0.0234
 9529W        W27053   1.845  13.184  13.339  0.0118 -0.2304 -0.3171
 9530W        W27054   8.362   5.520   3.855 -0.4240 -0.0345  0.1855
 9531W        W27055  15.991  12.842   0.857 -0.3153  0.1055 -0.1373
 9532W        W27056  14.600  18.030   1.778  0.1020 -0.0431  0.1275
 9533W        W27057  11.750  17.964  12.820  0.0524 -0.3591 -0.0939
 9534W        W27058   9.918  14.984   5.114  0.0255 -0.1249  0.1247
 9535W        W27059   3.282  12.296   0.857  0.2461 -0.5003  0.1757
 9536W        W27060   4.905  13.241  12.904 -0.4937  0.4524 -0.1030
 9537W        W27061   5.443   3.972  14.506 -0.2578  0.1243 -0.1602
 9538W        W27062   5.839  17.960  14.605  0.0519  0.1151  0.2435
 9539W        W27063  17.688   9.540  14.420  0.0192 -0.0289  0.2515
 9540W        W27064  12.610   9.491  13.857  0.3444 -0.0951  0.1230
 9541W        W27065   4.874   7.908   1.314  0.0322  0.0050  0.0610
 9542W        W27066   0.140   9.799  12.034 -0.0312 -0.0674 -0.0559
 9543W        W27067   4.657  16.945   0.850  0.0535  0.0779  0.0433
 9544W        W27068  18.038  11.455   1.622 -0.1089 -0.1417  0.5546
 9545W        W27069   9.230   3.926  15.224  0.0858  0.0325  0.2287
 9546W        W27070   0.746  12.987  11.234 -0.1524  0.2908  0.1950
 9547W        W27071   8.952   1.715   3.226  0.1986 -0.0548  0.1393
 9548W        W27072  11.517   8.755  15.157  0.1235 -0.1057 -0.0149
 9549W        W27073   7.179  10.086  14.916 -0.1277  0.0653 -0.0382
 9550W        W27074   5.641  11.575  13.784 -0.1366  0.1867  0.0433
 9551W        W27075  17.933   3.648  14.031 -0.1980  0.1373 -0.1176
 9552W        W27076  18.060   2.660   2.394 -0.1776  0.0731  0.0788
 9553W        W27077   7.797  10.371  11.270  0.0790 -0.0597  0.0650
 9554W        W27078   2.537   4.020  15.479 -0.1186 -0.0217 -0.1100
 9555W        W27079  10.322   5.568   2.600 -0.1400  0.0965 -0.0439
 9556W        W27080  14.489  14.743   3.167  0.1789  0.0637 -0.0096
 9557W        W27081   0.801   0.250   2.042  0.0062  0.0679 -0.2303
 9558W        W27082  12.445   7.483  11.013 -0.2220  0.3154  0.0359
 9559W        W27083   2.375   8.251   2.076 -0.2281 -0.3929  0.0852
 9560W        W27084  13.927  13.901   2.914  0.0026  0.1779 -0.0075
 9561W        W27085  12.179   0.830   2.627  0.0526  0.2035 -0.0648
 9562W        W27086   0.739  12.840   1.679  0.0691  0.3320  0.0897
 9563W        W27087  12.482   9.190   4.342 -0.1343 -0.1411 -0.1617
 9564W        W27088   0.267   5.049  14.957 -0.1875  0.0460  0.0299
 9565W        W27089  11.086   2.715   1.209  0.1319  0.0097  0.1747
 9566W        W27090  13.072   2.236   1.266 -0.0381  0.0232 -0.1167
 9567W        W27091  11.448   1.433  15.370 -0.0356 -0.0294 -0.1552
 9568W        W27092  14.952   5.729   3.176 -0.0417 -0.1331  0.0633
 9569W        W27093  11.543   6.625   2.282  0.2521  0.0984  0.0870
 9570W        W27094  10.584   2.355  12.877  0.0090 -0.4374  0.0127
 9571W        W27095   9.752   6.375   0.764 -0.2602 -0.2200 -0.0319
 9572W        W27096   8.342  10.446  13.504  0.0571 -0.3385 -0.1576
 9573W        W27097   0.223  16.540  14.354 -0.0414  0.0829 -0.3088
 9574W        W27098  15.648   5.194   4.952 -0.1159  0.1024 -0.2067
 9575W        W27099  10.325   8.998   0.998 -0.1770  0.1818  0.1871
 9576W        W27100  12.823   3.529  14.751 -0.0038 -0.1661  0.0757
 9577W        W27101   1.252   7.989  14.241  0.0517 -0.4513  0.2040
 9578W        W27102  17.631  10.133   2.820  0.1585  0.2303  0.0007
 9579W        W27103  16.159  11.899   4.173  0.3891  0.2094  0.0238
 9580W        W27104  14.308  16.357  13.038 -0.1335 -0.0805  0.0293
 9581W        W27105   5.207   4.341   3.864 -0.3111  0.2583 -0.0038
 9582W        W27106   1.189  11.984   1.398  0.0908 -0.1304 -0.0975
 9583W        W27107   5.006  18.324  11.390 -0.0879 -0.2965  0.1553
 9584W        W27108  14.839   9.659   0.357  0.0604 -0.1889 -0.2225
 9585W        W27109  15.023   6.835  14.841  0.2393  0.1803 -0.0544
 9586W        W27110   4.717   6.458   1.764  0.1798  0.2342  0.0431
 9587W        W27111  16.187   0.600   0.147  0.2456  0.0411 -0.1226
 9588W        W27112   9.698  10.180  12.143 -0.1719 -0.2068 -0.0619
 9589W        W27113  11.841   9.293  13.426  0.0999  0.0839 -0.2450
 9590W        W27114  14.742   8.733   0.147  0.1465 -0.2611  0.1288
 9591W        W27115  14.411   7.001  15.423 -0.2003  0.2703 -0.1836
 9592W        W27116  17.992   5.569  13.132  0.3523 -0.1827 -0.0803
 9593W        W27117  13.410   7.286  12.021 -0.2369 -0.1062 -0.5044
 9594W        W27118   3.440   5.249  13.639 -0.3116 -0.1594 -0.0430
 9595W        W27119  15.180   4.745  11.281  0.2824  0.1361  0.2744
 9596W        W27120   3.806   9.422   1.051  0.0998  0.0048  0.0173
 9597W        W27121  15.597  13.143  11.988  0.2037  0.1700  0.1581
 9598W        W27122   4.364   9.566  15.190  0.0714  0.3521 -0.1832
 9599W        W27123  13.015  18.211  14.174  0.2271  0.0959 -0.0489
 9600W        W27124   1.594  16.140   0.947 -0.0050  0.0283 -0.1395
 9601W        W27125   6.532  11.443   5.670 -0.0621  0.3013  0.0463
 9602W        W27126  13.065   4.503   0.390  0.1417 -0.5296 -0.0770
 9603W        W27127  10.808  12.222  13.837  0.1177  0.1018  0.0911
 9604W        W27128   6.800  13.098   5.599 -0.1624  0.3342 -0.0705
 9605W        W27129   7.812   3.178   3.628 -0.1183 -0.1168  0.0823
 9606W        W27130  18.408   3.487  12.357  0.2648  0.2249  0.1806
 9607W        W27131  17.409  10.070  12.899  0.2775  0.1704  0.4008
 9608W        W27132   1.993   4.224   1.736 -0.1688 -0.1502 -0.3096
 9609W        W27133   7.039  13.569   2.031  0.2572 -0.1778  0.1330
 9610W        W27134   2.668   0.473   3.652 -0.2052 -0.3297 -0.1011
 9611W        W27135   2.308  12.508   0.646  0.0566  0.0932 -0.0272
 9612W        W27136   8.141   9.616  12.871  0.0755  0.0438  0.1024
 9613W        W27137  16.395  10.412  12.246  0.2004 -0.0188  0.0909
 9614W        W27138   3.302  17.785  13.412 -0.1957  0.1055  0.0043
 9615W        W27139   8.139   5.332  14.063  0.1562 -0.0358 -0.1192
 9616W        W27140   9.985   0.157  13.289 -0.2734 -0.2532 -0.1049
 9617W        W27141  14.220   6.754   0.405  0.1854  0.2716  0.0926
 9618W        W27142   4.948   9.428  11.166 -0.0521  0.1439 -0.0177
 9619W        W27143   4.879   7.599   4.212 -0.0378  0.3973  0.1644
 9620W        W27144  17.203  11.794  11.244 -0.0830  0.1234  0.1295
 9621W        W27145   8.789  13.846   2.051  0.2927 -0.0858 -0.2856
 9622W        W27146   1.680   9.964   4.881 -0.0707 -0.0043 -0.0691
 9623W        W27147  12.543  15.789   0.586 -0.0346  0.1461  0.2527
 9624W        W27148  11.226  11.362   2.542 -0.1171  0.1707  0.3755
 9625W        W27149   3.071   2.118   6.125  0.2943 -0.0451 -0.1226
 9626W        W27150   7.828   4.798   0.742 -0.0806  0.3971  0.2926
 9627W        W27151   2.176   1.800   5.008 -0.0453  0.2512 -0.0169
 9628W        W27152   1.466  12.357  11.216 -0.1599  0.1584  0.1573
 9629W        W27153  14.685   2.358  12.285 -0.0931  0.1462  0.2150
 9630W        W27154  14.616  11.408   0.223 -0.1193  0.0144 -0.0056
 9631W        W27155   4.329  13.485  11.353  0.2474  0.0083  0.1549
 9632W        W27156   2.425   2.220   3.406  0.4103  0.0672 -0.1724
 9633W        W27157  12.586   6.677  13.578  0.2717  0.2447 -0.2616
 9634W        W27158  17.470  11.606  10.845 -0.0115  0.1728 -0.0648
 9635W        W27159  11.886  14.706  12.698 -0.2384 -0.1161 -0.0766
 9636W        W27160   8.760  10.848   3.055 -0.1102  0.0101  0.1518
 9637W        W27161   0.352   8.672   4.685  0.1254 -0.1539  0.0529
 9638W        W27162  13.123  16.169   3.108  0.1668  0.2102  0.1992
 9639W        W27163   6.026  12.871   1.279 -0.1050 -0.1118  0.1691
 9640W        W27164   2.851   5.348  10.854  0.1876 -0.1757  0.1514
 9641W        W27165   3.480  12.049   1.203  0.2149 -0.0700  0.0725
 9642W        W27166  17.650  13.515   0.368 -0.4817  0.1765  0.1726
 9643W        W27167   8.662   1.914   4.862 -0.0463  0.0379  0.3379
 9644W        W27168  14.603   7.969   0.462 -0.2872 -0.2697 -0.0155
 9645W        W27169   4.398   8.170  11.618  0.0301  0.0267 -0.0103
 9646W        W27170  16.415  10.439   0.140  0.0527  0.2860 -0.1005
 9647W        W27171   5.315   7.841  14.447 -0.1259 -0.1862  0.0099
 9648W        W27172   4.358   5.375   1.019 -0.0816 -0.2472  0.0867
 9649W        W27173  16.569  16.145   4.744  0.0467 -0.0964 -0.2918
 9650W        W27174  10.254   6.628  15.361 -0.0194 -0.0991 -0.1231
 9651W        W27175   1.767   3.102  13.374 -0.2014 -0.1059  0.1511
 9652W        W27176  17.930  16.704   4.925 -0.1332 -0.0603 -0.0503
 9653W        W27177  16.640   1.553  13.563 -0.5202 -0.2044  0.0276
 9654W        W27178   4.967   0.784   1.343 -0.0242 -0.2236 -0.1328
 9655W        W27179  14.908  12.597   2.288  0.1457  0.1208 -0.0085
 9656W        W27180   9.355   3.974   3.950  0.3493 -0.1985  0.4272
 9657W        W27181   5.548   8.329  14.829 -0.2401  0.2784 -0.3254
 9658W        W27182  17.294   1.340   3.401  0.2142  0.1033  0.0691
 9659W        W27183  14.542   7.724  12.878 -0.1502  0.0577 -0.3341
 9660W        W27184  11.546   9.193  12.944 -0.3531 -0.0928 -0.1820
 9661W        W27185  17.228   8.473  13.826 -0.1312  0.1196 -0.1173
 9662W        W27186  12.750  16.874  14.770 -0.2768  0.3885 -0.1048
 9663W        W27187   9.108  16.997  13.442 -0.1544 -0.0640 -0.3502
 9664W        W27188   9.644   1.520   2.395  0.0158 -0.0082 -0.0895
 9665W        W27189   7.022   0.368   0.118  0.0142  0.0948 -0.5146
 9666W        W27190   3.617  14.836   2.351 -0.0182 -0.0869 -0.1720
 9667W        W27191  15.828  12.474  15.210 -0.0240  0.1508 -0.3236
 9668W        W27192   6.728   8.691  13.268 -0.0784 -0.1552 -0.1211
 9669W        W27193  12.015   8.133   1.006 -0.1146  0.2749 -0.0553
 9670W        W27194  11.113  13.871   1.744  0.0075  0.3033  0.0503
 9671W        W27195  14.828   9.322   4.009  0.2287  0.2415 -0.3028
 9672W        W27196  17.112  14.498   0.661  0.0606  0.2911 -0.0765
 9673W        W27197   2.377  10.372  13.844  0.0707  0.3607  0.1164
 9674W        W27198   7.401  14.661   0.769  0.3341  0.1968 -0.1028
 9675W        W27199   7.438   0.065   0.358  0.0239  0.1709 -0.0978
 9676W        W27200   1.859  12.845   4.047 -0.0916 -0.0006  0.3017
 9677W        W27201  18.094  14.161  15.374 -0.1085 -0.0832  0.3212
 9678W        W27202   2.788  13.090   4.184 -0.2464  0.0311 -0.1314
 9679W        W27203   0.489  11.970  14.176  0.4440  0.5128  0.0594
 9680W        W27204   6.784   1.755  11.631 -0.0164 -0.1953 -0.0660
 9681W        W27205   6.949  10.353  12.124 -0.0941  0.0970 -0.0545
 9682W        W27206  11.299   0.274  14.255 -0.0040 -0.3154 -0.0715
 9683W        W27207  13.427  10.605  15.277 -0.1483 -0.0659 -0.0987
 9684W        W27208   8.166   5.947  11.911  0.3927  0.0879  0.0100
 9685W        W27209  15.743   0.273   1.230 -0.2065 -0.2470  0.2563
 9686W        W27210  11.153   7.970  14.909 -0.1327  0.0845  0.0152
 9687W        W27211   7.541   3.630   3.942 -0.0694 -0.2264 -0.0521
 9688W        W27212  10.397  17.533  14.018  0.2025 -0.2577  0.0486
 9689W        W27213   6.740  15.534  15.712  0.0263  0.1940  0.1192
 9690W        W27214  15.010   8.024  11.230  0.0277  0.0043  0.0438
 9691W        W27215   9.032  14.493   3.059 -0.0421 -0.0626  0.3652
 9692W        W27216   5.827  11.033   4.285  0.3177 -0.1756 -0.0369
 9693W        W27217  16.918  13.057   2.529 -0.1822 -0.1359 -0.0801
 9694W        W27218  10.466   6.506   2.521  0.0633  0.0777 -0.1469
 9695W        W27219  14.171   5.072   4.801  0.1504 -0.1996  0.2739
 9696W        W27220   2.692  15.035   2.377  0.0121  0.1889  0.1673
 9697W        W27221  15.337  13.411   2.636 -0.0904 -0.0179  0.1241
 9698W        W27222  16.819  12.562   2.455 -0.1842 -0.1745  0.0918
 9699W        W27223   8.420   2.157   0.816  0.4194 -0.1172  0.1829
 9700W        W27224  18.198   0.060   5.148 -0.0292 -0.0213 -0.3370
 9701W        W27225  14.189   7.025  13.249 -0.0674  0.0112 -0.4330
 9702W        W27226  13.911   8.675   2.071  0.1509  0.2566  0.0492
 9703W        W27227   4.793   7.926  11.900 -0.1499  0.2908  0.1041
 9704W        W27228  17.875   2.906   1.562 -0.3977  0.1426  0.0431
 9705W        W27229   8.080   2.881   0.045  0.5405  0.3781  0.3740
 9706W        W27230   3.393  15.881   1.734 -0.0501 -0.0546 -0.3243
 9707W        W27231   1.004   9.088  11.555  0.2204  0.1146 -0.1180
 9708W        W27232   1.872   7.935  14.175 -0.0389 -0.2060  0.0262
 9709W        W27233  16.577   6.196   2.315 -0.0001  0.0861  0.0419
 9710W        W27234   5.873  16.298  14.492  0.0160  0.3478 -0.2533
 9711W        W27235  15.883   0.825  11.071  0.1865  0.2378 -0.1849
 9712W        W27236   6.137   9.517   5.473 -0.0241  0.1999  0.1594
 9713W        W27237  12.529   8.078   4.479 -0.2583  0.4081 -0.4230
 9714W        W27238   8.927  11.202  14.949 -0.1001  0.1203 -0.0329
 9715W        W27239   7.521   0.650   3.443  0.2781 -0.2985 -0.0099
 9716W        W27240   2.529  15.094  13.729 -0.1295 -0.0917  0.3006
 9717W        W27241   5.447  14.669   1.522  0.3131  0.2639 -0.1508
 9718W        W27242   0.026  14.205   4.498  0.2400 -0.1980  0.0470
 9719W        W27243   0.724   9.018   0.412 -0.0481  0.0299 -0.0031
 9720W        W27244  15.855   9.351  11.125  0.1500  0.0635 -0.0255
 9721W        W27245   7.654  10.042  11.977  0.0956 -0.1058 -0.2040
 9722W        W27246  12.192  13.613   3.996 -0.3832 -0.1543 -0.0376
 9723W        W27247  11.633  17.245  14.225  0.2748 -0.0147  0.1018
 9724W        W27248  13.738  18.159  13.795  0.0570  0.0553  0.0853
 9725W        W27249  10.548   5.795  13.681  0.1367  0.1031  0.1003
 9726W        W27250  11.453   8.150  14.301  0.4097  0.2847 -0.0231
 9727W        W27251  11.449   2.316   3.443 -0.0662  0.1698  0.1188
 9728W        W27252  13.881  13.236   4.566 -0.1823 -0.0540 -0.1363
 9729W        W27253  16.966  16.779  14.802 -0.0735 -0.4686 -0.4135
 9730W        W27254   0.063   2.845  13.763  0.4816 -0.0304  0.0438
 9731W        W27255   5.774   6.136   2.514 -0.4379 -0.2572 -0.1063
 9732W        W27256  13.974  17.235  11.419  0.2293 -0.0002  0.0235
 9733W        W27257   2.607  14.423  11.255  0.1485 -0.0362  0.1761
 9734W        W27258   8.025   6.801  13.593 -0.0330 -0.0907  0.1562
 9735W        W27259   7.779   7.457  10.568 -0.2022  0.0676  0.2632
 9736W        W27260  13.874   2.890  11.883 -0.1521 -0.1477 -0.2622
 9737W        W27261  15.320  11.755   4.628 -0.1170  0.1186  0.0336
 9738W        W27262   9.238  14.803   2.696  0.2702  0.0988 -0.1007
 9739W        W27263   0.047  14.500   2.981 -0.4443  0.2097 -0.1041
 9740W        W27264  16.858  18.303   0.009  0.0606  0.1876 -0.1233
 9741W        W27265   1.861   2.019  11.351  0.1555 -0.3222  0.0374
 9742W        W27266   1.915  11.353  14.448  0.2417  0.0658  0.2883
 9743W        W27267  14.209   0.763   3.178  0.1124 -0.2100 -0.0731
 9744W        W27268   7.515  15.164  13.309 -0.0985  0.1911  0.1166
 9745W        W27269  10.569   4.111   4.869  0.0010  0.0925  0.0772
 9746W        W27270  12.330  12.036   0.718 -0.1384 -0.1719 -0.1299
 9747W        W27271  18.208  17.325   4.365  0.1832 -0.2565  0.0423
 9748W        W27272  14.271   6.137  11.879 -0.1560 -0.0974 -0.0498
 9749W        W27273  17.354   6.114   0.855  0.0519 -0.0022 -0.1010
 9750W        W27274  17.896   5.285  10.708 -0.2431  0.2863  0.2184
 9751W        W27275   2.645   5.885  11.975  0.5084  0.2817 -0.3460
 9752W        W27276  12.735  15.324   1.004 -0.2431 -0.2374  0.0350
 9753W        W27277  12.520   0.907  12.667 -0.1531 -0.0472 -0.2599
 9754W        W27278   7.880   6.523  14.294  0.0987 -0.1898 -0.1205
 9755W        W27279   1.053   8.861   0.950  0.0230 -0.0406 -0.3289
 9756W        W27280  16.413  18.141  14.610 -0.1961  0.1236  0.0604
 9757W        W27281   0.158   0.759  11.962 -0.1096  0.0974 -0.0391
 9758W        W27282   3.078  15.204  13.373  0.0932  0.0910  0.1843
 9759W        W27283  12.129  17.564  10.724  0.0287  0.2861  0.0728
 9760W        W27284   7.460   3.938   0.839  0.0846  0.3124 -0.1125
 9761W        W27285  11.489   0.271  15.426  0.3062  0.3520  0.1629
 9762W        W27286   9.995  16.769   0.530  0.0058 -0.3061  0.0379
 9763W        W27287   4.621  12.815   5.336  0.2787  0.2891 -0.1396
 9764W        W27288   1.010   9.595   2.667  0.1708  0.1890  0.1611
 9765W        W27289  15.216  15.974   5.574 -0.0733 -0.0621 -0.2003
 9766W        W27290   3.205  17.693  12.181 -0.4330  0.0305  0.1329
 9767W        W27291   0.230  10.987  14.238  0.0524  0.1671  0.2609
 9768W        W27292  16.461   0.455   1.817  0.1225 -0.1775  0.0799
 9769W        W27293   9.557  12.017  10.211  0.1559 -0.1757  0.2311
 9770W        W27294   9.897  12.642  12.653 -0.2138  0.3629 -0.1559
 9771W        W27295   6.180   7.021  13.631  0.1330  0.0991  0.0659
 9772W        W27296  18.049   9.410   4.698 -0.1039  0.0002 -0.0087
 9773W        W27297  16.490   9.949   4.799  0.0569 -0.2278 -0.1250
 9774W        W27298   6.110   2.606   4.766 -0.0732  0.2587  0.1487
 9775W        W27299   8.152  12.853   1.356 -0.0265 -0.1310  0.1597
 9776W        W27300   3.041  14.113   2.385  0.2182  0.3920  0.1151
 9777W        W27301  11.847  11.204  11.655  0.0018 -0.1717 -0.0424
 9778W        W27302  15.635  16.681  12.440  0.2560 -0.1336  0.5427
 9779W        W27303  15.402   6.225  11.760  0.1664 -0.4376  0.0866
 9780W        W27304   0.198  12.291   0.769 -0.2464  0.4955 -0.0854
 9781W        W27305  15.561   6.146  12.388 -0.1327 -0.1385  0.0209
 9782W        W27306  11.493  14.274   0.903 -0.1805  0.0947 -0.1562
 9783W        W27307   7.689   7.697   0.009 -0.0820  0.1689 -0.2961
 9784W        W27308   8.426  10.781   0.722 -0.2145  0.1458 -0.0884
 9785W        W27309   2.115   0.570  11.628 -0.2631  0.3024 -0.0455
 9786W        W27310  11.582  10.104  11.643  0.2649 -0.0355  0.0468
 9787W        W27311   6.852   9.264   3.301 -0.2590 -0.2672 -0.2017
 9788W        W27312   3.776   3.492   3.287  0.0685 -0.3048  0.0823
 9789W        W27313  15.780   2.797   2.408 -0.1378 -0.0865  0.0454
 9790W        W27314   0.137  12.590  14.372 -0.0626 -0.0068  0.1853
 9791W        W27315   0.306   1.620   1.935  0.0909 -0.0276 -0.2802
 9792W        W27316   5.480   8.404  10.510 -0.1653  0.3026 -0.0705
 9793W        W27317  13.800  10.659  15.710  0.0066 -0.2333  0.1486
 9794W        W27318   2.980   4.336  15.331 -0.0681  0.2002  0.1317
 9795W        W27319  17.102   2.754   2.098  0.0436 -0.1977 -0.0828
 9796W        W27320   2.964   9.906   2.627  0.2228 -0.2270 -0.3136
 9797W        W27321  10.142  18.457  15.725  0.1937 -0.1434  0.1416
 9798W        W27322  14.369   7.559   0.381  0.2976  0.1879  0.1364
 9799W        W27323   5.138   1.932   3.420  0.1956  0.0530 -0.3447
 9800W        W27324  17.977  10.762  13.977 -0.0542  0.1210 -0.0315
 9801W        W27325   1.133   4.537   1.645 -0.0587  0.1824  0.2276
 9802W        W27326  17.929  14.571  15.113  0.2801 -0.2052  0.1816
 9803W        W27327   8.828   7.577  12.041 -0.2431 -0.1454  0.0184
 9804W        W27328   5.403   2.550  15.118 -0.0138 -0.0147 -0.1229
 9805W        W27329  13.374   9.754   1.671 -0.1837  0.0600  0.0761
 9806W        W27330   4.417  13.031   4.471 -0.2411  0.0588 -0.0435
 9807W        W27331  10.944  11.851  15.670  0.1046 -0.2216  0.0937
 9808W        W27332   0.691  14.856   1.583 -0.3351 -0.2979  0.2210
 9809W        W27333  10.162   7.936   2.298  0.1958 -0.2692 -0.0283
 9810W        W27334   2.311   4.023  14.652  0.1243  0.3033 -0.4708
 9811W        W27335   4.379   7.777   1.580 -0.0677  0.0004  0.1979
 9812W        W27336  12.050   3.977  14.282 -0.2097  0.2290  0.1620
 9813W        W27337  10.567   9.137  11.710  0.0026  0.1898 -0.1045
 9814W        W27338   3.644   0.750  12.410  0.3865  0.1275 -0.1314
 9815W        W27339   9.932  10.961  12.733  0.1432 -0.0993 -0.3475
 9816W        W27340   0.331   7.539   0.360  0.0047  0.0390 -0.1846
 9817W        W27341  10.289  17.868   2.455  0.1431 -0.0194  0.1214
 9818W        W27342  18.410   1.393   4.766  0.0007 -0.2603  0.3122
 9819W        W27343  13.994   4.542   2.869  0.0601  0.1679 -0.1802
 9820W        W27344   9.547   9.957   5.063 -0.1974 -0.3222 -0.3235
 9821W        W27345  15.532   6.121  10.851  0.1131 -0.2433 -0.0506
 9822W        W27346   0.393   7.953  11.453 -0.1222  0.1555  0.0634
 9823W        W27347  16.197  10.670   4.144  0.3011  0.1312 -0.0688
 9824W        W27348   9.817   1.680  13.153 -0.0395 -0.3932 -0.0971
 9825W        W27349   7.898   3.678   3.612 -0.1239  0.3213  0.0848
 9826W        W27350  13.697   1.972  14.996 -0.0477 -0.1872  0.0710
 9827W        W27351  16.073   6.591   2.845  0.2278  0.1526 -0.0828
 9828W        W27352   9.847   5.214  14.837 -0.0569  0.1326  0.0766
 9829W        W27353  13.718   7.722  11.966 -0.0059 -0.2441 -0.0543
 9830W        W27354  15.459   8.204   4.176 -0.4941  0.3937  0.0341
 9831W        W27355   9.871   5.797  13.324 -0.1313 -0.0814  0.1039
 9832W        W27356  10.934   5.917   3.224  0.0259  0.2138 -0.2227
 9833W        W27357  10.852   2.357   0.636  0.0334  0.2095  0.0137
 9834W        W27358  14.914   1.595  13.259 -0.0585  0.0551  0.1377
 9835W        W27359   2.080   8.101   3.248 -0.0991  0.3665 -0.3880
 9836W        W27360   3.454  10.145   0.421 -0.0493  0.1034 -0.0566
 9837W        W27361  18.335   0.835  14.725  0.0304 -0.2323  0.2807
 9838W        W27362   4.696   1.343  11.424  0.0704  0.1241  0.1379
 9839W        W27363   6.859   2.156  10.978  0.1207  0.2588  0.0968
 9840W        W27364   0.436   1.448   2.383 -0.3194 -0.1781  0.1785
 9841W        W27365  13.567   3.301  10.915 -0.1075  0.0023 -0.1282
 9842W        W27366  13.270   3.975  14.089  0.2404  0.1356 -0.1059
 9843W        W27367  13.495  10.124  13.411 -0.0006 -0.1177 -0.0786
 9844W        W27368  10.764   7.945  12.668 -0.2792 -0.0256 -0.0360
 9845W        W27369  16.038   0.222   0.488  0.1127  0.2950  0.4256
 9846W        W27370   0.370   9.707  14.602 -0.1254 -0.1721  0.2849
 9847W        W27371   9.592  14.678   4.653  0.0551  0.0077  0.0383
 9848W        W27372  17.198  13.571   0.590  0.0687  0.0663 -0.0184
 9849W        W27373   0.534  11.323  14.474  0.1883  0.1131 -0.2511
 9850W        W27374   8.312   3.413   3.770  0.0790  0.0987  0.1035
 9851W        W27375  16.347   2.561  14.984 -0.0696  0.3085 -0.4232
 9852W        W27376   7.582  18.150  13.468 -0.0515  0.0893 -0.1853
 9853W        W27377   2.020   0.971  14.790  0.3169  0.0075  0.0580
 9854W        W27378   1.163   0.212  12.906  0.0678 -0.0015  0.1348
 9855W        W27379  10.775   5.457  14.854 -0.0062 -0.0016 -0.0224
 9856W        W27380  10.023  12.828  12.071 -0.0427 -0.2398  0.0442
 9857W        W27381   5.359   4.296  11.834 -0.1436  0.0406 -0.0602
 9858W        W27382   4.820   3.893   0.651  0.2052  0.2713  0.0681
 9859W        W27383  16.288   2.411   4.423  0.1906  0.0675  0.0036
 9860W        W27384   4.727  12.273  15.580  0.0632  0.0821 -0.2864
 9861W        W27385  13.158   2.205   4.295  0.1627 -0.1809 -0.3317
 9862W        W27386  15.019   5.044  15.115 -0.0531  0.2189  0.0526
 9863W        W27387   5.754   8.226  14.398 -0.0053  0.0411 -0.2323
 9864W        W27388  14.582   7.462   2.915 -0.1499 -0.2350 -0.1321
 9865W        W27389   5.157   4.440  14.985  0.0119  0.1547  0.1587
 9866W        W27390   7.530  18.402  13.905  0.2587 -0.1108 -0.0385
 9867W        W27391  17.937   2.277  11.931 -0.0033 -0.1815  0.0768
 9868W        W27392   5.019   8.924   3.902  0.0744  0.1876  0.0992
 9869W        W27393   0.372  16.282   3.337 -0.2170  0.3241  0.0292
 9870W        W27394  15.907  11.943  13.018  0.0112 -0.0282  0.1496
 9871W        W27395   3.380   1.905   4.206 -0.3598 -0.2141 -0.0269
 9872W        W27396   7.322   2.784   2.245 -0.1058  0.0113  0.1773
 9873W        W27397   8.388  14.945  12.242  0.0566 -0.0124  0.1397
 9874W        W27398   1.990   1.350  14.403  0.1217 -0.0827  0.2352
 9875W        W27399  10.839   7.571  13.932 -0.3776 -0.1481 -0.0342
 9876W        W27400   4.747   7.410   1.082  0.2672  0.0499 -0.0896
 9877W        W27401   9.465  13.265   1.929 -0.1678 -0.0237  0.0400
 9878W        W27402   1.273   7.356   2.154 -0.3149 -0.0254 -0.0514
 9879W        W27403   6.747   4.104  12.956 -0.0180 -0.0918 -0.1493
 9880W        W27404   6.404  11.425  15.152 -0.1664  0.0899  0.3055
 9881W        W27405   9.935  12.903  15.175  0.0532  0.3347  0.4008
 9882W        W27406  15.595  11.648  13.271  0.1646  0.0896  0.2347
 9883W        W27407   5.739   8.947   3.356 -0.0708  0.2520 -0.0528
 9884W        W27408  15.398  16.931  12.036 -0.0251  0.0645  0.1730
 9885W        W27409  10.690   8.018  12.138  0.0374 -0.1645 -0.1737
 9886W        W27410  12.379   8.118   0.633  0.0012  0.2765 -0.4265
 9887W        W27411  12.333  11.213  14.080  0.0291 -0.0860 -0.2196
 9888W        W27412   0.145   2.411   3.996  0.1839 -0.0407 -0.1757
 9889W        W27413   1.136  15.737   3.269 -0.0708 -0.0897 -0.2186
 9890W        W27414  15.281  13.165   3.240 -0.2560  0.3639  0.0369
 9891W        W27415   2.697  16.617  13.058 -0.0806  0.0781 -0.0512
 9892W        W27416  12.555  18.174   2.157 -0.0984  0.1854  0.0487
 9893W        W27417   4.319   5.558   3.121 -0.2587  0.3217  0.2408
 9894W        W27418   3.303  16.607  11.132  0.2297 -0.0554  0.3403
 9895W        W27419   7.364  15.425   3.617  0.0200  0.3492  0.1391
 9896W        W27420  17.982  10.805   4.600  0.0390  0.0898 -0.1222
 9897W        W27421   4.210  17.524   4.542  0.3140 -0.0444  0.1457
 9898W        W27422   3.776   1.649   1.735  0.1682  0.3135 -0.0102
 9899W        W27423  15.609   5.661   1.626 -0.3984 -0.3017  0.0480
 9900W        W27424  17.948   8.287  14.932 -0.0042  0.0638 -0.0184
 9901W        W27425   2.682   9.853  12.283 -0.0751  0.0463  0.1466
 9902W        W27426   9.021   2.717   3.174  0.0052 -0.2511 -0.0465
 9903W        W27427   6.803  13.480  12.462 -0.1346 -0.2651 -0.0206
 9904W        W27428   2.172  14.204   5.267 -0.1179 -0.1591 -0.0033
 9905W        W27429   8.608   5.835   4.700 -0.3308 -0.2014  0.3747
 9906W        W27430  11.598   4.702   4.672 -0.0799  0.3778  0.0841
 9907W        W27431  15.573   5.339  13.326 -0.1208  0.1133  0.2262
 9908W        W27432  15.793  10.377  14.595 -0.1344 -0.0120  0.2883
 9909W        W27433  16.782   7.904  12.681  0.0576 -0.0456  0.0238
 9910W        W27434  15.567   7.830  15.135  0.0746  0.0254 -0.1409
 9911W        W27435  15.241   1.333  13.703 -0.1388 -0.0834 -0.2291
 9912W        W27436  17.026  10.258  13.786 -0.2022  0.0118 -0.1246
 9913W        W27437   5.297   8.784   2.925  0.0474 -0.1160 -0.0076
 9914W        W27438  10.265  13.930  11.417  0.0152 -0.2731  0.3328
 9915W        W27439   2.321   4.241   9.893 -0.0291 -0.2040  0.1416
 9916W        W27440  10.969   2.567   3.144 -0.0314 -0.0377 -0.0060
 9917W        W27441  11.147  11.172  13.962  0.0236 -0.1331  0.1528
 9918W        W27442   4.925  14.308  11.753 -0.0541 -0.0372  0.1050
 9919W        W27443   9.511  18.289   3.479 -0.2801  0.0181  0.2220
 9920W        W27444  13.483   0.151   3.189  0.1341 -0.2505  0.1498
 9921W        W27445   1.456   4.451   0.743  0.1435 -0.1943  0.3054
 9922W        W27446   0.524   2.407   1.343 -0.1585 -0.0168 -0.0532
 9923W        W27447   4.438  15.087   0.739  0.2376 -0.1424  0.2410
 9924W        W27448   3.881   3.041   1.164  0.1684  0.2851 -0.1434
 9925W        W27449  13.540   0.204  13.400 -0.1561 -0.0542  0.2444
 9926W        W27450  17.579  15.289  10.150 -0.0977  0.0018  0.1032
 9927W        W27451  13.210  15.370   2.452 -0.1295 -0.2464  0.2360
 9928W        W27452   3.871  15.468  12.163  0.0283  0.0887  0.0202
 9929W        W27453   7.429  10.301   0.720 -0.0840  0.1501  0.0282
 9930W        W27454  17.921  14.318   4.559  0.2942  0.0586 -0.0624
 9931W        W27455   1.958  18.425   3.613  0.1295  0.1196 -0.0135
 9932W        W27456  15.543   3.739  15.243  0.1396  0.1743  0.0792
 9933W        W27457  12.649   1.620   1.406  0.1405  0.2271 -0.4914
 9934W        W27458  13.336  14.167   3.570 -0.0068 -0.3017  0.2449
 9935W        W27459   4.458   9.164   0.352  0.5438 -0.0214 -0.1743
 9936W        W27460   7.680   3.891   1.846  0.0522  0.1764 -0.0606
 9937W        W27461   2.352  17.692   4.740 -0.0981 -0.0075 -0.3799
 9938W        W27462  13.933   9.922  11.323  0.0523 -0.1235 -0.0998
 9939W        W27463   5.968   8.525  12.330 -0.0743  0.1065  0.0307
 9940W        W27464   9.852  17.295  13.203 -0.0156 -0.2162  0.1286
 9941W        W27465  17.021  10.043   1.406  0.0446 -0.1218  0.0418
 9942W        W27466  12.546   7.750   2.305 -0.0929 -0.0286 -0.1456
 9943W        W27467   4.434  17.152  11.928 -0.1098 -0.0545  0.1959
 9944W        W27468  16.196  16.129  14.453  0.2940  0.0559  0.0522
 9945W        W27469  10.685  17.859   0.587 -0.0661 -0.1416 -0.2928
 9946W        W27470   0.154   8.629   1.115 -0.0730 -0.7367  0.0240
 9947W        W27471   2.240   5.291  12.126  0.1395  0.4688 -0.0483
 9948W        W27472   7.660  17.400   0.074 -0.0717 -0.1730  0.0188
 9949W        W27473   4.969   3.060  13.072  0.1107 -0.3176  0.4002
 9950W        W27474   7.501  13.757  13.695 -0.1630  0.2661 -0.1489
 9951W        W27475   2.398  17.462  11.094  0.1285 -0.0907  0.1075
 9952W        W27476   6.405  16.669  11.793  0.1073  0.4385 -0.2022
 9953W        W27477   2.947   1.397   1.697  0.0117 -0.2903  0.0841
 9954W        W27478   2.394  12.249  14.496 -0.0151 -0.2392  0.3126
 9955W        W27479  12.233  12.600   0.910  0.0851  0.2355 -0.0766
 9956W        W27480   6.716  17.209  12.400  0.1015  0.0179 -0.0135
 9957W        W27481  12.478   1.932  14.930 -0.2500 -0.0931 -0.2346
 9958W        W27482  12.441   0.028   3.646  0.1487 -0.0436  0.2034
 9959W        W27483   7.922   3.901   3.156  0.0199 -0.2008 -0.0605
 9960W        W27484   2.290  17.987   3.764  0.2950 -0.1460 -0.0289
 9961W        W27485   4.662   1.577  13.502  0.0495  0.1066  0.0848
 9962W        W27486  11.935   6.405   3.210  0.4376  0.2640  0.2425
 9963W        W27487   6.868   9.269  10.229 -0.1799  0.1741  0.0363
 9964W        W27488   0.250  14.654   4.454 -0.0134 -0.4262 -0.1959
 9965W        W27489   1.039  10.989   1.527 -0.1313 -0.0136 -0.2195
 9966W        W27490   6.559   7.854   2.633 -0.0456 -0.2699  0.4319
 9967W        W27491   0.887  10.003  12.176 -0.0900 -0.0455  0.2929
 9968W        W27492  18.426   4.011  15.655  0.0394  0.0388  0.0498
 9969W        W27493   2.972   3.855   3.833 -0.2680 -0.0307  0.1069
 9970W        W27494   1.153   2.086   1.998 -0.0142 -0.0196  0.1179
 9971W        W27495   4.673  14.288  12.190  0.2312  0.1393  0.1268
 9972W        W27496  18.157   7.598   3.616  0.1848  0.1738  0.1494
 9973W        W27497  12.617   3.565   3.457  0.3324 -0.0819 -0.0280
 9974W        W27498  10.770  16.847  13.574 -0.0932 -0.2643  0.2971
 9975W        W27499   6.075  17.953   1.681  0.1937  0.0262 -0.0414
 9976W        W27500   2.207   2.479  14.433 -0.2310 -0.1049 -0.1719
 9977W        W27501   5.288   8.898   1.153  0.1236  0.1997  0.0872
 9978W        W27502   6.892   5.037  12.612 -0.0817 -0.2595  0.1239
 9979W        W27503  18.471  14.878   5.943 -0.1715  0.3750  0.3014
 9980W        W27504   8.899  14.971   0.008  0.3871  0.0453  0.1920
 9981W        W27505   0.506  12.711   3.895 -0.0470 -0.1222 -0.1665
 9982W        W27506   8.321  14.555   2.631  0.0540  0.0470  0.0306
 9983W        W27507  13.083   6.938  14.426 -0.1772  0.0256 -0.1404
 9984W        W27508   4.502   4.721  11.049 -0.1280 -0.2528  0.1718
 9985W        W27509  15.612  15.411  12.294 -0.0108  0.1164 -0.0783
 9986W        W27510  10.825  15.494   5.217  0.0799 -0.1621  0.1810
 9987W        W27511   7.471  17.203   4.735 -0.4197  0.2951  0.0888
 9988W        W27512  16.659  17.587  14.720  0.0511  0.0249  0.0344
 9989W        W27513  13.065   7.151  13.420  0.1593  0.2004  0.0197
 9990W        W27514  12.310  13.027  12.392 -0.0010 -0.0159 -0.0310
 9991W        W27515  14.541  11.900  13.179 -0.1376  0.2053  0.1111
 9992W        W27516  14.046  17.414  14.164 -0.0940 -0.0497 -0.2391
 9993W        W27517   0.759   6.580  11.908 -0.0626  0.2108 -0.1300
 9994W        W27518   5.879  14.029   4.942  0.0914 -0.3722  0.0726
 9995W        W27519  14.576   1.139  12.720  0.1970  0.2175 -0.2015
 9996W        W27520  15.911   0.245  11.093 -0.2149 -0.1203  0.1783
 9997W        W27521   5.445  13.497  10.957  0.0794  0.0908  0.1515
 9998W        W27522   2.208  13.970  11.115 -0.1339 -0.2661  0.0286
 9999W        W27523   2.550   0.291  13.136 -0.1847  0.0949 -0.2734
10000W        W27524  15.814  10.105  10.677 -0.3092  0.2675  0.4304
10001W        W27525  16.299   4.044  15.362 -0.2525  0.0740  0.2351
10002W        W27526  15.184  18.221   5.041 -0.0981 -0.0714 -0.0205
10003W        W27527  16.120   6.148  14.728  0.1785 -0.0000  0.2567
10004W        W27528   5.578   0.775   5.182 -0.1512 -0.1587  0.1488
10005W        W27529   3.859  10.749  11.494 -0.1240 -0.2590  0.3494
10006W        W27530  13.790  17.830   2.729  0.1359 -0.2461  0.1173
10007W        W27531  17.077  11.271   1.696  0.2760 -0.0119  0.0241
10008W        W27532   2.358  13.442   0.840  0.0819 -0.0068  0.0661
10009W        W27533   3.065   2.871   4.356 -0.2049  0.1659 -0.3103
10010W        W27534  13.659  17.887   1.032  0.0550  0.0490 -0.1586
10011W        W27535   4.594  16.350   3.460  0.0930 -0.1616 -0.0593
10012W        W27536   0.961  14.346   4.906  0.3320 -0.2285 -0.1681
10013W        W27537   7.182   8.612   0.191 -0.2711  0.1780  0.1663
10014W        W27538   2.884   1.319  11.731 -0.2452 -0.2696  0.2502
10015W        W27539   2.310  13.039   2.364 -0.0632 -0.1580  0.5141
10016W        W27540   5.632  12.808   1.674 -0.5229 -0.1898 -0.2654
10017W        W27541   0.518   3.458  13.243 -0.1345 -0.1799  0.0439
10018W        W27542   8.419  15.344   0.809  0.3327 -0.3111 -0.0409
10019W        W27543   4.201   0.190   3.262 -0.0785 -0.2352 -0.0941
10020W        W27544  12.361  12.606  13.328  0.0826 -0.0365 -0.3649
10021W        W27545  17.241   2.006  14.781 -0.1353  0.0628  0.0828
10022W        W27546   4.611   2.466  13.141  0.2265  0.0391  0.0605
10023W        W27547  13.843   4.928   0.537 -0.1423 -0.0475 -0.0908
10024W        W27548  12.907  11.644   0.729  0.4349 -0.0851 -0.1556
10025W        W27549  11.822   4.310  11.096  0.0878  0.1004  0.0083
10026W        W27550  11.431   3.757  13.378  0.1095 -0.0103 -0.2431
10027W        W27551   9.527  17.042   0.291 -0.0920  0.2315  0.1808
10028W        W27552   3.372   3.047   2.697  0.1053  0.1763  0.0325
10029W        W27553   9.263  15.231   3.066 -0.2092 -0.1727 -0.1000
10030W        W27554   1.249  16.797  11.980  0.1337 -0.0175  0.1630
10031W        W27555   4.184  11.476  14.996  0.0850 -0.0446 -0.1874
10032W        W27556  17.794   8.219   1.021  0.0381 -0.1220  0.2298
10033W        W27557   9.207   2.618   3.702 -0.1563 -0.1760  0.0451
10034W        W27558  11.586   0.064  13.382 -0.1208  0.2423 -0.3040
10035W        W27559   1.841   1.255   1.109 -0.0828 -0.1135  0.1658
10036W        W27560   9.452  13.981  10.414 -0.0758 -0.0308  0.1732
10037W        W27561   5.869  17.149  15.696  0.2102 -0.1381 -0.0530
10038W        W27562  17.721   1.054  14.373  0.1156 -0.1660 -0.2873
10039W        W27563   6.926   9.442  12.587  0.2302  0.2676 -0.2054
10040W        W27564  17.964  12.213   3.772  0.1887  0.0189  0.2353
10041W        W27565  15.397   1.424   2.543  0.2432 -0.0796 -0.1517
10042W        W27566   7.742  13.008   4.661 -0.4465 -0.1729  0.0466
10043W        W27567  16.276  13.505  14.361 -0.0232  0.0884 -0.2239
10044W        W27568  11.259  13.532   3.262 -0.1958  0.0136 -0.0026
10045W        W27569  12.003   3.998   4.831  0.1468  0.0559 -0.0686
10046W        W27570   6.191   5.828   4.500  0.0616  0.1326 -0.1959
10047W        W27571   9.461  13.896  10.904 -0.2090  0.0113 -0.1282
10048W        W27572  12.112  15.676   5.294  0.1740  0.1919 -0.2133
10049W        W27573   3.292  14.076  13.009 -0.2250  0.0712 -0.1223
10050W        W27574   1.590  13.221   3.249 -0.0798 -0.1256 -0.0631
10051W        W27575   0.977  11.935  13.167  0.0847 -0.1377 -0.4596
10052W        W27576  15.052  16.746   5.033  0.0715  0.2606  0.0816
10053W        W27577  11.586   0.293   0.196 -0.0341  0.0353  0.1677
10054W        W27578   1.834   2.726  11.541 -0.0276  0.1214 -0.0408
10055W        W27579   6.491   5.211   5.156 -0.0494  0.1361 -0.0030
10056W        W27580   6.943  14.786   2.180  0.1009 -0.0308  0.0397
10057W        W27581  11.421  15.506  13.062 -0.0172  0.2827 -0.2436
10058W        W27582   0.759  10.906  15.429 -0.0831  0.1250  0.2534
10059W        W27583  18.139  12.577  14.526  0.2819 -0.0997  0.2219
10060W        W27584  10.728  11.957   4.824 -0.1788  0.1380 -0.1953
10061W        W27585   9.492   9.921   0.245  0.1278  0.1874 -0.2601
10062W        W27586   6.943  18.036  13.504 -0.0024 -0.1772  0.2620
10063W        W27587  13.063  17.376  14.052  0.1509 -0.3196  0.0501
10064W        W27588  13.538  13.914  12.504  0.1230 -0.1590  0.0010
10065W        W27589   5.886   6.798  12.457 -0.2197  0.2087  0.3366
10066W        W27590   3.075   8.426  14.052 -0.1166  0.0255  0.1651
10067W        W27591   1.489   3.266   3.468 -0.1727 -0.1137 -0.0058
10068W        W27592   9.626  14.506   3.596 -0.0264  0.0058  0.1315
10069W        W27593   8.784  12.332   1.354  0.0270 -0.1237  0.3699
10070W        W27594   0.831   8.564   1.783 -0.1932 -0.1862 -0.0315
10071W        W27595   4.630   1.508   3.354  0.2383  0.1277 -0.1056
10072W        W27596  12.020   9.998   0.081 -0.0962  0.0703  0.3372
10073W        W27597  10.080   4.103  12.526  0.1846 -0.1139 -0.1296
10074W        W27598   4.413  15.357  13.944 -0.2430 -0.0107  0.3026
10075W        W27599   3.565   9.066  15.179 -0.1200 -0.3299 -0.1817
10076W        W27600  15.924   8.690  13.694 -0.0364 -0.2230 -0.1053
10077W        W27601   3.033   4.526   1.987  0.0897 -0.0541 -0.0135
10078W        W27602   1.297   4.045   5.604 -0.0312  0.2986  0.1050
10079W        W27603   5.357  11.662   3.212  0.2601 -0.2063 -0.0294
10080W        W27604   3.640  10.534   4.440 -0.3560 -0.3129  0.2819
10081W        W27605   1.373   2.199  11.140 -0.0516  0.0606  0.3000
10082W        W27606  10.950   7.440  14.427  0.1553  0.0846  0.2093
10083W        W27607   4.860  13.983   4.780  0.1317  0.0195 -0.0013
10084W        W27608  12.986  12.800   1.251 -0.0669 -0.0655 -0.3686
10085W        W27609  17.262   7.366  10.430  0.0660  0.2633  0.1952
10086W        W27610   0.765   1.827   2.028  0.1404  0.0910 -0.1500
10087W        W27611  11.569   2.864   0.884 -0.0765 -0.0852 -0.1292
10088W        W27612   6.343   6.749   3.767 -0.1542  0.2284 -0.0027
10089W        W27613  12.159  14.702  14.243 -0.1066  0.0737  0.3234
10090W        W27614  10.663   3.024  11.786  0.1383 -0.1205 -0.1408
10091W        W27615  18.220  10.563   1.529  0.0719 -0.0770  0.1679
10092W        W27616   3.375  13.955  15.491 -0.1995  0.1119 -0.0938
10093W        W27617  12.746   0.837   1.315 -0.1236 -0.0850  0.0565
10094W        W27618   4.531  15.458  15.412 -0.1595 -0.3853 -0.0595
10095W        W27619   3.832  15.278  10.891  0.1580 -0.1619  0.0909
10096W        W27620   2.573  14.147   1.492  0.1437 -0.0212 -0.2919
10097W        W27621   2.733   4.977  14.545  0.0974 -0.1825 -0.0678
10098W        W27622   6.450   6.228  14.104 -0.1926 -0.2963 -0.1747
10099W        W27623  17.851   3.029   4.310 -0.0619  0.0947 -0.3189
10100W        W27624   5.768  13.065   4.877 -0.1040 -0.0927 -0.2387
10101W        W27625   8.163   4.769  14.943 -0.0125  0.0147  0.2145
10102W        W27626   8.207   4.259   2.107  0.1796  0.1456 -0.1127
10103W        W27627   7.677  13.075   0.953 -0.2662 -0.3990  0.0898
10104W        W27628   6.138  17.483   2.025  0.6241 -0.3352  0.0179
10105W        W27629   1.914  18.409   1.383 -0.1258 -0.2318  0.3037
10106W        W27630   1.957   1.528  11.397 -0.2634 -0.0657 -0.5504
10107W        W27631  15.148  14.322   0.701  0.2306 -0.0252 -0.0740
10108W        W27632  14.261  13.449   3.373  0.0853 -0.0187  0.1119
10109W        W27633  11.627  12.060   3.337 -0.2296 -0.0959  0.4054
10110W        W27634  17.996  11.448  10.971  0.0467  0.0855 -0.1222
10111W        W27635  18.095  10.082  11.013 -0.1351 -0.0256 -0.0688
10112W        W27636   1.533  14.504   1.539 -0.1839 -0.1812  0.0569
10113W        W27637   0.374  14.283  12.521  0.2539 -0.0404  0.1746
10114W        W27638   1.399  15.771  13.370  0.1984 -0.1349  0.2099
10115W        W27639   9.032  15.642   2.873  0.0113 -0.2802  0.0091
10116W        W27640  10.069  11.624   0.380  0.0855  0.3803  0.1332
10117W        W27641   0.710  17.710  10.436  0.2148 -0.2171  0.4291
10118W        W27642  10.828  16.658  15.114  0.2388 -0.2044  0.3298
10119W        W27643   5.013  15.544  10.303 -0.0194  0.1287  0.0174
10120W        W27644  13.994  17.521   4.344  0.1184  0.0451 -0.0754
10121W        W27645   4.624   5.015  12.564 -0.2311 -0.3530 -0.0823
10122W        W27646  11.874  16.842  14.458 -0.0673 -0.4545 -0.1826
10123W        W27647  13.123  10.823   2.228  0.0188  0.0111  0.2172
10124W        W27648  15.002  14.778   3.032  0.0748 -0.0473  0.2415
10125W        W27649   7.261  10.610  14.553 -0.0480  0.2687  0.0807
10126W        W27650   9.981   8.567  13.345 -0.0796  0.0786  0.0011
10127W        W27651   1.163   0.224  11.456  0.0029 -0.4219 -0.0207
10128W        W27652  14.731   2.038  11.140 -0.2225  0.0374 -0.0805
10129W        W27653   4.262  10.943  11.821  0.2299  0.1876 -0.2868
10130W        W27654  12.763   1.841  15.312 -0.1874  0.0951  0.1851
10131W        W27655   5.783  12.825  12.137 -0.0287 -0.0225  0.2221
10132W        W27656   3.662   7.651   1.426 -0.1919  0.0880  0.3520
10133W        W27657   8.920   5.421   1.356  0.2313  0.1233  0.0131
10134W        W27658   8.989  12.778  14.974 -0.0466 -0.1918  0.0759
10135W        W27659   4.262  15.547   0.513  0.1579  0.1222 -0.1761
10136W        W27660  13.258   8.437   2.571  0.0332 -0.1471 -0.1144
10137W        W27661   1.920  12.047   3.341  0.0807  0.1021 -0.0762
10138W        W27662  15.782   3.929  11.109  0.1288 -0.0386 -0.0522
10139W        W27663   3.924   2.006  15.472 -0.0986 -0.0872 -0.2822
10140W        W27664   6.605  11.359   3.046  0.0555  0.0550 -0.0985
10141W        W27665   0.651   1.355   4.003  0.2483 -0.0279  0.0763
10142W        W27666   2.114   1.295   3.326  0.2064 -0.0869 -0.1540
10143W        W27667   9.594  10.272  14.901 -0.4774 -0.1677 -0.1352
10144W        W27668   5.075   2.548   2.562 -0.0601  0.0756 -0.1196
10145W        W27669  10.379  16.928  12.479 -0.0811 -0.0832  0.1048
10146W        W27670  15.883  18.237  14.945  0.0736 -0.1182 -0.2348
10147W        W27671  13.150   2.173  12.060 -0.2341  0.0664 -0.0156
10148W        W27672   8.694  16.817  14.248  0.0305  0.0851 -0.0388
10149W        W27673   6.904   4.310  15.436 -0.0846 -0.0944  0.0145
10150W        W27674   1.331   5.632   2.537  0.0860 -0.0310  0.0464
10151W        W27675  17.742   9.204   3.096  0.2273 -0.0168  0.0825
10152W        W27676  17.504  17.125  14.500  0.4009  0.0369 -0.3097
10153W        W27677   0.721  13.665   4.389 -0.1989  0.0120 -0.0123
10154W        W27678   5.785   2.698   0.979  0.1070 -0.1092  0.0659
10155W        W27679  17.700  10.825  14.570 -0.1332 -0.0357  0.0799
10156W        W27680   3.655   1.591  14.181  0.1035  0.1402  0.1935
10157W        W27681   0.715  16.626   3.245 -0.0434 -0.5177  0.4596
10158W        W27682  15.469  14.842   3.663  0.1895  0.1708  0.1270
10159W        W27683  16.171  11.361  13.742  0.0143  0.1094  0.3045
10160W        W27684  10.538   2.357   3.302 -0.2739 -0.3112 -0.2873
10161W        W27685   1.877  10.830  13.062 -0.0803  0.2034 -0.3595
10162W        W27686   9.979   0.289   0.353 -0.1076  0.1715  0.0892
10163W        W27687   5.583   7.650  12.886  0.1684 -0.3324 -0.0769
10164W        W27688  11.449  17.545   4.603  0.1203  0.3046  0.0160
10165W        W27689   6.546  18.241  12.745  0.0770 -0.0843 -0.0396
10166W        W27690   7.387  12.727  14.224  0.4770 -0.1698  0.0943
10167W        W27691  16.611  17.034   1.721 -0.1673 -0.1515  0.0256
10168W        W27692   7.471   2.763   3.599  0.1798 -0.3053 -0.2017
10169W        W27693   5.947  18.197   0.854  0.1042 -0.1083 -0.1723
10170W        W27694  10.480  10.986   2.494  0.1689 -0.0292 -0.0387
10171W        W27695  11.356   2.826  13.771  0.0506  0.1825  0.0299
10172W        W27696   2.425  14.787  11.555 -0.0921  0.1149  0.0826
10173W        W27697  16.106   0.844   4.445 -0.0253  0.0703  0.0486
10174W        W27698  16.394  13.757   1.545 -0.0584 -0.1469 -0.3086
10175W        W27699   8.404  10.556   3.283  0.2816 -0.0438 -0.1889
10176W        W27700   4.286   5.959   0.218 -0.1734 -0.1505 -0.0540
10177W        W27701   2.716   8.670   2.697  0.0579  0.3071 -0.0268
10178W        W27702   7.690  14.453  14.441  0.0759  0.1910  0.2306
10179W        W27703   6.897  17.776  15.049  0.0817  0.2671 -0.2613
10180W        W27704   6.819   6.107  14.408 -0.0919 -0.2101 -0.1309
10181W        W27705   5.333   2.806  12.733  0.0629 -0.0438 -0.1403
10182W        W27706   7.452  11.541   3.617 -0.4037 -0.0276  0.0780
10183W        W27707   0.990  17.065   2.858 -0.1314 -0.0362 -0.1896
10184W        W27708   2.510  14.084   3.256  0.0805  0.0266  0.0230
10185W        W27709  13.678  11.793   4.487  0.1941  0.1321 -0.0596
10186W        W27710   8.232   2.603  15.379 -0.0958  0.1267  0.2176
10187W        W27711   8.420   6.998  15.183 -0.1199 -0.2049 -0.0115
10188W        W27712   9.665   7.371   0.683 -0.0757  0.0259 -0.0294
10189W        W27713  12.949  14.399   0.237 -0.2146 -0.1946  0.4930
10190W        W27714   7.526  11.545   3.102 -0.2077 -0.0631 -0.1695
10191W        W27715  16.046   0.996  13.600 -0.0411  0.1774 -0.0080
10192W        W27716  17.390  15.182   3.022 -0.0348  0.0757 -0.0222
10193W        W27717  17.874   9.764   0.673  0.1899  0.2138 -0.0104
10194W        W27718   1.140  15.492  12.894 -0.0467  0.2204  0.0316
10195W        W27719   6.274  16.021  10.126 -0.2916  0.0737 -0.1827
10196W        W27720  18.383   6.979  15.284 -0.0238  0.0510  0.0302
10197W        W27721   1.331   2.745   4.270 -0.3781  0.0087 -0.2743
10198W        W27722   0.256  10.604  11.452  0.0336 -0.0634 -0.1484
10199W        W27723  14.545   4.982   4.147 -0.0132 -0.0639  0.2019
10200W        W27724  13.041   8.587   2.116  0.0685 -0.1787 -0.2326
10201W        W27725  17.779   6.883  14.120 -0.1023  0.0097 -0.2097
10202W        W27726   0.634  11.516  14.021 -0.1225  0.3441 -0.0994
10203W        W27727   7.185   1.556   3.953 -0.1273  0.2531 -0.3989
10204W        W27728   5.264  11.149  15.544  0.1159  0.2449 -0.1513
10205W        W27729  15.878  14.684   1.228  0.1782 -0.2358 -0.0259
10206W        W27730  12.752  12.229  15.204 -0.1824 -0.2377  0.2066
10207W        W27731   9.121   7.992  13.033  0.2759 -0.0491 -0.0278
10208W        W27732  14.252   2.784   4.680 -0.2847 -0.0517  0.0058
10209W        W27733   6.905  16.394   1.709 -0.0053 -0.3786  0.2480
10210W        W27734   9.016  15.830  15.677 -0.0754  0.2251 -0.1553
10211W        W27735  11.255  11.036   0.913 -0.1224  0.0780 -0.0402
10212W        W27736   9.287   1.054   2.073 -0.3371 -0.1531  0.0238
10213W        W27737  10.864  16.935   3.866 -0.1140  0.0303 -0.0531
10214W        W27738   9.492   2.102   1.212  0.0462  0.2173  0.1600
10215W        W27739   9.368  14.308   1.260  0.0336 -0.4339 -0.0496
10216W        W27740   4.981  13.223   4.406 -0.1492  0.2153 -0.0402
10217W        W27741  17.338  11.373  11.697  0.0050 -0.0269 -0.0849
10218W        W27742   1.808  12.756  14.165  0.2445 -0.2313 -0.1221
10219W        W27743   8.717  16.874  15.624  0.0758  0.0904 -0.1492
10220W        W27744   6.797  10.974  15.573  0.1070 -0.1946 -0.1619
10221W        W27745  15.393   8.588  14.698  0.1202 -0.1756 -0.1467
10222W        W27746   2.665  14.299  14.800  0.4306 -0.0110 -0.2439
10223W        W27747   8.015  13.071  11.980 -0.2434  0.3057 -0.3239
10224W        W27748  16.309   5.439   0.772  0.0900 -0.2971  0.0963
10225W        W27749   2.252  15.082   0.024  0.0335 -0.1199 -0.4065
10226W        W27750   9.733  15.214  13.298 -0.2419  0.1492 -0.0825
10227W        W27751  12.179   8.989   0.914  0.0731 -0.1087  0.0513
10228W        W27752  10.020   2.372  12.205 -0.0250 -0.0564 -0.0038
10229W        W27753   2.544  14.616   0.654 -0.1047  0.0430  0.0763
10230W        W27754  15.350   4.357   3.781 -0.0524 -0.1499 -0.1979
10231W        W27755  16.434  14.556   2.057  0.0737  0.3438 -0.1528
10232W        W27756   3.133   3.739  15.334 -0.4315 -0.1919 -0.0781
10233W        W27757   0.107  10.259  13.728  0.0362  0.2897  0.0917
10234W        W27758   3.843  11.634   1.022  0.0720 -0.1902  0.2243
10235W        W27759   2.299  11.639   4.180  0.2140  0.1368  0.0982
10236W        W27760  14.471   9.987  13.288 -0.1010  0.0360 -0.0937
10237W        W27761  18.243   9.536  13.362 -0.2423  0.0209  0.1668
10238W        W27762  15.364   3.574   4.029 -0.1968 -0.2856  0.1791
10239W        W27763   2.699  16.163  12.428  0.1014 -0.2536 -0.1566
10240W        W27764   3.279  17.353  11.471 -0.0153 -0.3948  0.1798
10241W        W27765  18.306   8.872  15.640  0.2233 -0.1170 -0.3406
10242W        W27766   3.154   0.718   5.632 -0.0163  0.1450  0.1639
10243W        W27767   4.249   1.196   0.767  0.0392 -0.0795 -0.0479
10244W        W27768   8.395   7.549   3.052  0.4013 -0.0776 -0.0155
10245W        W27769   3.584   6.625   0.319 -0.1130  0.0257  0.0238
10246W        W27770  14.923  17.224   5.825 -0.3511 -0.0379 -0.2287
10247W        W27771  16.976   4.771  15.114  0.1140  0.1617 -0.5445
10248W        W27772  18.371   3.687  15.269 -0.0701  0.0521 -0.2489
10249W        W27773  12.578  14.690   2.746 -0.1358 -0.0285  0.0415
10250W        W27774  11.578   5.629  14.822 -0.5074 -0.0448 -0.0558
10251W        W27775   1.948   3.733   1.010 -0.4360 -0.0505  0.0468
10252W        W27776  10.280  11.296   4.869  0.2494 -0.1088 -0.0934
10253W        W27777   5.025  10.416   9.892  0.1950  0.1288  0.1434
10254W        W27778  11.057   0.899   4.540 -0.1519  0.0326 -0.2266
10255W        W27779   0.555   1.164  15.590 -0.1440  0.0992  0.0000
10256W        W27780   0.503  14.296   3.804  0.0648 -0.0326  0.0766
10257W        W27781  13.347  15.786  12.504 -0.1118 -0.1282  0.2718
10258W        W27782  14.237  16.491   0.577 -0.2463  0.0608 -0.0762
10259W        W27783   5.600  14.492   4.685 -0.0491  0.1465  0.1979
10260W        W27784  11.234   8.022   4.427  0.0989 -0.1216 -0.0872
10261W        W27785   0.679  16.127   0.970  0.1785  0.2856 -0.2961
10262W        W27786   2.075   8.084  15.515  0.2332 -0.0614 -0.1049
10263W        W27787  11.156   8.364   0.005 -0.0056 -0.0133  0.0221
10264W        W27788   3.426   0.444  13.268 -0.1168 -0.1285  0.0406
10265W        W27789  12.856  13.755  11.140 -0.0356  0.0879  0.1436
10266W        W27790  13.761  12.037   3.003  0.1779  0.0240 -0.0474
10267W        W27791  12.040  15.883   2.412 -0.3049 -0.0615 -0.1184
10268W        W27792  11.043  16.008   0.032 -0.0393 -0.0538 -0.0654
10269W        W27793   5.627  14.147   1.426  0.0165 -0.3047 -0.2249
10270W        W27794   3.087  12.689  11.575  0.0149  0.0659 -0.1274
10271W        W27795   7.086  18.301  12.367 -0.0270 -0.1494  0.0405
10272W        W27796   5.697  17.935   1.190  0.1235  0.1215  0.0396
10273W        W27797   6.244   0.967  11.499 -0.1307  0.2715 -0.1106
10274W        W27798  15.455   9.422  13.142 -0.3047 -0.4500  0.2005
10275W        W27799   9.151  17.423   0.500 -0.0582  0.0454  0.1107
10276W        W27800  14.505  13.854  11.575 -0.0131 -0.1365 -0.2445
10277W        W27801  17.622   7.667   1.165 -0.0354  0.3596 -0.0366
10278W        W27802  15.365  17.048  13.724  0.3074 -0.0830  0.0462
10279W        W27803  15.238   6.429   2.102 -0.1046  0.2119  0.0319
10280W        W27804   1.021  15.550  14.522 -0.0289  0.0050  0.3433
10281W        W27805   3.175   4.099  12.869  0.0384 -0.0734 -0.0804
10282W        W27806   9.195  11.718  10.396  0.0674 -0.2841 -0.1632
10283W        W27807  12.185  11.357  12.068 -0.0934  0.1637 -0.0984
10284W        W27808  17.121   6.533  15.278 -0.5750  0.2997  0.0614
10285W        W27809   3.852  15.680  11.695 -0.0930 -0.0949  0.4903
10286W        W27810   3.236  13.868  10.319 -0.1433 -0.0037  0.1549
10287W        W27811  13.854   0.763   2.180  0.0676 -0.0870  0.1758
10288W        W27812   6.268  10.504   3.101 -0.2720 -0.0971 -0.0393
10289W        W27813   5.136   0.816   4.376  0.2510  0.2330 -0.1357
10290W        W27814   7.901   7.011  14.059 -0.3714 -0.0430  0.1422
10291W        W27815   7.279  17.603  11.724 -0.0102  0.2483 -0.1768
10292W        W27816  11.370  13.029   1.301  0.0253  0.4143  0.2186
10293W        W27817   6.086   3.353  10.999 -0.1776 -0.1527 -0.0503
10294W        W27818   4.860   5.925  12.309 -0.1689  0.0310 -0.0425
10295W        W27819  15.402  16.294   1.299  0.0271  0.0580  0.3104
10296W        W27820   7.782   6.642   5.333  0.2138  0.2081  0.0907
10297W        W27821   3.207   7.269  12.326  0.1166  0.3323 -0.2466
10298W        W27822  18.026  16.378   4.515 -0.1324  0.1297  0.1208
10299W        W27823  14.013   7.024  15.146 -0.0895  0.1130  0.1183
10300W        W27824  11.596  12.357   1.357 -0.4465  0.1546  0.2786
10301W        W27825  11.503   8.401  14.789  0.1613 -0.1179 -0.4576
10302W        W27826  18.308  16.595   0.850 -0.2618 -0.0791  0.2033
10303W        W27827   3.165  15.226   2.216 -0.0355  0.0701  0.0352
10304W        W27828   0.767   5.047   3.573  0.0222  0.1353 -0.0884
10305W        W27829   6.557  10.799   1.564 -0.3256  0.0618 -0.0155
10306W        W27830   7.322   6.007  13.220 -0.0102 -0.0232 -0.0081
10307W        W27831   0.132   9.235  13.664 -0.0269  0.3101  0.0462
10308W        W27832   3.786  11.628  13.375 -0.1710  0.2099 -0.1820
10309W        W27833   6.897   0.737  14.468 -0.0722 -0.2683  0.0375
10310W        W27834   0.546  13.902  12.244 -0.0267  0.0850  0.0762
10311W        W27835   2.282   9.682  13.702 -0.0103  0.0494 -0.0125
10312W        W27836   5.878  11.585  14.280  0.0887  0.3975 -0.2445
10313W        W27837   2.544   8.370   3.046 -0.0740  0.1337  0.1856
10314W        W27838  16.955  18.286  12.527 -0.1408  0.1716 -0.1094
10315W        W27839   8.390  11.702  11.095  0.1570  0.3254 -0.2628
10316W        W27840   9.062  13.321   1.286  0.1265 -0.1757 -0.0420
10317W        W27841   8.206   4.763  12.850 -0.0655  0.0864 -0.0194
10318W        W27842   8.372   2.971  11.112 -0.2518 -0.0689  0.1540
10319W        W27843   5.043  17.057  14.192  0.4369 -0.0358 -0.2680
10320W        W27844  11.402   9.391   4.327 -0.0411 -0.0270 -0.0327
10321W        W27845  10.347  16.750  14.755  0.3249 -0.3991  0.0457
10322W        W27846   5.570   3.570  13.475  0.3308 -0.0314  0.2432
10323W        W27847   4.318   5.575  13.660  0.0441  0.1926 -0.0407
10324W        W27848   2.776  14.646   5.827  0.2481  0.0242  0.0765
10325W        W27849   5.280  10.035  10.905  0.1613 -0.0021 -0.3382
10326W        W27850   6.943  12.403   4.528  0.1402 -0.0605 -0.1776
10327W        W27851   5.569   0.637   0.224 -0.2326 -0.1894  0.1978
10328W        W27852  14.628   9.992  12.129 -0.0494 -0.1217  0.1833
10329W        W27853   0.436   7.929  13.227 -0.2313  0.2264  0.1577
10330W        W27854   0.204   3.467   4.546 -0.1680  0.0573  0.3557
10331W        W27855   2.077  11.532  12.620 -0.4633  0.2467  0.5038
10332W        W27856   1.101  16.726   0.252 -0.3738  0.0670 -0.0322
10333W        W27857  12.126  11.170  13.619  0.1765  0.1589  0.3413
10334W        W27858   8.718  14.646  11.427  0.2562  0.0707  0.2740
10335W        W27859   3.993   2.417   1.582  0.3189 -0.2306  0.1647
10336W        W27860  11.074   2.813   0.647 -0.0706 -0.3191 -0.0504
10337W        W27861   7.198  15.556  15.534 -0.1808 -0.2072 -0.0547
10338W        W27862  12.705  15.225   4.086  0.0775 -0.1860 -0.0599
10339W        W27863  14.693   3.618  15.419 -0.0569  0.1750  0.2408
10340W        W27864  17.102   1.465   1.380 -0.0821  0.0428  0.1380
10341W        W27865   7.869   4.786  11.333  0.0261  0.3770 -0.1001
10342W        W27866  10.773   2.404   2.696  0.1554 -0.0580  0.0288
10343W        W27867  11.023  18.277  14.118  0.0609 -0.0613 -0.1572
10344W        W27868   2.181  16.350   2.972 -0.0403 -0.0327  0.1197
10345W        W27869  15.080  14.196   1.244  0.0451 -0.1572  0.1197
10346W        W27870   9.530   1.442  12.793  0.1312 -0.1264  0.1613
10347W        W27871   5.274  15.735   2.253 -0.4436  0.0292 -0.1289
10348W        W27872  14.636   8.735  11.895 -0.0501 -0.0774 -0.2837
10349W        W27873  15.909  16.868  15.438  0.1911  0.1195  0.0329
10350W        W27874   0.334   2.670  10.777 -0.2349 -0.1193  0.0910
10351W        W27875   2.311  15.134  11.161 -0.0478 -0.0152 -0.0657
10352W        W27876   3.398   9.778  15.474  0.0527 -0.3253  0.0432
10353W        W27877  18.014  12.921  13.336 -0.0516  0.0856  0.0879
10354W        W27878  14.025   3.411  12.808  0.1704  0.0569 -0.1567
10355W        W27879   9.132   4.214   0.943 -0.0437  0.3216 -0.2780
10356W        W27880   8.313  15.087   4.017  0.1146 -0.0403 -0.0107
10357W        W27881  13.603  15.616   2.805  0.1563  0.0610  0.0524
10358W        W27882  10.869  15.726   1.019  0.3952 -0.0751 -0.1091
10359W        W27883   6.865  16.487  11.686 -0.3375 -0.3167  0.1507
10360W        W27884   2.546  18.155  12.866 -0.4588  0.0541 -0.1170
10361W        W27885  11.089   4.682  12.822  0.4238  0.1314 -0.3202
10362W        W27886  17.204   1.671  14.186  0.1644  0.0187  0.0674
10363W        W27887   2.458   6.797  14.939 -0.0533 -0.2192  0.3147
10364W        W27888   5.670   8.922  12.190 -0.1832 -0.1922 -0.0630
10365W        W27889  14.308   8.348  10.985 -0.0347  0.2714  0.0754
10366W        W27890   2.317   9.678   1.330  0.0525 -0.1329  0.0293
10367W        W27891   2.675   7.645   3.659  0.0333  0.0983  0.0219
10368W        W27892  11.608   1.048  14.822 -0.3085 -0.1886 -0.2146
10369W        W27893   4.100  13.673   0.848 -0.1054  0.1612  0.0255
10370W        W27894  13.557   9.637  11.565  0.2655  0.3232  0.0845
10371W        W27895   8.928   6.071   1.784  0.1145 -0.1372 -0.0194
10372W        W27896   2.157   0.773   3.148  0.1751 -0.1826 -0.0422
10373W        W27897  13.790  14.245  11.964 -0.0248 -0.0065 -0.2431
10374W        W27898   8.253   5.480   2.295  0.1453 -0.1117  0.1505
10375W        W27899  13.241   6.149  10.927  0.2576  0.0391 -0.0100
10376W        W27900   3.142  17.630   3.668 -0.2813  0.0214  0.0494
10377W        W27901   9.653  17.149   1.536  0.0247 -0.1785 -0.2055
10378W        W27902   4.047  10.024  12.388  0.3211 -0.0146 -0.2470
10379W        W27903   4.134   4.731  13.251 -0.1239  0.3739  0.1091
10380W        W27904  17.403   3.301   0.975 -0.0714 -0.0497 -0.0619
10381W        W27905  17.126  13.114  14.897  0.3030 -0.0549  0.1547
10382W        W27906   0.473  18.111   2.818  0.3266 -0.1171 -0.3151
10383W        W27907   6.010   3.094  15.281  0.3155  0.3325  0.1690
10384W        W27908  14.601   0.914  15.091 -0.1690 -0.2955 -0.2787
10385W        W27909   1.627   4.298   1.340  0.0553 -0.2470 -0.0529
10386W        W27910   0.383   5.875  15.702  0.0879  0.3764  0.2709
10387W        W27911   9.541   8.359  13.336 -0.0875 -0.3191  0.0248
10388W        W27912   6.033   6.371  12.055 -0.2472 -0.0079 -0.2394
10389W        W27913  15.661  16.101   0.879 -0.0434 -0.4523 -0.0447
10390W        W27914   8.338   9.331  11.762 -0.1534 -0.0145 -0.0202
10391W        W27915  14.533  10.734  15.220  0.1983 -0.0593 -0.0066
10392W        W27916  18.327   3.802   2.516 -0.5095 -0.0014 -0.0336
10393W        W27917  14.844  16.746   4.574  0.1759  0.1607 -0.1771
10394W        W27918  13.394  10.477  11.906  0.3894  0.0540  0.0714
10395W        W27919   0.992  14.968  11.838  0.1746 -0.4307  0.3941
10396W        W27920  11.648  10.810   1.777  0.1164  0.1996 -0.0705
10397W        W27921   4.936  12.721   4.558 -0.0459 -0.1258  0.2567
10398W        W27922   4.473  17.306   3.504 -0.0657 -0.2572 -0.0628
10399W        W27923  14.352   5.552   2.029 -0.0711 -0.3701 -0.1862
10400W        W27924   8.742   8.284  13.163  0.2213  0.1545  0.0936
10401W        W27925  10.289   4.924   3.060 -0.0717  0.0491  0.4176
10402W        W27926   8.060  15.214  12.511 -0.0588  0.4973  0.1559
10403W        W27927  17.566   0.044  13.097  0.0447 -0.0319 -0.0680
10404W        W27928   1.402   3.653  13.056 -0.1715 -0.1692 -0.0239
10405W        W27929  11.624   8.971  12.466 -0.2233  0.3435  0.1241
10406W        W27930  15.234   7.446  11.855 -0.1539  0.1551  0.0711
10407W        W27931  15.630  18.101   1.213  0.0770 -0.1574 -0.3503
10408W        W27932   4.444  11.311   2.323  0.1651 -0.3202  0.1574
10409W        W27933  15.456  11.800   2.702  0.0517  0.0649  0.1152
10410W        W27934   3.837  17.307  15.063  0.0844 -0.3064 -0.0195
10411W        W27935  16.355  10.042  13.038 -0.3488  0.0154  0.4037
10412W        W27936  11.701  14.730  15.714  0.2521 -0.1554 -0.0380
10413W        W27937   0.543   1.763  15.499 -0.2257 -0.3304 -0.3468
10414W        W27938  16.909   9.124   3.932 -0.1275 -0.0589 -0.0772
10415W        W27939  15.375   1.003  12.366  0.3715 -0.2299 -0.2875
10416W        W27940  16.374   5.721   0.294 -0.2376  0.0677  0.2844
10417W        W27941   4.183  11.357   0.674  0.3826 -0.2548 -0.2016
10418W        W27942   2.276   6.295   2.426 -0.1272 -0.3220  0.1009
10419W        W27943   2.976   0.038   0.678  0.3781 -0.1487  0.2351
10420W        W27944  12.737  17.922   3.119  0.1139  0.3960  0.0288
10421W        W27945  11.797   1.539  12.290  0.3051 -0.0291  0.1796
10422W        W27946   5.898  10.565  14.605 -0.1649 -0.2496 -0.2377
10423W        W27947  16.018   2.628  13.244  0.1428  0.2499 -0.2147
10424W        W27948  13.953  15.436   6.174 -0.2838  0.1976 -0.2050
10425W        W27949   8.992   9.464   1.946  0.1802  0.1032 -0.2613
10426W        W27950  17.214   3.682  10.894  0.1507  0.1520  0.1406
10427W        W27951  13.401   6.215  13.316 -0.0650 -0.1026  0.1367
10428W        W27952   3.932   8.085  15.282 -0.2626  0.1393 -0.1960
10429W        W27953   3.196   0.101   1.193 -0.2487 -0.1854  0.3002
10430W        W27954  16.772  15.877   1.493 -0.4095 -0.1990 -0.1852
10431W        W27955  17.851   1.493  14.195  0.0866  0.1284 -0.1143
10432W        W27956  15.272   8.599   1.287 -0.2686  0.0813 -0.0978
10433W        W27957   2.380   9.306   4.004  0.0446 -0.1361  0.2196
10434W        W27958   5.396   9.667  15.494 -0.0252  0.2886  0.1452
10435W        W27959   3.736  11.739   3.476 -0.1246 -0.0633  0.1162
10436W        W27960  16.350  12.247   5.105 -0.2906  0.2995  0.2388
10437W        W27961  15.480  11.514  14.518  0.3931 -0.0573 -0.1134
10438W        W27962   3.613   7.639  13.158 -0.0158  0.0163 -0.0734
10439W        W27963   2.100  10.037   0.219  0.0532  0.2637 -0.2603
10440W        W27964  16.891   0.915   4.043  0.2876  0.2957  0.2149
10441W        W27965  11.155  12.662   5.408  0.0498 -0.1405  0.2524
10442W        W27966  14.202   1.677  15.349  0.0633  0.3795  0.2849
10443W        W27967  18.486   2.384  14.135 -0.0012 -0.1516 -0.0971
10444W        W27968   7.046  13.631  15.075  0.0896 -0.1183  0.0643
10445W        W27969  13.626   9.707  12.277  0.1940  0.2026  0.1717
10446W        W27970   7.347   9.191  15.226  0.0003 -0.2978  0.1405
10447W        W27971  14.188  16.853   2.409  0.2100  0.1883 -0.1364
10448W        W27972  12.950   7.303   0.594 -0.2302  0.3907 -0.3046
10449W        W27973   2.383  12.659   2.657 -0.1410 -0.1498 -0.1291
10450W        W27974   8.560   0.222   2.788 -0.1792 -0.1478 -0.4060
10451W        W27975   2.778   0.641  13.826  0.0550 -0.4526  0.1078
10452W        W27976  15.265   0.523   0.444 -0.3554 -0.0331 -0.3943
10453W        W27977  16.923   7.828  14.599 -0.0044  0.2852  0.1756
10454W        W27978  12.969   2.568   0.267  0.0634 -0.0966  0.0645
10455W        W27979   8.890  12.450  14.168 -0.2574 -0.1662 -0.2081
10456W        W27980   4.217  17.247  10.823 -0.1072 -0.1278  0.1180
10457W        W27981  16.874  18.139   2.759 -0.0481 -0.0326 -0.0891
10458W        W27982   6.108  17.331  13.419  0.1299 -0.0024  0.1392
10459W        W27983   2.597   1.142  13.430  0.1577  0.2291  0.1933
10460W        W27984   1.391   5.800   4.664  0.1084  0.0786  0.0864
10461W        W27985  17.417  13.960  11.413  0.0682 -0.1632 -0.0340
10462W        W27986   3.250   6.747   2.595 -0.2586  0.2836  0.0651
10463W        W27987   6.199   5.533  10.576 -0.2027  0.2590  0.1272
10464W        W27988  14.056  10.258   5.472  0.0181  0.2712  0.0617
10465W        W27989   0.144   3.525   0.836 -0.0955  0.0833  0.0403
10466W        W27990  17.773   9.429   3.542  0.2827  0.1951  0.2063
10467W        W27991  15.266  11.709   2.193 -0.1422  0.0729 -0.0760
10468W        W27992   7.264  17.760   2.816  0.1563  0.1712  0.0151
10469W        W27993   7.577   7.644  15.260  0.2085  0.0485  0.3112
10470W        W27994  12.654   2.222  12.070  0.1620 -0.2150 -0.0085
10471W        W27995  16.422   8.515  11.915 -0.0241  0.0418 -0.0716
10472W        W27996   7.796  14.134   3.543  0.0819 -0.0830  0.0765
10473W        W27997   9.461  14.031  15.655  0.1014 -0.1546 -0.1550
10474W        W27998  15.056  11.910  15.510  0.1069 -0.2162  0.0272
10475W        W27999  10.257  16.002   5.280  0.3676  0.2135 -0.1546
10476W        W28000  14.129   9.756  10.794  0.1495 -0.1973  0.0068
10477W        W28001   8.367   5.974   0.744  0.0123  0.2476 -0.1438
10478W        W28002   7.258  15.890   3.629  0.2613 -0.0831 -0.0640
10479W        W28003   0.432   1.657   2.850 -0.2840 -0.0120 -0.1468
10480W        W28004   3.049  11.779  11.033  0.2409  0.3646  0.3253
10481W        W28005   1.960  17.146   4.460  0.0372 -0.1956  0.0722
10482W        W28006  10.872  15.786  11.798 -0.1813  0.2200 -0.3338
10483W        W28007  16.068  16.166   4.866 -0.0181  0.0945 -0.2962
10484W        W28008   4.826   7.840  14.338 -0.2033 -0.1609  0.1676
10485W        W28009   0.482   6.270   2.188  0.3216 -0.0670  0.1243
10486W        W28010   6.530   6.870  15.592 -0.1348 -0.1830 -0.2974
10487W        W28011  12.102  12.499   2.115 -0.1341 -0.0987 -0.1354
10488W        W28012  17.571  18.039  13.247 -0.0611  0.2129  0.0924
10489W        W28013  16.544   4.952   0.702  0.1809  0.1898  0.1581
10490W        W28014  17.524   3.939   0.264  0.3187 -0.0078 -0.2716
10491W        W28015   4.308  17.847  15.637  0.3840  0.1108 -0.1102
10492W        W28016   7.600   3.019   1.853  0.0042  0.3056 -0.1485
10493W        W28017  18.486   9.192  12.816  0.0114  0.1122  0.0529
10494W        W28018   5.850   5.335   3.508  0.1582  0.1432 -0.0250
10495W        W28019  15.481   1.399  14.911 -0.1131 -0.1683 -0.0530
10496W        W28020  10.541   2.150  14.120  0.4833  0.0344 -0.0448
10497W        W28021  10.446   6.827   2.134  0.4804  0.0250 -0.0337
10498W        W28022  18.173  10.599   2.093  0.2521 -0.1163  0.3285
10499W        W28023  11.136   9.212   3.885 -0.1723  0.0381 -0.0218
10500W        W28024   8.769   6.527   1.356  0.3591  0.2794  0.1779
10501W        W28025  14.224   8.839  11.158 -0.0571 -0.3350 -0.0991
10502W        W28026   1.997   1.768  13.736  0.0156  0.2421  0.4015
10503W        W28027  13.233  12.305  15.154  0.2032  0.2457  0.2458
10504W        W28028  13.771   2.922   0.739  0.0328  0.1533  0.0661
10505W        W28029  15.231   3.932  12.657 -0.1506 -0.1228  0.1637
10506W        W28030   1.177   2.492   4.951  0.1325  0.1630 -0.1051
10507W        W28031  16.393   3.193  14.194  0.0886  0.1065  0.0575
10508W        W28032   9.598  15.768  13.944  0.2079  0.0741 -0.0112
10509W        W28033   2.316  14.207  15.690 -0.2778  0.3092 -0.0493
10510W        W28034   4.951   1.981  14.259  0.2236 -0.1344 -0.0565
10511W        W28035   2.411   4.334  15.070 -0.0534  0.0135 -0.4296
10512W        W28036  15.660   0.592   0.145  0.0486 -0.0404  0.2899
10513W        W28037   7.462  16.986   1.652 -0.0602  0.0155  0.1596
10514W        W28038   8.801   2.783  11.348  0.0916  0.1133  0.0437
10515W        W28039  16.062   7.611   1.245  0.1378 -0.0004 -0.2019
10516W        W28040   6.226  13.636  12.062  0.1565 -0.0822  0.4083
10517W        W28041  14.205   4.904  11.137  0.1657 -0.1488  0.1995
10518W        W28042  12.629  10.753   2.222 -0.1419  0.2485 -0.0013
10519W        W28043   9.167   4.725  12.818  0.0308  0.1607 -0.2326
10520W        W28044  18.320  11.132   0.005  0.0864 -0.3739 -0.0228
10521W        W28045  15.463   8.791  12.561 -0.0626 -0.0120 -0.1239
10522W        W28046  14.704  15.325   2.277 -0.0809 -0.0018  0.1117
10523W        W28047   9.555   7.802  14.599 -0.3642 -0.2299 -0.2343
10524W        W28048   2.109  17.405  11.951  0.0074  0.1299 -0.0392
10525W        W28049   2.103   3.171  14.985 -0.1279  0.1545  0.3503
10526W        W28050  15.332   9.590  15.039  0.1339 -0.0534  0.1742
10527W        W28051  13.474  10.210   4.016  0.0424 -0.0242 -0.1465
10528W        W28052  11.801   3.706  14.714 -0.0282 -0.1947 -0.0179
10529W        W28053   3.636   8.135  14.900 -0.0394 -0.2206 -0.3698
10530W        W28054  11.350   0.970  11.317 -0.1385 -0.2371  0.2050
10531W        W28055  17.754  10.703  10.395 -0.1478 -0.0296  0.0959
10532W        W28056  14.584  12.279  10.954 -0.0501  0.1395  0.3506
10533W        W28057  16.470   7.239  13.620 -0.0079  0.2781 -0.0695
10534W        W28058   0.878   2.031  14.724 -0.2561  0.0721 -0.0611
10535W        W28059  11.476  14.978  11.702  0.0237 -0.1445 -0.1092
10536W        W28060  11.125  14.631  13.656 -0.2169 -0.0133 -0.1378
10537W        W28061   0.490   2.663   0.146 -0.0204 -0.0107 -0.0216
10538W        W28062   4.063   5.153   0.626  0.2016 -0.0115 -0.0580
10539W        W28063  16.513   9.045  12.515  0.2899  0.1232 -0.1352
10540W        W28064  15.369   9.883  12.903  0.1040 -0.3996  0.0552
10541W        W28065   3.309  17.403  12.570  0.1129 -0.2217 -0.1605
10542W        W28066   0.610   8.694  11.595 -0.0231 -0.0035  0.1295
10543W        W28067  11.701   0.880   2.315 -0.0326  0.2808  0.1626
10544W        W28068  12.081   2.750  14.871  0.2508  0.0675 -0.0018
10545W        W28069  14.900   8.602   5.002 -0.0128  0.0307  0.0425
10546W        W28070   4.037   9.092   0.649 -0.0560 -0.1169 -0.0416
10547W        W28071   7.423   3.141  12.328  0.2289 -0.3001 -0.0669
10548W        W28072   1.696   6.255   0.134  0.4333 -0.2629  0.0155
10549W        W28073  12.610  18.011   0.919 -0.0409 -0.0266 -0.1826
10550W        W28074  15.787   9.876  15.188 -0.0337 -0.0794 -0.3212
10551W        W28075  14.714   3.216  12.209  0.0840  0.1283 -0.0185
10552W        W28076   5.967  14.906   0.786  0.3072 -0.0503 -0.2581
10553W        W28077  17.897   0.435   4.853  0.2627  0.1809 -0.1366
10554W        W28078   7.654  16.045   1.835 -0.0877  0.0913  0.2442
10555W        W28079  11.173  14.129   1.316 -0.1878  0.2102  0.0947
10556W        W28080   5.271   5.042   0.741 -0.1525 -0.0838 -0.0276
10557W        W28081   1.664   6.782   2.826  0.3595  0.1907  0.3136
10558W        W28082  12.666  10.350   0.330  0.1090 -0.0958 -0.2701
10559W        W28083   4.492   8.700  10.778  0.3832 -0.3899  0.2110
10560W        W28084   6.574   7.121   3.628  0.0499  0.0765 -0.1411
10561W        W28085   6.803   7.434  10.491 -0.1113 -0.3167  0.0866
10562W        W28086  14.550  10.466  14.812  0.0700  0.0082 -0.0265
10563W        W28087   2.922  12.673  10.881 -0.4324 -0.1633 -0.2188
10564W        W28088   5.730   1.812   3.582 -0.3128  0.0672 -0.3451
10565W        W28089  18.206  11.076   1.911  0.0448 -0.1260  0.4459
10566W        W28090  16.358   2.999  14.661  0.0923 -0.0343  0.3238
10567W        W28091  10.192   3.394  15.304  0.1226 -0.1393  0.0752
10568W        W28092   7.140  14.741  10.801  0.2194  0.1606 -0.0215
10569W        W28093   9.559   8.159   4.025  0.1076 -0.0122 -0.2973
10570W        W28094   5.293  11.086  10.935  0.2898  0.1563  0.0754
10571W        W28095   2.001  11.850  14.294  0.0379  0.1423  0.0191
10572W        W28096  11.068  10.800   1.430  0.1549 -0.1715 -0.0867
10573W        W28097  17.032  15.945  14.258  0.2675  0.0151 -0.0596
10574W        W28098  14.251  10.738   0.229 -0.2641 -0.1480 -0.0071
10575W        W28099   1.431   6.097  13.976 -0.3735  0.0550 -0.0183
10576W        W28100   4.628   1.070   4.814  0.1218  0.2946 -0.3704
10577W        W28101  16.801   4.175   3.165 -0.0009  0.0735  0.0904
10578W        W28102   2.002   1.145   3.809  0.1138 -0.4670 -0.0019
10579W        W28103   9.005   3.661  11.746  0.0780 -0.0899  0.1450
10580W        W28104  11.756  11.554  14.499  0.1778 -0.0601 -0.0200
10581W        W28105  13.981   9.736  11.853  0.3037 -0.0388 -0.0615
10582W        W28106   8.273   3.839   1.168  0.1696 -0.1217  0.4478
10583W        W28107  15.269   2.027  11.760 -0.1784 -0.2812 -0.3069
10584W        W28108   7.143   5.144   0.421  0.0224  0.1206  0.1528
10585W        W28109   0.638  12.494   0.749  0.0546  0.1985  0.1732
10586W        W28110   4.827   8.909  12.013 -0.1161 -0.2090  0.3157
10587W        W28111  11.693  18.140  12.358  0.2261  0.2410 -0.1662
10588W        W28112   5.459  17.122   3.146 -0.2273 -0.1713 -0.1375
10589W        W28113  10.258   6.608   4.865  0.2533  0.1842  0.2953
10590W        W28114   9.418  10.601  14.454 -0.1520  0.4635  0.1354
10591W        W28115  16.557   4.589  12.442  0.1983 -0.1764 -0.1250
10592W        W28116   1.104   0.802  11.541  0.2704 -0.0328 -0.0837
10593W        W28117   9.660  12.035   2.721 -0.0025  0.1897 -0.2173
10594W        W28118  13.536   5.925   2.945  0.1881 -0.0808  0.1575
10595W        W28119  17.270   7.746   4.625  0.0480 -0.2512 -0.0666
10596W        W28120  13.694  11.711   0.611  0.0901 -0.0021 -0.1168
10597W        W28121  17.696  11.011  11.742 -0.3240  0.2541 -0.1122
10598W        W28122  17.602   8.492  15.530 -0.5820  0.0449 -0.1100
10599W        W28123  13.224  13.554  12.744  0.0012  0.1973  0.4038
10600W        W28124   8.263  12.054   4.955  0.1002 -0.2308 -0.1093
10601W        W28125  10.085   8.289  10.513  0.0476  0.2321 -0.1681
10602W        W28126   7.990   5.790  14.987 -0.3231 -0.1881  0.5313
10603W        W28127  11.338   3.774   2.833 -0.0341 -0.0492 -0.0271
10604W        W28128   9.044   3.528  15.001 -0.1006  0.0332 -0.0832
10605W        W28129   7.080   3.764   3.167  0.3147 -0.0202  0.5092
10606W        W28130  13.149   4.773  11.132 -0.1183  0.2302 -0.2730
10607W        W28131   8.106   6.804   2.970 -0.2602 -0.0158  0.1674
10608W        W28132  10.238  15.893  10.528  0.2730 -0.2534  0.1168
10609W        W28133   7.449   6.966   2.514  0.1334  0.2012  0.2097
10610W        W28134  15.936   6.521  13.067 -0.1591 -0.0835 -0.0221
10611W        W28135   3.751  16.698   3.630  0.1799 -0.1240 -0.2183
10612W        W28136   4.221  12.994   1.142 -0.1455  0.2970 -0.0842
10613W        W28137   3.182  14.649  14.019  0.2217  0.2267  0.0119
10614W        W28138   9.782  14.715   2.175 -0.2389 -0.1107 -0.1548
10615W        W28139   4.750  15.607   0.336 -0.3951  0.0814 -0.1895
10616W        W28140   9.959  17.871   1.828 -0.0361  0.1619 -0.0524
10617W        W28141  13.480  18.287   0.644  0.3996  0.2196 -0.1261
10618W        W28142   4.116  12.511  13.422  0.0433  0.3487 -0.2959
10619W        W28143   9.682   0.650  13.568 -0.0813  0.2184  0.1326
10620W        W28144   8.869  16.675   4.603 -0.2114  0.1058  0.1340
10621W        W28145   2.252   8.039  11.701  0.1433 -0.2702 -0.0638
10622W        W28146  12.912   8.842   1.645  0.1810  0.1986  0.1093
10623W        W28147  16.908  13.286   4.201  0.0263 -0.2782  0.1589
10624W        W28148  14.476   4.719   3.726 -0.0761 -0.0626  0.4187
10625W        W28149   6.866   8.786  15.281  0.0896  0.0396 -0.2069
10626W        W28150   4.813  11.168   0.093 -0.1818  0.1873  0.0181
10627W        W28151  16.526   5.635   3.008 -0.0711 -0.1333 -0.0041
10628W        W28152   1.019  16.948  12.787 -0.1027 -0.0077  0.1573
10629W        W28153  17.174  16.274  10.182 -0.1139 -0.1562  0.1094
10630W        W28154   8.492   1.539   3.484  0.1721  0.2503 -0.1483
10631W        W28155   7.726  16.070  14.526  0.2279  0.0219 -0.2420
10632W        W28156  12.051   3.682  13.273  0.3186 -0.1226  0.0968
10633W        W28157  14.521  15.285  15.714 -0.2506  0.0216 -0.1279
10634W        W28158  11.203  10.584  11.396 -0.0008  0.1116 -0.0799
10635W        W28159   8.965  17.927   0.463  0.0919  0.1124 -0.2250
10636W        W28160   5.399   3.843   1.859  0.1371  0.5136 -0.0027
10637W        W28161   5.962   8.958  13.965  0.4604 -0.5460  0.2698
10638W        W28162   5.109  11.870   3.911  0.1389 -0.0950 -0.1116
10639W        W28163   7.406  12.646  11.756  0.3944  0.2071  0.0163
10640W        W28164   0.905   8.162  13.305 -0.3918 -0.0770  0.4015
10641W        W28165   5.775   9.118   0.370  0.1028 -0.1978  0.1057
10642W        W28166   2.881  15.005   3.613 -0.1277 -0.0851 -0.2246
10643W        W28167  16.113   3.405  14.721  0.0434  0.1308 -0.1426
10644W        W28168  10.330  14.145  15.708 -0.2168 -0.1333  0.0270
10645W        W28169   0.647  14.740  14.059  0.0824  0.0356 -0.3204
10646W        W28170  11.513   6.264   1.887 -0.1056  0.0488  0.2720
10647W        W28171   7.924  17.322   2.478 -0.2925 -0.2844 -0.0178
10648W        W28172  14.517  18.433   3.256  0.0991  0.0364  0.2132
10649W        W28173  17.451   1.298   2.341 -0.1375 -0.1010  0.1268
10650W        W28174   7.962  16.383   0.962  0.1390 -0.4261 -0.3948
10651W        W28175   7.888  17.656   3.533 -0.0626  0.0325 -0.2425
10652W        W28176   6.477  10.091   3.252 -0.0933 -0.2001 -0.2251
10653W        W28177   7.158  15.561  11.658 -0.1408 -0.0516 -0.1192
10654W        W28178  17.392   7.649  10.867  0.1535 -0.1999  0.1135
10655W        W28179   2.494   6.415   0.774 -0.1075  0.2416  0.1716
10656W        W28180   5.306   1.400   2.668  0.0812 -0.2385  0.0472
10657W        W28181   4.545  16.442  13.308 -0.0074 -0.2155 -0.2311
10658W        W28182   0.325   4.084  11.130  0.0090  0.0447 -0.2689
10659W        W28183  11.843   0.659   0.799  0.0102  0.0804 -0.0450
10660W        W28184  10.038  14.206  14.484 -0.0981  0.0041  0.2384
10661W        W28185   6.549   5.157  12.165 -0.0415 -0.2672  0.0767
10662W        W28186   1.753   1.869   6.007 -0.0060 -0.0155 -0.1480
10663W        W28187  18.327  17.032  14.421 -0.1452  0.0522 -0.5296
10664W        W28188  18.485   8.658  12.935  0.2337  0.3422 -0.1388
10665W        W28189   0.067   8.266   3.921 -0.0023 -0.0467  0.1964
10666W        W28190   8.143   0.472  13.888  0.0548 -0.1829 -0.0054
10667W        W28191  15.917  15.026  15.304 -0.3018 -0.1562 -0.2139
10668W        W28192   7.478  18.374   1.069 -0.1846  0.1051 -0.1786
10669W        W28193   5.693  16.250  12.930  0.0078  0.2263 -0.0846
10670W        W28194  10.415   0.662  14.542  0.0574 -0.1102  0.1010
10671W        W28195   5.357  12.438  12.633 -0.1792 -0.1494  0.0020
10672W        W28196  13.215   5.565   2.803 -0.0588 -0.0445  0.1260
10673W        W28197  17.745   3.362   1.837 -0.0262 -0.0395  0.1608
10674W        W28198  10.624   5.207  14.317 -0.1771 -0.3389  0.0124
10675W        W28199   4.745   2.572  12.123  0.0967 -0.1088  0.1032
10676W        W28200  11.871   7.432   4.294 -0.3337  0.2944  0.0673
10677W        W28201   3.231   9.210   3.967  0.0617 -0.1412  0.0306
10678W        W28202  10.416   1.708  15.160 -0.3617 -0.1352  0.1806
10679W        W28203   3.382  16.964   0.004  0.0677 -0.4486 -0.0953
10680W        W28204  10.803   8.217  10.516  0.2411 -0.0471 -0.0835
10681W        W28205  17.209   4.629   4.849  0.3385 -0.1084  0.0528
10682W        W28206   2.666  10.153   0.232  0.4260 -0.1716 -0.1031
10683W        W28207  15.545   8.757  11.024  0.2287  0.2736  0.0415
10684W        W28208  11.248   5.402  14.497 -0.4372  0.0971  0.5845
10685W        W28209   2.867   5.570   0.214 -0.0386 -0.1652  0.0604
10686W        W28210  18.272   8.331  13.625  0.0718  0.2002  0.3460
10687W        W28211  14.938   3.796   1.023  0.0664  0.2951 -0.0025
10688W        W28212   2.187  13.105  11.194 -0.0085  0.0853 -0.1784
10689W        W28213   4.199  17.986   1.672  0.0518  0.0441 -0.0059
10690W        W28214  13.141   8.561  14.632 -0.0367 -0.2312  0.3188
10691W        W28215   0.064   5.777  14.180 -0.3242 -0.1290  0.0069
10692W        W28216  17.535   4.725   0.550 -0.2405  0.1168 -0.0048
10693W        W28217  15.358   1.982   1.522  0.0108  0.2230 -0.0404
10694W        W28218   4.726  17.672   4.420  0.3680 -0.0753  0.1001
10695W        W28219  13.465   0.963   4.918  0.2245  0.0177  0.1702
10696W        W28220   1.860  12.071  12.612  0.1347  0.0624  0.2767
10697W        W28221   4.052   8.406   2.778 -0.0145 -0.1341  0.2291
10698W        W28222  14.832   4.625  12.713  0.0951 -0.0752 -0.1518
10699W        W28223  11.956  16.014  12.051 -0.2333  0.1095  0.0149
10700W        W28224   7.165   3.001   3.936  0.0027 -0.1145  0.2246
10701W        W28225   4.636  15.770   4.202  0.2551  0.0820 -0.1112
10702W        W28226   6.909   9.756  10.202  0.1170 -0.0032  0.1375
10703W        W28227   9.897   6.609  12.885  0.0835  0.3401 -0.3949
10704W        W28228   2.140   4.165   2.276  0.5200 -0.0813 -0.1560
10705W        W28229   2.074  13.530  10.863 -0.2019  0.3161  0.0215
10706W        W28230   6.827  15.831  15.347 -0.2794 -0.0778  0.1203
10707W        W28231   0.672  14.172   0.477 -0.0659  0.0992  0.1837
10708W        W28232  16.201   3.377   4.203  0.2843  0.0328  0.4322
10709W        W28233   5.585   5.685  11.766 -0.4543  0.3685  0.0440
10710W        W28234   8.227   5.824  11.422 -0.0661 -0.2160  0.0553
10711W        W28235   4.208  10.033   0.251  0.2977  0.1021  0.1000
10712W        W28236  13.240  11.071  14.514 -0.2875 -0.0632 -0.2885
10713W        W28237  10.975   4.620   2.635  0.2895 -0.0995 -0.1534
10714W        W28238  14.551  14.912   1.381  0.2012  0.0551 -0.2601
10715W        W28239   9.953  14.451   3.113 -0.0625 -0.0909 -0.0996
10716W        W28240  18.319   5.444  12.686 -0.1304  0.0286  0.0958
10717W        W28241   6.073  12.341  12.083 -0.2471 -0.0170 -0.2142
10718W        W28242   6.055   0.320   4.561 -0.1496  0.0364  0.1746
10719W        W28243  12.077   1.776  13.725  0.1622 -0.2263 -0.4657
10720W        W28244   4.322  15.232   4.306  0.0972  0.3667 -0.1423
10721W        W28245  13.168  10.950  13.588 -0.0348 -0.0687  0.1025
10722W        W28246   7.920  16.779   2.172  0.2198  0.4028 -0.1658
10723W        W28247   3.733  18.138   2.591 -0.2036  0.2579  0.2046
10724W        W28248  17.053   1.928   1.554  0.0969  0.1248 -0.0314
10725W        W28249  12.577  13.630   3.156 -0.0335 -0.2831 -0.1967
10726W        W28250   2.804   2.928   4.858  0.1886 -0.2321  0.0866
10727W        W28251  17.106   0.482  15.399 -0.0279 -0.0096 -0.0429
10728W        W28252  11.551  15.901  11.783  0.0905  0.0264  0.2038
10729W        W28253  15.486   8.395   5.782  0.0257 -0.0666 -0.1752
10730W        W28254   6.183   0.957   2.744  0.2175  0.2706 -0.1573
10731W        W28255  11.083  13.089  14.484 -0.2325  0.0525  0.1575
10732W        W28256   7.184   5.689   5.674  0.0790  0.1399  0.1235
10733W        W28257  17.552  16.274  13.637  0.0243 -0.0594 -0.2231
10734W        W28258   4.561   5.236   0.559  0.0532  0.0523  0.0381
10735W        W28259   1.200   3.252   3.067 -0.3495 -0.1394 -0.1029
10736W        W28260   0.100  10.335   2.108 -0.0540 -0.0462  0.0594
10737W        W28261  14.545  15.134  11.368 -0.1922 -0.0266 -0.4798
10738W        W28262   5.292  12.383   4.517  0.2152  0.2606 -0.2694
10739W        W28263   8.472  16.825   0.834  0.1582 -0.2178 -0.3477
10740W        W28264   0.015   9.136  11.856  0.0508  0.2894  0.0086
10741W        W28265   8.367  16.711   1.847 -0.5334  0.1072  0.1860
10742W        W28266  12.332   8.161  14.661 -0.3371  0.0119 -0.2449
10743W        W28267   0.805   8.047   4.301 -0.0510  0.2592  0.3987
10744W        W28268   7.950   7.218   2.193 -0.2423 -0.0442  0.1515
10745W        W28269   2.166  18.014   1.867  0.0106  0.4216  0.1038
10746W        W28270  10.117  11.424   0.841  0.2019  0.0179  0.2551
10747W        W28271  17.998   6.640   5.164 -0.2855 -0.0245 -0.0643
10748W        W28272   4.227  14.576  15.205  0.0476 -0.2300  0.2614
10749W        W28273  11.973  12.644   1.367 -0.2876 -0.0578 -0.0036
10750W        W28274   4.539   8.296   3.022 -0.0379  0.0764 -0.0072
10751W        W28275   3.342  14.680  14.462  0.2260  0.0036 -0.0605
10752W        W28276   2.708   6.347  12.302 -0.1961  0.1183  0.0473
10753W        W28277   1.410  12.380   2.702 -0.0869  0.3463  0.1406
10754W        W28278  13.090  16.689   1.186  0.0721 -0.1199 -0.0011
10755W        W28279   6.614   8.926   0.001 -0.3179  0.2833  0.2422
10756W        W28280  17.228  14.495   2.726  0.0822 -0.0340  0.1686
10757W        W28281   6.710  10.965   2.355  0.1861  0.1485 -0.2063
10758W        W28282  12.771  16.552  14.132 -0.0632 -0.0501 -0.2544
10759W        W28283   6.937   1.686  11.185 -0.1680  0.2575  0.2548
10760W        W28284  13.033   3.117  13.992  0.0241 -0.3700  0.0221
10761W        W28285  12.216  17.762  14.838 -0.1378  0.1398  0.1492
10762W        W28286  17.209  17.995   4.297  0.0331  0.1992 -0.1615
10763W        W28287  12.141   8.120  12.586 -0.0247  0.1447 -0.0102
10764W        W28288   7.728  12.915   4.155 -0.0342 -0.0842 -0.1901
10765W        W28289  12.209  16.104  13.195  0.0540 -0.0403  0.6033
10766W        W28290  10.750  11.811   3.963 -0.3262  0.0405 -0.1816
10767W        W28291  14.204   3.438  15.432  0.0569  0.1718 -0.1987
10768W        W28292  14.523   3.957   2.261 -0.4071 -0.0824  0.0538
10769W        W28293   1.178   4.517  11.246 -0.2660 -0.1887  0.0446
10770W        W28294  12.165   0.092  14.569 -0.0004  0.1979 -0.1492
10771W        W28295  18.291  14.935   3.682 -0.0851 -0.1660  0.0879
10772W        W28296   8.200   3.518   3.071  0.2208 -0.0098 -0.2067
10773W        W28297   8.748  17.920  14.833  0.1244 -0.2929 -0.1032
10774W        W28298   6.506   8.973   4.718 -0.1733  0.1372  0.1109
10775W        W28299   6.427   5.207  12.803  0.1185  0.0002 -0.1303
10776W        W28300   1.735  16.724  15.438 -0.0088  0.2310  0.0246
10777W        W28301  13.272  16.608   3.489 -0.2493  0.0929  0.1076
10778W        W28302  13.597  14.755   1.458  0.3911 -0.3027  0.1309
10779W        W28303   7.114   0.167  11.289  0.2343 -0.1312  0.2976
10780W        W28304  12.096  11.515  15.526 -0.2620  0.0518 -0.2415
10781W        W28305  17.858   4.368   0.262  0.0516  0.2696  0.2021
10782W        W28306   3.320   8.165  10.797 -0.1472  0.1193  0.0553
10783W        W28307  15.695  14.688   4.126  0.4047  0.2699 -0.1742
10784W        W28308  14.962  16.606  15.189  0.0722  0.0015  0.0186
10785W        W28309   0.422  15.107   2.821 -0.1169  0.0929 -0.1828
10786W        W28310   0.263  16.020  14.447  0.0052 -0.4602  0.2709
10787W        W28311  18.046   8.848  11.582 -0.3782  0.1162  0.0563
10788W        W28312  14.604   1.672  14.642 -0.3995 -0.1498  0.1879
10789W        W28313  15.672   0.610   4.704  0.1550  0.0089  0.1244
10790W        W28314  16.869   2.720   0.934 -0.1580  0.1802  0.1756
10791W        W28315   3.608   8.626  10.723 -0.0919  0.1155 -0.1447
10792W        W28316  10.332   8.419   3.175 -0.1832 -0.0004  0.0583
10793W        W28317  16.813  12.696   4.850  0.3343 -0.2734  0.3163
10794W        W28318  18.033  17.099   2.003  0.1031  0.1907 -0.1418
10795W        W28319  10.731   0.828  12.520  0.0893 -0.4697 -0.1091
10796W        W28320   4.534  13.367   3.199  0.0221 -0.1730  0.1113
10797W        W28321  12.302  10.445   3.572  0.0328 -0.1298 -0.0083
10798W        W28322   3.731   8.412  13.627  0.0763 -0.1344  0.1204
10799W        W28323   6.482  15.699  12.806  0.1440  0.3814 -0.1768
10800W        W28324   4.944  17.336  11.730  0.0869  0.3089  0.0186
10801W        W28325   6.326   1.863   0.039  0.0067  0.1634 -0.0050
10802W        W28326  14.446  14.009   4.237 -0.2770 -0.2013 -0.1002
10803W        W28327   6.205  16.231   0.342  0.1323 -0.1052  0.1205
10804W        W28328  14.108   1.191   0.469  0.1436  0.1761  0.0247
10805W        W28329  11.483   6.715   4.738  0.2241  0.1507 -0.3917
10806W        W28330  11.590   1.936  12.042  0.1729  0.3460 -0.1064
10807W        W28331   0.347  12.920   0.432 -0.2625  0.0377 -0.1124
10808W        W28332   5.479   0.244  11.199 -0.1946 -0.1023  0.0766
10809W        W28333   2.928  17.934   2.699 -0.0732  0.0790  0.1739
10810W        W28334   4.791  13.211  15.114  0.0138 -0.1811  0.0160
10811W        W28335  13.297   0.328  12.886  0.3959 -0.1248 -0.2308
10812W        W28336  14.284  16.213  13.604 -0.0008 -0.1207 -0.0491
10813W        W28337   9.630  13.553   1.442  0.0581 -0.1505  0.3336
10814W        W28338   0.517  17.243   3.038  0.0446 -0.2168  0.3052
10815W        W28339   4.201   5.505  14.907  0.2397 -0.1586 -0.2974
10816W        W28340   2.710   4.530   2.780  0.0550 -0.0514  0.2054
10817W        W28341   8.701   1.358   1.355  0.2741  0.2060  0.1247
10818W        W28342   1.148   2.169  10.669 -0.3805 -0.3443  0.0267
10819W        W28343  14.387  15.267  11.888 -0.2678 -0.2608  0.1282
10820W        W28344   1.314   9.787  11.975  0.3695  0.0929  0.0271
10821W        W28345   3.654   6.938  15.457  0.1227 -0.0573  0.3150
10822W        W28346   2.153   4.684   4.371  0.2378 -0.0945 -0.3182
10823W        W28347  10.008   4.557  12.821  0.0212  0.4536  0.0535
10824W        W28348   9.108   0.810   3.510 -0.0113  0.0593 -0.2506
10825W        W28349  10.336   4.560  13.198 -0.3087  0.1788  0.0493
10826W        W28350   3.902   1.611   2.643  0.0745 -0.0874 -0.3790
10827W        W28351  14.103   7.404  11.352  0.1640  0.0688  0.2317
10828W        W28352  13.915   9.073  11.488  0.0378  0.0993  0.0460
10829W        W28353   2.166  11.887  12.976 -0.3331 -0.2067  0.3338
10830W        W28354  10.102   7.630   1.918  0.1304 -0.0220 -0.1050
10831W        W28355  18.266   7.655   9.974 -0.1164  0.1171 -0.0498
10832W        W28356  15.731   8.780   4.703 -0.1196  0.1964  0.1048
10833W        W28357  11.372  10.438   2.119 -0.1954 -0.0518 -0.1719
10834W        W28358   2.048   5.727  13.312 -0.1612 -0.2060 -0.1697
10835W        W28359  13.504  15.334   6.323  0.2700  0.0992  0.1461
10836W        W28360  15.830   6.143  14.301 -0.2737 -0.0503  0.0558
10837W        W28361  15.273  10.221   0.984 -0.1947 -0.1045  0.2403
10838W        W28362  13.199   6.017   4.659  0.0423 -0.3512  0.4782
10839W        W28363  18.059  17.170   4.836 -0.1979 -0.0684 -0.0281
10840W        W28364  18.259   8.384  11.554 -0.1187 -0.3202 -0.2500
10841W        W28365   3.404  11.356   1.776 -0.0770  0.1461  0.2467
10842W        W28366   2.096   3.819   4.692  0.3427 -0.2141  0.3303
10843W        W28367  10.654  16.931  15.690  0.0128 -0.2013  0.1868
10844W        W28368   5.715  14.428   0.811  0.2059  0.0092 -0.3800
10845W        W28369   3.325  18.285  12.392  0.0919 -0.0752 -0.1298
10846W        W28370   4.299   6.155  15.196  0.2640  0.1400  0.0066
10847W        W28371   6.079   5.730   0.613 -0.2185 -0.1085  0.2923
10848W        W28372   3.348  14.949   1.725 -0.3893 -0.3436 -0.1742
10849W        W28373  10.783   9.168   0.389 -0.2114  0.3671 -0.1553
10850W        W28374  11.788   9.369   4.012 -0.0169  0.1583  0.1350
10851W        W28375   7.389  16.734   4.421  0.0232 -0.0700 -0.0802
10852W        W28376  12.583  14.044  12.921 -0.0777  0.0785  0.2153
10853W        W28377   4.759  17.532  12.391 -0.2415 -0.0575  0.0576
10854W        W28378   6.971  11.322   2.616  0.2914 -0.2175 -0.0982
10855W        W28379   7.863   0.795   1.343 -0.0823 -0.1712  0.0558
10856W        W28380   5.438   0.432  12.968  0.1436 -0.4193 -0.1292
10857W        W28381  14.343   5.477  15.544  0.0263 -0.0245  0.0805
10858W        W28382  16.471  14.429   4.381  0.0357 -0.0530  0.0595
10859W        W28383  14.171  13.346   5.579  0.1056  0.0978 -0.1674
10860W        W28384   3.555   7.248  14.053  0.3036  0.0490 -0.2432
10861W        W28385  10.793   8.781  13.877  0.0722  0.1972 -0.1312
10862W        W28386  14.329  12.776  12.863  0.4063  0.0114 -0.0840
10863W        W28387   7.118   8.218   3.166 -0.0316  0.0167  0.0166
10864W        W28388  16.795   7.255  14.538 -0.0586 -0.0244 -0.2892
10865W        W28389  17.590   5.087   1.560 -0.2331  0.1116 -0.1405
10866W        W28390  18.231  12.747   1.333 -0.2497 -0.0605 -0.1213
10867W        W28391   8.739   3.995   1.344 -0.2245  0.1278  0.0437
10868W        W28392  12.210   3.306   4.311 -0.2048  0.1385 -0.4740
10869W        W28393   6.870  15.304  10.619 -0.5025  0.1537 -0.2842
10870W        W28394  17.809   5.421   3.299 -0.1598  0.2435 -0.1165
10871W        W28395   9.944  17.396  12.446  0.2684 -0.1226 -0.0507
10872W        W28396   0.978   9.990  12.706  0.1749  0.1547  0.2494
10873W        W28397   6.980   1.638   0.788 -0.2955  0.1449 -0.2958
10874W        W28398   3.612  13.449  12.200  0.0073  0.1128 -0.1564
10875W        W28399   8.184   4.210  12.023 -0.0492  0.0513  0.1878
10876W        W28400   9.870   0.737   1.958 -0.0662 -0.0504 -0.1937
10877W        W28401   8.976   6.903   4.225  0.0054 -0.0895  0.0532
10878W        W28402   2.459   9.706   0.219 -0.1171  0.0474 -0.1209
10879W        W28403   8.406  18.150  10.522 -0.1713 -0.0097 -0.0863
10880W        W28404   8.444   9.868   5.558 -0.1659 -0.4387  0.1477
10881W        W28405  15.931  12.310  11.705 -0.2052  0.0895 -0.0309
10882W        W28406  10.321   3.760   4.654 -0.1584 -0.0190  0.1561
10883W        W28407   4.236   6.435   0.414  0.3824  0.2295  0.1312
10884W        W28408  15.834   5.313   4.439  0.0282  0.1978 -0.2292
10885W        W28409   5.672  16.890  13.347  0.0336 -0.3077 -0.1159
10886W        W28410  13.747   5.551  12.970 -0.0281  0.0339  0.0787
10887W        W28411  18.366  15.752   2.512  0.1619  0.0521  0.1209
10888W        W28412   5.217   2.388   3.106 -0.1547 -0.0215  0.3142
10889W        W28413   3.172  16.415   4.297 -0.0634 -0.0446 -0.1708
10890W        W28414  16.881  10.473   0.491  0.0989  0.0135 -0.1107
10891W        W28415   4.051  16.984   1.561 -0.1206 -0.4451 -0.1358
10892W        W28416  14.254   2.630  15.017 -0.3857  0.3071 -0.3214
10893W        W28417   6.004  14.042  11.546 -0.0764  0.0072 -0.0588
10894W        W28418   4.652  12.619  11.064 -0.1514  0.0045 -0.5361
10895W        W28419  11.717   1.548  12.976 -0.0743 -0.0424 -0.3251
10896W        W28420  11.610   3.267  13.690  0.2783 -0.0637 -0.0836
10897W        W28421  18.481   6.882   3.962  0.1854 -0.1475  0.0074
10898W        W28422  12.113  11.053   2.413 -0.0848 -0.0644  0.3151
10899W        W28423   8.392   2.688   1.919 -0.0224  0.1328 -0.1389
10900W        W28424  16.690   7.364  11.339  0.1147  0.0070 -0.0205
10901W        W28425   4.648   4.505   1.089 -0.1236  0.1397  0.1207
10902W        W28426   2.122   5.706  11.342  0.0663 -0.1869  0.1563
10903W        W28427   7.015  13.607   1.517  0.2929  0.1926  0.1781
10904W        W28428   0.624   3.828  10.265  0.1211  0.1335 -0.1331
10905W        W28429   3.662   6.662   5.207  0.1041  0.1137  0.3293
10906W        W28430   1.184   2.310   1.281 -0.2513  0.0185 -0.2061
10907W        W28431  10.607   7.116  13.961 -0.2192 -0.1575 -0.2825
10908W        W28432  10.501  12.386  15.675  0.1563 -0.1571 -0.1612
10909W        W28433   8.422  17.973   1.424  0.0696  0.3750  0.0296
10910W        W28434   5.905   3.382   4.205  0.1456  0.0371  0.1614
10911W        W28435   2.409  16.927  14.501  0.0811 -0.1333  0.2681
10912W        W28436  10.280  13.008  12.934  0.1260 -0.2948  0.1355
10913W        W28437   9.886   2.148   1.546  0.0537  0.2557  0.1430
10914W        W28438  11.099   3.172   1.314  0.1622 -0.1014 -0.0489
10915W        W28439   3.347   1.996   0.636 -0.0568 -0.2094 -0.0829
10916W        W28440  16.642   7.130   1.828  0.1756  0.1486 -0.1887
10917W        W28441  13.229   6.214   5.835 -0.0961 -0.0664  0.0307
10918W        W28442  15.281  12.104   1.876 -0.1314  0.2457 -0.0396
10919W        W28443   7.772  11.409   0.004 -0.1560 -0.1415  0.0265
10920W        W28444  14.907   5.612   4.803 -0.1126  0.2285 -0.1063
10921W        W28445   5.554   4.016   0.470  0.0188  0.0456  0.0270
10922W        W28446   2.216   9.576  11.159  0.0648 -0.0673  0.0184
10923W        W28447  17.461  10.178   0.686 -0.1480 -0.1166 -0.2010
10924W        W28448   8.309   9.385   1.684 -0.2535  0.1242 -0.0196
10925W        W28449  12.974  16.676  11.973  0.2146  0.0048 -0.0664
10926W        W28450  16.460   4.064   5.233 -0.1307  0.0595  0.2146
10927W        W28451   2.342  14.739  13.166 -0.2276 -0.1622 -0.0284
10928W        W28452   0.968   6.572   0.901 -0.4038  0.0746  0.0289
10929W        W28453   5.955  12.114   1.181 -0.5172  0.1377 -0.1612
10930W        W28454   0.685   3.353   4.032  0.4539 -0.1610 -0.0183
10931W        W28455   2.690   2.416  14.014 -0.4222 -0.0071 -0.2598
10932W        W28456   5.829   7.151  11.028  0.0584 -0.1490 -0.3523
10933W        W28457  18.095  13.327   0.068  0.2948  0.1193  0.0895
10934W        W28458   2.247  11.064  12.787  0.0576 -0.1110 -0.2322
10935W        W28459   3.391  18.453   5.096  0.1963 -0.3831  0.2279
10936W        W28460   4.620   4.384   4.524 -0.0009  0.1759 -0.4581
10937W        W28461  10.523  16.949  10.778 -0.0474  0.4935 -0.0552
10938W        W28462  17.397  11.054   1.229 -0.0677  0.3552  0.4589
10939W        W28463  13.510  14.599   3.332  0.1431 -0.0509  0.0641
10940W        W28464  11.274   5.131   0.092  0.2117 -0.4672 -0.0118
10941W        W28465   6.445  14.219  13.620  0.1429  0.3871  0.1615
10942W        W28466   3.453  18.171   1.237 -0.2050  0.3110  0.1056
10943W        W28467  11.771   8.459   4.712 -0.1003 -0.1127  0.0439
10944W        W28468   0.199   1.654   0.708 -0.0230 -0.0120  0.2345
10945W        W28469  13.428  11.391  13.681 -0.2489  0.2723  0.2333
10946W        W28470   8.893   3.530   1.885 -0.0685  0.1399 -0.2490
10947W        W28471   3.476   3.874   1.605 -0.0683 -0.0468 -0.1569
10948W        W28472  16.437  17.264   4.196  0.0508 -0.1369  0.1581
10949W        W28473  14.511  11.324   1.734 -0.1499  0.1520  0.2701
10950W        W28474  16.996   5.938   3.959  0.0206 -0.0321 -0.1936
10951W        W28475  13.066   5.711  13.912  0.3468  0.0281  0.0906
10952W        W28476   5.042   2.887   3.307  0.1606 -0.3974 -0.1865
10953W        W28477   3.912   0.496  12.005  0.1098  0.1767  0.1873
10954W        W28478   8.318   8.929   1.490 -0.0185  0.0559 -0.0468
10955W        W28479   8.249  11.691  13.995 -0.2307 -0.0467 -0.1250
10956W        W28480   8.585   4.309  11.773 -0.1134 -0.2057 -0.4182
10957W        W28481  16.769   6.758  14.377 -0.0534  0.1044  0.2510
10958W        W28482   2.134  17.382   0.568  0.2857 -0.4906 -0.2358
10959W        W28483  14.494   3.625  14.469  0.0392  0.1080  0.2065
10960W        W28484  17.696   4.836  13.303 -0.1914 -0.3167  0.2448
10961W        W28485   0.894  13.753  12.578 -0.3761 -0.4541 -0.0690
10962W        W28486   9.683   7.294  15.281  0.3379  0.0791 -0.1483
10963W        W28487  10.913  17.609   1.099  0.2272  0.2130  0.0223
10964W        W28488  11.712   0.855  10.949  0.3275  0.0874 -0.1680
10965W        W28489   3.556  14.279   3.396  0.0880  0.2705  0.2727
10966W        W28490   8.213   3.661   0.667 -0.1127 -0.2814  0.1772
10967W        W28491  15.941  16.516   3.118  0.2592 -0.1668  0.0226
10968W        W28492  12.799  15.931   1.640  0.3274  0.1014  0.0398
10969W        W28493  10.141  17.831  14.866 -0.2704 -0.2320 -0.1342
10970W        W28494   5.326   0.654  13.843 -0.0137  0.1771 -0.0570
10971W        W28495  10.671  13.056  12.643 -0.1197 -0.1530 -0.2633
10972W        W28496   7.203   8.675  12.968  0.0110 -0.0531  0.0089
10973W        W28497   7.449  10.306  12.991 -0.0011 -0.1362  0.1767
10974W        W28498   3.136   2.268   1.380 -0.0702  0.2262  0.1423
10975W        W28499   2.327   6.787  13.526 -0.0923  0.2624  0.4490
10976W        W28500   3.990  18.484  10.715  0.1679 -0.0026 -0.0617
10977W        W28501   1.692  13.841  10.753  0.0509  0.2155  0.0068
10978W        W28502   7.647   2.541   3.085 -0.0693 -0.0043 -0.0451
10979W        W28503  18.062   3.132  12.263  0.0574 -0.0575  0.3766
10980W        W28504   6.563  12.099   4.410 -0.0639  0.0897  0.3176
10981W        W28505   1.180   7.440   0.822  0.2144  0.0567 -0.2107
10982W        W28506   7.495  12.043  13.585  0.1286 -0.1640 -0.2193
10983W        W28507   2.935  12.796  13.649  0.0026 -0.1071 -0.0755
10984W        W28508  13.641  17.640  14.007  0.2502 -0.0616  0.0517
10985W        W28509  11.658  12.061  11.493 -0.1909  0.1539  0.0924
10986W        W28510   1.367   8.014   3.389  0.0688  0.2530  0.0093
10987W        W28511   7.254  11.118   0.227  0.1887  0.2512 -0.1188
10988W        W28512   2.316  15.555  13.680  0.0637  0.2637  0.2734
10989W        W28513   3.756   0.021  13.088  0.2007 -0.3303 -0.1093
10990W        W28514   3.418   9.526  10.951 -0.2633  0.1716  0.1244
10991W        W28515   8.848  17.844   5.457 -0.1850  0.4092 -0.3444
10992W        W28516  15.716  10.433   2.726 -0.0318 -0.2064 -0.1830
10993W        W28517  14.694   2.600   3.868 -0.0020  0.0048 -0.1649
10994W        W28518   7.330  13.215  11.095  0.0625 -0.0666  0.4163
10995W        W28519  17.796   2.836   2.038 -0.2749 -0.0169 -0.1120
10996W        W28520   6.493   7.409  12.261 -0.1624  0.0160  0.1346
10997W        W28521  12.561   4.639   0.637 -0.6255  0.0140  0.2952
10998W        W28522   0.889   2.534  10.790  0.2529  0.0830 -0.1164
10999W        W28523   3.631  10.388   2.094  0.2528 -0.4196  0.2439
11000W        W28524  11.982   5.730  10.918  0.1807  0.3765 -0.0533
11001W        W28525   7.002  16.801  15.251  0.5450 -0.0070 -0.3108
11002W        W28526   0.350   6.378  11.708 -0.1888 -0.2785  0.1034
11003W        W28527   4.460  14.656   1.080 -0.0313 -0.0190  0.2333
11004W        W28528   1.467  11.142  11.780  0.1661  0.4763  0.0974
11005W        W28529  11.292  15.890   1.275  0.1821 -0.1756 -0.0654
11006W        W28530   8.306  17.178   2.116 -0.0027  0.0627 -0.2054
11007W        W28531   4.488   8.269  15.681 -0.2467  0.0402 -0.0042
11008W        W28532   1.270   8.995   4.370 -0.1110 -0.1195 -0.0546
11009W        W28533   2.807   3.539  13.834 -0.0731 -0.1177 -0.1537
11010W        W28534   6.803   0.088   2.980  0.2614 -0.0683  0.4612
11011W        W28535   1.221  15.670  15.456 -0.0840 -0.1541  0.0254
11012W        W28536   7.261  15.554  12.992  0.0704 -0.0022 -0.1942
11013W        W28537   0.908  17.926  13.359 -0.1918 -0.0051 -0.3590
11014W        W28538  18.186   5.687   2.114 -0.1035  0.0113  0.1470
11015W        W28539   9.793  12.826  13.150 -0.0713  0.2170  0.1878
11016W        W28540  17.341   8.370  15.155  0.4306 -0.0197 -0.1668
11017W        W28541  11.257  18.240   2.698  0.2049 -0.4731 -0.1466
11018W        W28542  13.567  16.949   5.060 -0.1288 -0.0122 -0.0266
11019W        W28543  13.680   8.881  15.674 -0.2013 -0.1981  0.1424
11020W        W28544   3.242  15.916   4.092 -0.1207 -0.1088 -0.3159
11021W        W28545  17.205  13.917  15.199 -0.0000 -0.1681  0.0386
11022W        W28546   4.110   5.112   4.069  0.5166  0.3679 -0.1795
11023W        W28547  14.723   8.910   3.796 -0.1815 -0.0536 -0.0248
11024W        W28548  11.306   0.455  11.431 -0.1755  0.8255  0.0753
11025W        W28549   1.647  17.099  15.102 -0.1466 -0.3055 -0.6930
11026W        W28550   5.122   0.156  12.656  0.0873 -0.3774  0.0286
11027W        W28551  13.324   0.729   0.597  0.1310 -0.0370 -0.0697
11028W        W28552  13.766   5.507   2.731  0.0151  0.1302  0.3618
11029W        W28553  13.516   4.504  13.931 -0.3798 -0.0483  0.1014
11030W        W28554   6.914  15.328   4.372 -0.3651  0.3346  0.2274
11031W        W28555  10.229   6.740   2.994  0.0653 -0.0185  0.2923
11032W        W28556  12.467   9.393   3.275  0.0414 -0.0550  0.0969
11033W        W28557  16.723  10.235  12.618  0.1013 -0.0717 -0.2287
11034W        W28558   5.712  14.037  11.935  0.2037 -0.0695 -0.2002
11035W        W28559  11.431  13.867   2.871 -0.1097 -0.2071 -0.2167
11036W        W28560   0.822   7.834   3.375 -0.0411 -0.0237  0.0754
11037W        W28561   0.358  15.782  15.583 -0.0391  0.0686 -0.0196
11038W        W28562   3.130  13.683   4.531  0.0678 -0.1786  0.1871
11039W        W28563  16.251  12.321  12.980 -0.2149  0.1181 -0.2024
11040W        W28564  10.841  12.853   3.062  0.3519  0.1258 -0.1433
11041W        W28565   2.283   6.850  15.424 -0.1536 -0.2472  0.3404
11042W        W28566  15.837  15.475   3.959 -0.0759  0.0897  0.0730
11043W        W28567  16.136  13.946  14.480 -0.0810  0.0464  0.0335
11044W        W28568   7.012   3.900  14.630 -0.0458  0.0984 -0.1285
11045W        W28569  17.591  16.998   4.609  0.2688  0.0036 -0.0922
11046W        W28570   8.616   5.488  13.552  0.1161 -0.0652  0.1557
11047W        W28571   8.077   9.474   4.042  0.0604  0.0869  0.0202
11048W        W28572   1.424  18.225  12.155  0.0288 -0.2506  0.0059
11049W        W28573   7.478  10.800   2.624  0.2332  0.1127 -0.0569
11050W        W28574  16.027   2.398  13.694 -0.2989 -0.0930  0.1304
11051W        W28575   6.527   3.531   1.635 -0.1390 -0.0640  0.0151
11052W        W28576  12.423   8.883  15.457 -0.0118 -0.0224 -0.1299
11053W        W28577  16.699   0.106   2.212 -0.0387 -0.3654 -0.2752
11054W        W28578   7.526   8.099   4.226  0.0104  0.0257  0.1214
11055W        W28579  16.159  15.467   4.546  0.0543 -0.0767  0.0876
11056W        W28580  10.443  11.821   0.159  0.1379 -0.3088 -0.0531
11057W        W28581  17.535  14.892   2.611 -0.0185 -0.1570  0.2428
11058W        W28582  12.726   1.797   3.586 -0.0691  0.1685 -0.2336
11059W        W28583   9.728  12.292   1.790  0.3212 -0.1694  0.2738
11060W        W28584  13.006   6.628   1.426  0.0588  0.2582  0.0677
11061W        W28585   4.331   4.451  15.118  0.1603 -0.0314  0.0029
11062W        W28586  17.574   5.749  13.441  0.2036  0.0009  0.3741
11063W        W28587   7.181   6.465   0.160  0.1126 -0.1183 -0.2033
11064W        W28588  11.459  10.288  12.293  0.0794  0.1448 -0.1278
11065W        W28589   6.738  17.688   3.322  0.3133  0.1600  0.0103
11066W        W28590   0.513   9.267  12.749  0.0077  0.0072 -0.1989
11067W        W28591   7.317   0.304  13.033  0.0056 -0.0698 -0.0557
11068W        W28592   4.669   5.692  11.224 -0.3428  0.0422  0.1301
11069W        W28593   9.301  11.685   2.594  0.2845 -0.4413  0.0978
11070W        W28594  11.481   3.181  12.229  0.0023 -0.0058  0.2409
11071W        W28595   5.893  14.804   3.275 -0.0260  0.0374  0.1115
11072W        W28596  13.723  18.471  12.352  0.1022 -0.2231  0.0216
11073W        W28597   6.501   7.380  13.398 -0.0660  0.2007  0.1700
11074W        W28598   3.123  17.114  12.898  0.5079  0.0639 -0.0080
11075W        W28599   2.487   4.155   4.009 -0.0993  0.2215  0.2429
11076W        W28600  16.541  11.227   0.120 -0.4543 -0.2084  0.0159
11077W        W28601  10.507  10.357   0.133 -0.1371  0.1541  0.0179
11078W        W28602   8.889  10.894  13.738 -0.2800 -0.1541  0.2042
11079W        W28603   5.014  12.270  11.134 -0.0480 -0.1648 -0.0249
11080W        W28604  10.928  11.418  12.796 -0.0874  0.2244 -0.1266
11081W        W28605   5.718  17.893   5.354 -0.2705 -0.3147 -0.0621
11082W        W28606  15.888  17.290  13.735 -0.0252 -0.0741  0.2291
11083W        W28607   2.518  16.020   1.050  0.0672 -0.0704  0.1293
11084W        W28608  17.388  16.577   0.829  0.1867  0.1122  0.2429
11085W        W28609   5.348   6.598   3.166  0.2007 -0.0287 -0.2542
11086W        W28610   5.326   8.803   0.351  0.4841 -0.1250  0.1453
11087W        W28611   3.966   6.369  11.944  0.1362  0.0303 -0.2239
11088W        W28612   2.814   9.501  12.785 -0.0724  0.2032  0.0226
11089W        W28613  12.202   3.722  11.572 -0.0735 -0.0354  0.1535
11090W        W28614  12.275   5.704  13.641  0.4391 -0.0523 -0.1711
11091W        W28615   4.803   0.499   4.903 -0.0332  0.0096 -0.0572
11092W        W28616  15.128  14.301   5.202  0.3498  0.0783 -0.0471
11093W        W28617  11.677   9.328   0.726  0.1017 -0.1230 -0.3110
11094W        W28618  12.138   2.614  13.866  0.1183  0.3008  0.2858
11095W        W28619   8.288   8.240   3.411 -0.1191 -0.1368  0.1116
11096W        W28620   0.949  14.916   2.691  0.1811 -0.1018 -0.1761
11097W        W28621   1.366   7.337   1.358 -0.1444  0.1674  0.3641
11098W        W28622  17.573  15.202   0.371  0.2720 -0.1498  0.4229
11099W        W28623  16.235  18.026  12.735 -0.1413 -0.0578 -0.1060
11100W        W28624  17.470  14.752  15.067 -0.0136  0.0150 -0.2316
11101W        W28625  10.451   3.755   2.711 -0.0028 -0.0285 -0.0423
11102W        W28626  12.393   0.286  14.981 -0.1772  0.3301  0.2216
11103W        W28627  16.649   2.369   0.187  0.2262  0.2707 -0.0109
11104W        W28628   4.284   7.747   2.586  0.0055 -0.0761 -0.0065
11105W        W28629  11.612  16.130  12.849 -0.0333  0.1697 -0.2119
11106W        W28630   5.137  17.891  14.609 -0.2746  0.2354  0.0032
11107W        W28631  12.565   8.919  11.878 -0.2801 -0.0777 -0.1400
11108W        W28632  17.042   6.399  10.597 -0.0690  0.0006  0.1700
11109W        W28633  12.174  17.666   0.485  0.0154 -0.1343  0.3084
11110W        W28634   9.313   1.143   3.826 -0.2762  0.1486 -0.3479
11111W        W28635   4.115   9.917  11.335 -0.4140  0.2188  0.4312
11112W        W28636  10.566   5.117  11.496  0.1444 -0.0841  0.2104
11113W        W28637   6.533   7.285  15.299  0.1622  0.0309 -0.2319
11114W        W28638  13.746  17.153   2.215 -0.6510  0.2529 -0.3897
11115W        W28639  11.582  12.398   1.931 -0.0145 -0.0897 -0.2799
11116W        W28640  14.642   4.316   3.235  0.2557  0.1150 -0.0824
11117W        W28641  15.354  14.351   3.654 -0.0398 -0.0541  0.1538
11118W        W28642   7.942   6.190  14.658  0.1827  0.0613  0.0620
11119W        W28643  12.972   6.360  12.015  0.1422 -0.2542 -0.0463
11120W        W28644   8.195  10.040  11.422 -0.2480  0.0465  0.3432
11121W        W28645  16.278  17.057   2.253 -0.0779 -0.0834 -0.1037
11122W        W28646   0.769  10.185   1.841  0.1513 -0.1626  0.0933
11123W        W28647   0.255  16.468  13.785  0.0290  0.3806 -0.2285
11124W        W28648  12.117  17.233  13.967 -0.0098 -0.4462 -0.0728
11125W        W28649  10.909  11.759   0.681  0.0736  0.0742 -0.0627
11126W        W28650   7.586   3.296   1.336 -0.0891 -0.0867  0.0112
11127W        W28651   3.525   6.666   3.911  0.0492  0.3295  0.0903
11128W        W28652   8.795   5.158  15.586  0.1334  0.0817 -0.1648
11129W        W28653  12.539  17.321  13.830  0.1848 -0.3642 -0.0401
11130W        W28654   8.912   3.100   2.176  0.0669  0.4553  0.0364
11131W        W28655  17.713   9.084   0.484 -0.1228 -0.0557  0.3128
11132W        W28656  12.869  12.763  14.243 -0.2593 -0.0644 -0.0639
11133W        W28657  15.104  16.373   2.113 -0.0326  0.1463  0.0257
11134W        W28658   6.820  12.361   2.412  0.0656 -0.0132  0.1567
11135W        W28659  17.933   5.067   0.786 -0.3787 -0.0290  0.0160
11136W        W28660  17.558   7.625  13.130 -0.1245 -0.4969 -0.1834
11137W        W28661   2.185  13.005  12.894  0.0914 -0.1048  0.0117
11138W        W28662   1.105  15.428  11.376  0.0647 -0.0614  0.0376
11139W        W28663   3.954   6.887   2.084  0.1620 -0.0170  0.0767
11140W        W28664   3.991   8.290   1.852  0.1158 -0.0179  0.6366
11141W        W28665   6.760   0.155   0.809  0.0652 -0.1392  0.2079
11142W        W28666   3.542   8.503   1.919  0.2346 -0.0993  0.3140
11143W        W28667  12.760  14.722  12.304  0.1043 -0.2653  0.0594
11144W        W28668  17.910   5.104  12.874  0.2594  0.0847  0.0505
11145W        W28669  17.116   0.795   4.466  0.2848 -0.2218 -0.2427
11146W        W28670  17.466   3.549  14.001 -0.0599 -0.2236  0.0255
11147W        W28671  11.059   5.807  11.752 -0.3312  0.2618 -0.1890
11148W        W28672   5.183   5.161   1.237 -0.1358  0.1957  0.1079
11149W        W28673   8.648   8.130   4.749 -0.0008  0.0024  0.0133
11150W        W28674  18.253   4.274   2.738  0.0104  0.1526 -0.0397
11151W        W28675  17.039  17.741   3.030 -0.1445 -0.1413  0.0585
11152W        W28676  15.911   0.202  13.257 -0.1976  0.2176 -0.0849
11153W        W28677  17.679   0.099  12.478  0.2817 -0.0368  0.2249
11154W        W28678   6.800   5.094   4.080  0.0733 -0.0118 -0.3138
11155W        W28679  13.027  10.443   1.324  0.1908 -0.2576 -0.2108
11156W        W28680  10.318  13.195  14.989  0.1015 -0.2496  0.0628
11157W        W28681  17.558   9.521  13.952 -0.1883 -0.2260  0.1605
11158W        W28682   5.316  18.360   4.429 -0.4113 -0.2585  0.0283
11159W        W28683  12.373   1.265  13.801 -0.1162  0.2560 -0.1622
11160W        W28684  15.250   6.714   9.480  0.0471  0.1974 -0.0636
11161W        W28685  12.354   4.313   4.345  0.1060 -0.4308 -0.3947
11162W        W28686  16.734   6.648   1.982 -0.1049 -0.0014  0.0328
11163W        W28687  11.800  12.084  14.748 -0.2281  0.0759  0.1584
11164W        W28688  14.733  15.012  12.985  0.0962  0.4028  0.0189
11165W        W28689   1.778  18.021  15.471 -0.0794 -0.0600  0.1775
11166W        W28690  10.848   5.288  13.355 -0.0467  0.1273  0.4377
11167W        W28691   8.175  13.067   3.797 -0.0616 -0.0534  0.0243
11168W        W28692   1.372   7.126   3.232 -0.1380 -0.0189 -0.0231
11169W        W28693  10.264  12.454  12.900 -0.0644 -0.1632  0.2254
11170W        W28694   8.697   0.744  15.518  0.1031  0.1468 -0.0779
11171W        W28695   2.753   0.011  11.470  0.3898  0.2639  0.0034
11172W        W28696   8.705  16.319  11.713 -0.0699  0.0135 -0.2154
11173W        W28697  10.616  10.278  14.716  0.0965 -0.4294 -0.1481
11174W        W28698   0.736   3.816   3.846 -0.0681  0.0875  0.0762
11175W        W28699   9.330  16.195  14.204 -0.2916  0.0407 -0.0659
11176W        W28700  16.939  12.830   0.173  0.1247  0.0166  0.0150
11177W        W28701  15.826  13.092  13.932 -0.0491 -0.3091  0.2959
11178W        W28702  10.923   0.680  14.170  0.0120  0.1218  0.0292
11179W        W28703  14.456  18.480   2.470 -0.1087  0.1732  0.2045
11180W        W28704   9.515  14.651  14.029  0.2668  0.0375  0.1157
11181W        W28705  12.816   1.206  15.127  0.3047  0.3360 -0.1696
11182W        W28706   9.336  18.277  12.273 -0.0718  0.0452 -0.0510
11183W        W28707  16.135   4.195   1.305  0.1388  0.5242 -0.0045
11184W        W28708  11.998  11.932   3.755 -0.2675 -0.1663 -0.1098
11185W        W28709   6.357   4.548   9.444 -0.1674 -0.1035 -0.0418
11186W        W28710   3.596   2.213   1.086 -0.0618 -0.2154  0.2659
11187W        W28711  12.912  10.474  15.602 -0.2340 -0.1807 -0.0521
11188W        W28712  14.917  18.071  13.265  0.0304  0.0162  0.1348
11189W        W28713  13.520   4.529  12.192 -0.4451  0.2093 -0.0550
11190W        W28714   3.971   5.071  13.718 -0.3382  0.0196  0.0436
11191W        W28715   0.569  14.698   4.076 -0.3491 -0.3413 -0.0919
11192W        W28716  10.514   4.850  12.478  0.0789  0.1993 -0.1591
11193W        W28717  13.662   1.513   3.428  0.2182 -0.0947 -0.1871
11194W        W28718   2.399  13.219  14.593  0.1955 -0.6309 -0.0683
11195W        W28719   3.622   7.870  11.067  0.2048 -0.1013  0.1286
11196W        W28720   5.127   3.175   4.060  0.2566  0.0690 -0.0209
11197W        W28721  16.825  13.644   4.618  0.0997  0.0813  0.1154
11198W        W28722   6.039  17.918  13.562  0.0521  0.2861  0.2475
11199W        W28723   0.192  16.969   0.710  0.0682  0.0226 -0.1548
11200W        W28724  17.840   3.027  15.092  0.1959 -0.1052 -0.5328
11201W        W28725  16.861   8.415   0.984 -0.1129 -0.0556 -0.0211
11202W        W28726   0.426  17.341  11.652  0.1251 -0.0109 -0.3644
11203W        W28727   4.754   2.071  15.084  0.3947  0.1788  0.1154
11204W        W28728  11.698   8.699  12.903  0.0824  0.3063  0.1348
11205W        W28729   5.694  16.639  13.817  0.1796 -0.0310 -0.0931
11206W        W28730   4.499   2.066   3.695  0.0024  0.1250 -0.0741
11207W        W28731  16.439  17.897   2.903 -0.0867  0.5015 -0.2281
11208W        W28732   9.474   4.173  10.191 -0.0844  0.0739 -0.0012
11209W        W28733  11.922  11.164   0.564 -0.1349 -0.0764  0.0587
11210W        W28734  17.690  17.102   5.173 -0.1058 -0.1362 -0.0973
11211W        W28735  17.935  12.691   4.110 -0.2217 -0.0407 -0.5511
11212W        W28736   6.438  14.764  11.122  0.0307 -0.0729 -0.1247
11213W        W28737   8.250  11.006   2.785  0.6007  0.0006 -0.3042
11214W        W28738  10.583  10.263   3.934  0.2104 -0.4414  0.1313
11215W        W28739  10.444  16.286  14.978 -0.1115 -0.0591 -0.1877
11216W        W28740  17.097  16.920   3.725 -0.0487 -0.0172  0.3203
11217W        W28741   0.928  14.345  13.295  0.1968 -0.3387 -0.0761
11218W        W28742  10.988   0.417   4.333 -0.0403  0.1977  0.2191
11219W        W28743   0.179   4.551  13.065 -0.3063 -0.2710 -0.1217
11220W        W28744  13.935  10.569   1.804 -0.0386 -0.0021 -0.1847
11221W        W28745  12.492  16.716  12.150  0.0705 -0.0531  0.0977
11222W        W28746  14.762   3.849   0.134 -0.0936 -0.1951 -0.3194
11223W        W28747  10.157   1.740   0.442 -0.0697 -0.4165  0.3095
11224W        W28748  12.156  13.425   2.931 -0.0826  0.0289 -0.0582
11225W        W28749  12.421  10.244  15.429 -0.2734 -0.1288 -0.0054
11226W        W28750   3.292   0.895   5.126  0.0091  0.0194  0.2988
11227W        W28751   5.650  13.713  15.298 -0.2130  0.0711  0.0506
11228W        W28752   1.362   4.128   2.662  0.1265 -0.0774  0.1632
11229W        W28753   8.021  11.025   0.815  0.1535 -0.1721 -0.0627
11230W        W28754   9.819  15.927  10.838  0.1193  0.0889  0.0091
11231W        W28755  12.211   9.116  12.253 -0.0029 -0.0662 -0.1964
11232W        W28756   1.657   4.425  11.788 -0.2058  0.1042 -0.0263
11233W        W28757  11.344  12.649   4.100  0.1703  0.1916 -0.0739
11234W        W28758  16.199   0.404   3.373  0.0920 -0.0347 -0.0659
11235W        W28759   3.387   6.693  13.083  0.1376  0.2337 -0.1478
11236W        W28760  10.609  13.852  13.033 -0.3394 -0.5035 -0.3013
11237W        W28761  14.853   5.142   1.611  0.1170 -0.1846  0.2328
11238W        W28762  11.425   6.281   5.036 -0.1675 -0.1927 -0.0990
11239W        W28763   0.615  17.484   4.428  0.1907 -0.0619 -0.0025
11240W        W28764   1.945   2.438   0.193  0.0691  0.2577 -0.1623
11241W        W28765   7.637  16.049  11.212 -0.2876 -0.0575  0.3685
11242W        W28766   6.950  15.081   4.789  0.1391  0.0716 -0.1387
11243W        W28767  15.191  17.846   3.447  0.1028 -0.1294  0.1293
11244W        W28768  15.359   7.956   0.376  0.0487  0.0218 -0.0146
11245W        W28769   1.749  18.233  12.618 -0.0234 -0.2810 -0.1137
11246W        W28770   8.433   2.867  12.276 -0.1363 -0.2310 -0.1128
11247W        W28771   7.489   3.887   2.410  0.0170 -0.2452  0.1165
11248W        W28772   2.523   1.023   4.077  0.2637 -0.0851  0.2791
11249W        W28773  18.079  16.090   4.918 -0.0219 -0.2452  0.2456
11250W        W28774  15.358  13.741  13.284 -0.0485  0.1407 -0.1828
11251W        W28775   0.667  15.317  12.956  0.0028 -0.3270  0.2051
11252W        W28776   2.291   5.596   3.679  0.3536  0.1298 -0.0197
11253W        W28777  15.336   4.451  14.416  0.1705 -0.0875  0.2110
11254W        W28778   7.421   8.206   3.648 -0.0157  0.0975  0.2820
11255W        W28779   4.181   0.646   0.493 -0.2620 -0.0398 -0.1450
11256W        W28780   8.643   1.197  12.798  0.2935 -0.2555  0.1623
11257W        W28781   1.269   2.532   2.192 -0.0013 -0.1097 -0.0359
11258W        W28782  15.540  17.368  11.685  0.0801 -0.1506  0.0444
11259W        W28783   6.172   6.435   1.659  0.0341  0.0684  0.3506
11260W        W28784  16.306  13.789  10.972  0.0778 -0.0539 -0.0411
11261W        W28785   1.034  18.255  12.572  0.4339 -0.3797  0.2182
11262W        W28786  11.728  15.012  14.313 -0.0126 -0.0727  0.0761
11263W        W28787  13.704   6.384  14.605 -0.1143  0.3505  0.1272
11264W        W28788   5.192  12.386   3.233  0.0750 -0.2966  0.1525
11265W        W28789   5.528   3.305   2.616  0.0465 -0.1661 -0.2343
11266W        W28790  18.030   0.588   4.359 -0.0643  0.2472  0.1389
11267W        W28791  18.254  17.939   2.178  0.0742  0.0423  0.3243
11268W        W28792   3.177   8.768  12.521  0.1223 -0.0483  0.0797
11269W        W28793  14.932  12.662  12.099 -0.1387 -0.1067 -0.3168
11270W        W28794   7.601   0.767   4.541 -0.3930  0.0291 -0.1668
11271W        W28795   8.643  17.179   0.364  0.1612 -0.1993  0.3950
11272W        W28796   8.390   4.766  14.040  0.0429  0.0886 -0.0032
11273W        W28797   7.306   4.965  12.972 -0.1791  0.3415 -0.1911
11274W        W28798  17.007   6.916  11.526 -0.0775 -0.0774 -0.0310
11275W        W28799   5.393  13.930  13.815 -0.0872  0.3458  0.1799
11276W        W28800   4.106  13.405   4.611  0.3834 -0.1250 -0.1670
11277W        W28801   8.960  10.570  14.144 -0.0847 -0.2942 -0.1070
11278W        W28802   0.276   7.207  10.714 -0.1020  0.0482  0.5441
11279W        W28803  11.539  11.420   4.016 -0.0248  0.1674 -0.1225
11280W        W28804  13.841  10.748  12.983 -0.0300 -0.2497  0.0232
11281W        W28805   9.358  12.312   4.018  0.2573 -0.3294  0.1729
11282W        W28806   7.524  16.485  15.006  0.0149 -0.1362  0.1975
11283W        W28807  16.342   8.824  15.653  0.5204  0.0216 -0.0671
11284W        W28808   7.223  12.471  15.567  0.0876 -0.0257 -0.1291
11285W        W28809  17.996   9.642  14.997  0.2501 -0.3806  0.1676
11286W        W28810   3.468   8.981   0.689 -0.0886  0.0186 -0.2605
11287W        W28811  14.401  12.763  11.046  0.0102  0.0237 -0.2678
11288W        W28812  16.206  17.812  15.002 -0.1092  0.0089  0.1499
11289W        W28813   4.769  14.157   4.260  0.3176  0.1381  0.0608
11290W        W28814  13.665  10.123   1.768  0.0243  0.0377  0.0889
11291W        W28815  10.209  12.801  13.910  0.0802 -0.2389 -0.1656
11292W        W28816  16.928  14.234   2.145 -0.2590  0.0005  0.1332
11293W        W28817  11.792   9.764   0.469 -0.4718 -0.0326 -0.2482
11294W        W28818   7.847   4.821   3.403  0.0217 -0.2236 -0.2529
11295W        W28819   2.768   5.748   2.695 -0.0988  0.1328  0.1245
11296W        W28820  16.104   8.686   1.389 -0.1506 -0.0475 -0.1758
11297W        W28821   4.454  12.752   2.185  0.3519  0.2375 -0.0189
11298W        W28822   5.210  15.805  11.233 -0.3288 -0.0689 -0.3250
11299W        W28823  13.512   5.482   3.222 -0.2091  0.2395  0.1956
11300W        W28824  12.823  15.238  14.668  0.0640  0.1297  0.0400
11301W        W28825  11.302  12.747  14.876 -0.0616  0.0345  0.0525
11302W        W28826  15.144   1.024   4.604  0.1514 -0.0291 -0.0619
11303W        W28827   5.656  14.963   1.918 -0.1623  0.1709 -0.1023
11304W        W28828   7.343  12.448  13.201  0.0493 -0.4099  0.1397
11305W        W28829   4.267  13.481   1.260 -0.0068  0.1637 -0.1624
11306W        W28830   1.302   1.168  12.701  0.0578 -0.0781  0.0833
11307W        W28831  10.921  12.521   4.356 -0.6914 -0.0211  0.1966
11308W        W28832  17.117  17.525   1.234  0.1017 -0.0993 -0.0921
11309W        W28833   7.235  12.668   0.627 -0.1162 -0.2524  0.0568
11310W        W28834  17.612   2.272  11.248 -0.0004  0.4203  0.0242
11311W        W28835   5.978   8.518  12.887  0.0561  0.0502  0.0047
11312W        W28836   0.108  10.742   2.902 -0.0596  0.1772 -0.2386
11313W        W28837   1.800  10.182   1.878 -0.1270  0.1139 -0.1209
11314W        W28838   4.546  15.123   1.265 -0.1068 -0.3732  0.2613
11315W        W28839  16.245   8.106   0.379  0.0361  0.0308  0.2608
11316W        W28840   5.952   3.739  11.291  0.3730 -0.0432 -0.0863
11317W        W28841   8.774  14.116  15.134  0.2088  0.1616 -0.0787
11318W        W28842   4.017  12.600  10.082  0.1240  0.0278 -0.0617
11319W        W28843   1.264  17.894   4.094  0.0133  0.1947  0.3023
11320W        W28844  15.037   9.426   4.809 -0.0487  0.2623  0.1438
11321W        W28845  12.998  11.931  10.440  0.0407  0.0429 -0.1460
11322W        W28846   5.221   0.717   4.849  0.0193 -0.1787  0.1905
11323W        W28847  18.468  13.992   0.663  0.0508 -0.0137 -0.2389
11324W        W28848   5.142  15.300  13.470  0.0452  0.2793  0.2212
11325W        W28849  17.281  16.197  11.874 -0.0645  0.0486 -0.1223
11326W        W28850   0.854   7.301   3.125 -0.0478 -0.1103 -0.1392
11327W        W28851  13.795   4.097   4.001 -0.1453  0.0695  0.1747
11328W        W28852  11.468  16.876   3.782 -0.0837  0.0042 -0.0484
11329W        W28853   1.265   0.986  14.342 -0.0665 -0.0852 -0.1826
11330W        W28854   7.678   2.665  12.240 -0.4155 -0.1399  0.2695
11331W        W28855  15.216  11.268  13.267 -0.3523 -0.1516  0.0191
11332W        W28856   1.494   1.552   0.717 -0.0836  0.5834  0.1010
11333W        W28857   9.208  16.714  14.280  0.1216 -0.5144 -0.0238
11334W        W28858  18.353   5.535   1.558 -0.1893  0.0909 -0.4226
11335W        W28859   9.073  14.188  14.734  0.0158 -0.2953 -0.0533
11336W        W28860   3.773  10.894   4.748 -0.2036 -0.1416  0.3340
11337W        W28861  11.062  13.928  14.049  0.1537 -0.0582  0.0216
11338W        W28862  10.299   0.252  11.909 -0.2366 -0.0254 -0.1090
11339W        W28863   4.815  13.664   5.587 -0.0174 -0.1113  0.0183
11340W        W28864   0.219   6.579   4.520  0.0388 -0.1296  0.2719
11341W        W28865   1.675   7.559   4.233  0.2038  0.2557 -0.0577
11342W        W28866   6.480   1.139   1.965  0.2395  0.0138 -0.1961
11343W        W28867  13.961   2.229  14.593 -0.2494 -0.0277 -0.2239
11344W        W28868   2.388   9.651   3.514 -0.4560 -0.1621 -0.2013
11345W        W28869  10.096  13.363   1.906  0.0740  0.0300 -0.0601
11346W        W28870  16.661   3.040   3.768 -0.1202 -0.1291 -0.1533
11347W        W28871  10.442   4.165   2.148  0.1327 -0.0891  0.0703
11348W        W28872  11.645  14.996  14.951 -0.0737  0.0271 -0.0672
11349W        W28873  14.787  14.454   3.533  0.1358 -0.2125  0.0958
11350W        W28874  14.929   4.683   3.326  0.4167 -0.0525 -0.1160
11351W        W28875   0.001  15.586  14.606  0.2877  0.4713 -0.0868
11352W        W28876  16.269  16.190  12.987  0.1494 -0.1607  0.2997
11353W        W28877  12.864   1.636  14.886 -0.1173 -0.1143 -0.0596
11354W        W28878   3.066  18.116  11.272 -0.0127  0.0583  0.0545
11355W        W28879   7.660   3.478   3.127  0.0970  0.1785  0.0360
11356W        W28880  11.902   6.843   3.007  0.0654 -0.0551 -0.1997
11357W        W28881   0.186  17.135  15.413 -0.1392 -0.0220 -0.0774
11358W        W28882   9.991  10.672   1.998  0.1730 -0.0868 -0.2222
11359W        W28883   5.513  15.597   3.479  0.1264  0.0303 -0.2786
11360W        W28884  10.824   1.883  13.729  0.0214 -0.0077  0.0961
11361W        W28885   8.724  13.281  11.277  0.2009 -0.4718  0.2120
11362W        W28886   7.057  11.141   5.505  0.2296 -0.1699 -0.2531
11363W        W28887  16.259   6.074   0.907  0.0550  0.1539 -0.0832
11364W        W28888  12.270  18.379  11.992  0.0788  0.2015  0.0882
11365W        W28889  13.449   9.755  14.627  0.2305  0.3578 -0.0879
11366W        W28890   8.347   7.220   4.769  0.0358  0.2629 -0.0191
11367W        W28891   8.607   0.605   0.967  0.0358  0.0426 -0.1389
11368W        W28892  11.484  13.825   4.777  0.0351 -0.3078 -0.3951
11369W        W28893  12.054  17.444  13.516  0.1427  0.0376  0.2594
11370W        W28894   1.539   4.197   2.116 -0.2494  0.1030 -0.0321
11371W        W28895  15.619  14.380  11.377 -0.0560 -0.1668 -0.0723
11372W        W28896   0.001   1.424   3.695 -0.4235  0.0115  0.2625
11373W        W28897   1.214   8.907   0.307  0.1865  0.0026  0.1806
11374W        W28898  13.084  14.036  15.657 -0.2136  0.0255 -0.4324
11375W        W28899   9.170  15.743   1.300  0.0912 -0.0130 -0.1353
11376W        W28900  11.953  16.851   3.537 -0.4173 -0.0744  0.0483
11377W        W28901   7.792   7.593   2.524  0.0479  0.0876  0.2456
11378W        W28902  12.907   0.315   4.915 -0.1513 -0.0079  0.3158
11379W        W28903   3.744   1.548  12.000  0.2210  0.2491  0.1856
11380W        W28904   6.803   4.696  12.157  0.0832  0.2890  0.1513
11381W        W28905   2.919   0.618  13.289  0.3208 -0.0137  0.0316
11382W        W28906   6.061   6.015  12.729  0.1025  0.0142 -0.0289
11383W        W28907   2.026  12.052   1.478 -0.3087 -0.0879  0.0263
11384W        W28908  17.086  14.942   1.415 -0.3185  0.2129  0.0218
11385W        W28909   4.008  14.020  14.084  0.4097  0.3507 -0.0733
11386W        W28910  14.776  11.474  14.396  0.0769  0.2448 -0.0602
11387W        W28911  16.034  17.022   1.178  0.2560 -0.1403 -0.1771
11388W        W28912   9.993   4.670  11.783 -0.0373 -0.1127 -0.0897
11389W        W28913  15.325   0.799  12.928  0.2609  0.2105  0.1139
11390W        W28914  11.593  10.316  14.497  0.0118  0.1242 -0.1039
11391W        W28915   0.320   0.835   1.569 -0.1184  0.0074 -0.2735
11392W        W28916  10.535   1.793   1.996  0.2238 -0.2313  0.6236
11393W        W28917   8.295   2.366  14.111  0.1924  0.3228 -0.0714
11394W        W28918  18.067   5.806  15.574 -0.1126 -0.2371 -0.0969
11395W        W28919   9.583  13.978   0.926  0.1584  0.1961  0.0452
11396W        W28920  14.143  12.242   4.410 -0.0056 -0.1928 -0.3060
11397W        W28921   5.619   4.016  12.268  0.2150  0.0205  0.0628
11398W        W28922   7.120  13.661   3.768 -0.3832 -0.1907  0.0521
11399W        W28923   6.339   9.449   4.030  0.0366  0.2010  0.0629
11400W        W28924  15.926   1.461   2.518  0.0410  0.0082  0.0330
11401W        W28925  14.626   7.455  15.666 -0.0246 -0.0182  0.3141
11402W        W28926  16.173   4.793   1.577  0.3474  0.2752  0.2582
11403W        W28927   4.492  14.580  11.639  0.5228  0.0345 -0.1865
11404W        W28928  16.479   1.513   0.696  0.2855  0.1025 -0.0598
11405W        W28929  12.951   2.729   3.686 -0.0525 -0.3095  0.0190
11406W        W28930  13.462  12.708   1.428  0.0360 -0.0520 -0.1131
11407W        W28931  11.764   9.640  15.526  0.0604 -0.3458  0.0055
11408W        W28932  10.179  10.678  13.572  0.0230 -0.4400 -0.0314
11409W        W28933   1.616   6.629  12.975 -0.1350 -0.0774  0.0907
11410W        W28934   9.082  16.858   3.697  0.0961 -0.1335 -0.0903
11411W        W28935  17.463   8.794   3.027  0.1335  0.1406  0.1860
11412W        W28936   5.163   9.737   2.900 -0.1703  0.1191  0.0207
11413W        W28937  10.105  18.251   2.780 -0.0864  0.1050  0.1338
11414W        W28938   1.972  12.647  11.078  0.1608  0.2852 -0.2418
11415W        W28939   0.369   0.278   5.232 -0.0096  0.0524 -0.0958
11416W        W28940  15.727  17.432  15.601 -0.0127  0.3687 -0.0931
11417W        W28941   9.493   3.620   3.009 -0.0897 -0.2751 -0.0323
11418W        W28942  15.250  12.004  14.545  0.2646  0.0711 -0.3075
11419W        W28943  15.352  10.074  11.664 -0.0585  0.1837 -0.3905
11420W        W28944  12.344   1.934   2.014  0.0263 -0.1935 -0.0360
11421W        W28945   6.577  11.673  11.454 -0.0655 -0.2538  0.0167
11422W        W28946  17.887  17.651  14.184 -0.0995  0.0529  0.0209
11423W        W28947   1.937  13.577   1.675 -0.2334 -0.0725 -0.0828
11424W        W28948   5.848   2.718  13.028 -0.0702  0.2045  0.0201
11425W        W28949   8.939  15.472  14.529 -0.1231  0.0707  0.1268
11426W        W28950  12.569   7.932   4.949 -0.1414 -0.0763  0.2376
11427W        W28951   7.369  11.527  12.583 -0.4167  0.0908  0.3925
11428W        W28952  18.428  14.358  14.314  0.1090 -0.0273  0.1327
11429W        W28953   3.726   2.033  11.644 -0.0046 -0.0030 -0.0659
11430W        W28954   0.480   5.690  12.197  0.0319  0.0145 -0.0011
11431W        W28955   0.648   9.830  13.372 -0.1785  0.1539  0.2875
11432W        W28956   7.675   2.263   3.528  0.0408 -0.1984  0.0979
11433W        W28957   3.892   9.837   9.919  0.0621  0.1769  0.0456
11434W        W28958   6.188  13.044  12.021 -0.3910 -0.3662  0.3050
11435W        W28959   9.483  11.244  12.864  0.0909  0.2878  0.3778
11436W        W28960  10.228  17.213  15.004 -0.0449 -0.3702  0.2708
11437W        W28961   5.686  13.771   1.785  0.2508 -0.3710 -0.1537
11438W        W28962   4.594  18.068  12.174  0.1131  0.1936  0.0696
11439W        W28963  11.920   5.987   0.425 -0.2230  0.1949  0.0625
11440W        W28964  13.682   1.056   1.355  0.3219  0.2014  0.0441
11441W        W28965  14.048  16.285  14.099 -0.1125 -0.1600  0.0866
11442W        W28966  12.655  12.077  11.774 -0.1647  0.0401  0.3314
11443W        W28967  12.965   1.547   3.096  0.1286  0.1223 -0.0137
11444W        W28968   0.114  15.699  13.595  0.0215  0.1466  0.0932
11445W        W28969   0.837   2.609   0.996  0.0768  0.1063  0.0567
11446W        W28970  18.289  15.692   4.638  0.1848  0.0669  0.2693
11447W        W28971   7.499  14.991   0.391  0.2170  0.2428  0.1456
11448W        W28972   6.022   0.210   0.090 -0.2003  0.0548 -0.0591
11449W        W28973  13.052   5.996  12.371 -0.0224 -0.2857 -0.2560
11450W        W28974  14.368  17.261  13.453  0.1515 -0.2848 -0.0844
11451W        W28975   8.838   8.079  14.877  0.1038 -0.0285 -0.3554
11452W        W28976   4.907  16.514   1.609  0.1613 -0.0092 -0.1383
11453W        W28977   9.222  11.482  15.377 -0.0293  0.2204 -0.0175
11454W        W28978  17.877  16.471  15.065 -0.0847 -0.0986 -0.0673
11455W        W28979   1.988  12.575   1.137  0.1370 -0.2071 -0.0156
11456W        W28980   9.754  10.677   1.573 -0.2554  0.1743 -0.0175
11457W        W28981   1.947  14.545   0.820  0.0280 -0.0593 -0.1094
11458W        W28982  15.549  12.841   1.021 -0.4204  0.0696 -0.0215
11459W        W28983  12.023  15.437   1.978  0.3015  0.1089  0.2586
11460W        W28984  16.252   4.843  12.126  0.3795 -0.2363 -0.3130
11461W        W28985   6.460   3.408  15.164 -0.0262 -0.1522 -0.2396
11462W        W28986   4.112   2.234  13.251  0.1508  0.0845  0.0884
11463W        W28987  11.409   7.222  11.259 -0.1091 -0.0516  0.0630
11464W        W28988   0.550   0.182  12.135  0.6334  0.1398 -0.1761
11465W        W28989   8.051   9.702  15.649  0.0520  0.0253  0.1202
11466W        W28990   2.718  17.005   4.899  0.0816 -0.1623  0.1480
11467W        W28991   2.988  18.245  14.924  0.1777  0.0936 -0.1805
11468W        W28992   5.874  12.095   9.604 -0.1610 -0.1476  0.2428
11469W        W28993   8.012  16.296  14.219 -0.2268 -0.0662 -0.1954
11470W        W28994  17.607   8.515  11.008 -0.0345 -0.0932 -0.4129
11471W        W28995   2.831   7.047   5.629  0.1668 -0.0010  0.1489
11472W        W28996  18.134   4.046   0.814  0.1606  0.0476 -0.2300
11473W        W28997   7.159  11.268  14.020  0.1632 -0.0356 -0.1722
11474W        W28998  15.590  13.304   4.134  0.1994  0.0755 -0.1941
11475W        W28999   6.697   3.108   3.721  0.2460 -0.1657 -0.0188
11476W        W29000   5.576  17.526   3.435  0.0247 -0.0360  0.1111
11477W        W29001   8.874   3.392  12.147  0.1678  0.1541 -0.1149
11478W        W29002  14.792  10.515  13.573 -0.3366  0.0305  0.3390
11479W        W29003  15.567   3.779   5.169 -0.1132 -0.0486  0.2785
11480W        W29004   2.016   8.120   0.915 -0.3109  0.0965  0.2351
11481W        W29005   7.385  18.135  11.951  0.2030 -0.0152 -0.0327
11482W        W29006   7.643  11.464  13.117  0.1458 -0.0752 -0.1963
11483W        W29007   8.191   7.546  15.711 -0.0738  0.2933  0.0981
11484W        W29008  11.687  18.296   2.013 -0.0909  0.0086 -0.0162
11485W        W29009  12.860  11.992   2.800  0.1053 -0.3630 -0.2362
11486W        W29010   5.658   1.617   0.834 -0.0768 -0.1619  0.1872
11487W        W29011   5.059   7.385   2.037 -0.1300 -0.3581 -0.0702
11488W        W29012   2.313   9.810   3.986 -0.0601  0.0445 -0.2021
11489W        W29013   4.645   1.243   2.615 -0.1453 -0.3159  0.0105
11490W        W29014   4.374   5.504   4.669  0.1313  0.1520  0.0874
11491W        W29015   9.052   2.227   1.433 -0.0285  0.2146  0.1445
11492W        W29016   8.428  18.044  13.967  0.0063  0.4211  0.1211
11493W        W29017   7.076   6.617  10.861  0.0092 -0.0556  0.2291
11494W        W29018   8.591   1.404  13.311 -0.0905 -0.2678  0.1260
11495W        W29019   2.495   5.502  11.638  0.0842  0.3015 -0.1477
11496W        W29020  14.787  13.855  13.601  0.0344  0.2047  0.0279
11497W        W29021  14.426  10.551  13.192 -0.3596 -0.2179  0.1080
11498W        W29022   3.683   2.828   5.262 -0.2241 -0.0277  0.0719
11499W        W29023  16.228   2.068  12.718  0.1241  0.1277  0.1413
11500W        W29024  14.196   2.474  13.805 -0.0820 -0.1454  0.3195
11501W        W29025  16.606  16.627   2.355  0.0010  0.2311  0.1256
11502W        W29026  16.618  12.298   4.599  0.0751 -0.2640  0.1236
11503W        W29027  10.752   1.396  13.947 -0.1876  0.2850  0.0812
11504W        W29028   3.472   4.431   3.967 -0.0988 -0.2653  0.0402
11505W        W29029   8.119   1.830   1.055 -0.0814 -0.0151 -0.0226
11506W        W29030   5.521   7.046   4.171  0.4906  0.0598 -0.2439
11507W        W29031  10.837   5.424   1.010 -0.0793 -0.4272  0.0270
11508W        W29032  15.492  10.280   0.452 -0.0688 -0.4558 -0.3135
11509W        W29033  10.441   7.959   4.638  0.3393 -0.1929 -0.1834
11510W        W29034  15.074   4.360   2.228  0.2073 -0.3111 -0.1554
11511W        W29035  10.736  16.937   3.047 -0.0797  0.0788  0.3312
11512W        W29036   8.757   3.900  13.022 -0.0028 -0.0063  0.1235
11513W        W29037   6.432   7.076  14.769  0.0481  0.2320  0.1261
11514W        W29038   7.971  11.799   4.606 -0.5173  0.4620  0.4112
11515W        W29039  14.728   9.646  13.742  0.0571  0.1724  0.3259
11516W        W29040  14.198   5.685  13.943 -0.1264  0.2058  0.0639
11517W        W29041   5.999  14.952   2.381 -0.1579 -0.2316 -0.0013
11518W        W29042   6.043   6.253   4.824  0.1854 -0.0410  0.0156
11519W        W29043   6.259  11.107  15.641  0.0040 -0.0377  0.0196
11520W        W29044   3.027   6.400  15.437 -0.2555  0.2807 -0.2868
11521W        W29045   2.142  10.593   5.467 -0.1614 -0.1474 -0.0544
11522W        W29046   7.332   2.739  12.613 -0.2429  0.1639  0.0445
11523W        W29047  15.033  14.086  10.820 -0.0703  0.1178  0.1884
11524W        W29048   8.677  13.796   3.270 -0.0609  0.0240  0.1498
11525W        W29049   8.974   6.383   0.042  0.0913 -0.2348 -0.0337
11526W        W29050   9.149   1.924   3.639  0.1895  0.1245 -0.1779
11527W        W29051   0.684  11.551  13.153 -0.1051 -0.0311  0.0663
11528W        W29052  18.150   6.432   3.396 -0.2005  0.1897  0.1792
11529W        W29053   5.045   6.394   3.487  0.0200  0.1206 -0.4147
11530W        W29054   8.217   0.779  15.350 -0.3137 -0.3127  0.1428
11531W        W29055   6.275   1.041   4.875 -0.2609 -0.0459 -0.1165
11532W        W29056  13.219   6.336   1.832  0.0467  0.2509 -0.1396
11533W        W29057   3.190   8.952   4.401  0.1178  0.1554  0.1369
11534W        W29058   4.384   4.149  13.411 -0.0756  0.1261  0.3521
11535W        W29059  17.708   2.449  15.290 -0.0829 -0.1420 -0.3741
11536W        W29060   5.281  12.875  14.367 -0.1037 -0.1460  0.4142
11537W        W29061  18.146   1.022  11.334 -0.1467  0.1138 -0.0222
11538W        W29062   7.995  15.962   4.129  0.1319 -0.2354  0.1616
11539W        W29063   2.115  12.196  11.286 -0.1141  0.0279  0.3718
11540W        W29064  10.861  13.441   1.458  0.0384  0.0127  0.1895
11541W        W29065  11.299  10.025  15.141  0.1465 -0.0027  0.0328
11542W        W29066  15.234   3.958  14.272  0.0262 -0.1707 -0.1965
11543W        W29067  11.896   7.252   0.265  0.1716  0.0261 -0.0243
11544W        W29068   0.319  15.544  15.172 -0.1069 -0.1055 -0.1116
11545W        W29069  12.636   5.914   2.457  0.1067 -0.0975  0.2679
11546W        W29070  18.123  13.148  10.461  0.0036  0.0519 -0.2444
11547W        W29071   2.606  13.143  13.783 -0.0014 -0.5130  0.0510
11548W        W29072  15.333   6.352   4.245  0.0822  0.1977  0.1324
11549W        W29073   1.587  10.027  14.359 -0.0234 -0.0588 -0.0349
11550W        W29074   5.531   5.607  11.307  0.1311  0.2084 -0.0685
11551W        W29075  11.332  13.238   6.081 -0.1828 -0.4748  0.0399
11552W        W29076   0.533  16.514   1.337 -0.1545  0.1076 -0.5360
11553W        W29077   9.337  12.777  11.529 -0.2140  0.2000 -0.1368
11554W        W29078   0.067  10.166  11.146 -0.1925 -0.3891 -0.1473
11555W        W29079  10.496   0.763  15.075  0.0271  0.0752 -0.2162
11556W        W29080  11.058  13.271  12.417 -0.0993 -0.1670  0.3357
11557W        W29081  18.011  14.974  13.637  0.3329 -0.0533 -0.0200
11558W        W29082  12.735   1.376   0.301 -0.1530 -0.1839 -0.1520
11559W        W29083   5.609  13.702   2.571  0.0907 -0.3199  0.1250
11560W        W29084   8.110  12.889  15.377  0.0420 -0.3760  0.1584
11561W        W29085  14.829   3.890   5.240 -0.2040  0.1641  0.0483
11562W        W29086   2.805  16.334   0.191 -0.0529  0.1768 -0.3615
11563W        W29087   3.538  14.547  12.143  0.0460  0.2069  0.0790
11564W        W29088   0.057  13.561  11.662  0.2196 -0.3328  0.0876
11565W        W29089   6.210  16.423  13.682 -0.1320 -0.2587 -0.1120
11566W        W29090  15.196   2.330   1.158  0.1270  0.0887 -0.0652
11567W        W29091   1.760   4.356   2.532 -0.0188 -0.2011 -0.1552
11568W        W29092  14.765  14.841  12.496 -0.1859 -0.0907 -0.1885
11569W        W29093   9.932   7.405   5.076 -0.1227 -0.2836  0.2830
11570W        W29094  17.786  14.939  10.478  0.1172 -0.1722  0.0971
11571W        W29095   2.874   2.394   2.061 -0.0749  0.2006 -0.1064
11572W        W29096  10.251   9.910  11.579 -0.0282  0.1048  0.0169
11573W        W29097   0.743  16.321   4.752  0.1553 -0.0403  0.0347
11574W        W29098   8.743  11.977   5.094  0.0385 -0.1438  0.2401
11575W        W29099   5.556   2.723  12.177 -0.4259  0.2069 -0.0305
11576W        W29100   8.604   2.994  11.816 -0.3114  0.4512  0.0158
11577W        W29101  13.107   3.814   4.329  0.0679  0.2969  0.2175
11578W        W29102   6.319  10.991   4.372 -0.0220  0.1160 -0.0066
11579W        W29103  14.944  16.997  11.091 -0.1292 -0.2298 -0.0331
11580W        W29104   3.492  11.131   5.083  0.2215  0.0223 -0.0909
11581W        W29105   0.574  11.681  11.868  0.4722 -0.1780  0.1228
11582W        W29106  11.474   9.199   3.126 -0.2505 -0.0173 -0.1239
11583W        W29107  17.677   8.609  12.837  0.1425  0.2199 -0.0799
11584W        W29108  13.203   4.059   0.577  0.1291 -0.0207  0.0024
11585W        W29109   4.935  15.700  13.059 -0.0236 -0.1085  0.2698
11586W        W29110  14.515  15.802  10.441 -0.1663  0.0357 -0.4002
11587W        W29111  11.620   3.361   1.055  0.0632  0.3230 -0.0911
11588W        W29112  10.231   2.508  13.974 -0.3346 -0.4140  0.0140
11589W        W29113   6.515  13.244   0.599 -0.0216  0.0423 -0.2911
11590W        W29114   7.814  17.750   4.759 -0.0935 -0.1621 -0.2234
11591W        W29115   4.834   9.066  14.215 -0.0100 -0.0607  0.1261
11592W        W29116  12.382  15.501   2.517 -0.0963  0.1298  0.1091
11593W        W29117   6.940  16.303   2.983 -0.0463 -0.2752 -0.1830
11594W        W29118   3.448   8.308  11.267  0.1835  0.0343  0.0975
11595W        W29119  12.037   9.235   0.481  0.2038 -0.1819 -0.0740
11596W        W29120  11.298  18.379   0.368  0.0226  0.1482  0.0573
11597W        W29121   3.288   3.798   4.237  0.2026  0.1428 -0.2849
11598W        W29122   0.271  18.298  11.837  0.0958  0.1576 -0.0629
11599W        W29123   2.569   6.205   2.800  0.0342 -0.1985  0.0205
11600W        W29124   2.684  11.947  11.908  0.2660 -0.8294  0.1919
11601W        W29125   8.149  16.748   3.146 -0.1537 -0.4896  0.1074
11602W        W29126  15.384   2.492   1.579  0.1839  0.3672 -0.1908
11603W        W29127   3.097   3.502  12.478 -0.0924 -0.1789  0.0226
11604W        W29128   9.248   8.924   1.997 -0.0565 -0.0653 -0.2540
11605W        W29129   3.358   9.541   1.989 -0.1625  0.4313  0.2417
11606W        W29130  11.706   4.048  10.627 -0.2171  0.1168 -0.1965
11607W        W29131   9.459   6.419  11.498  0.1715  0.0627  0.5877
11608W        W29132  12.299  14.070  12.005  0.0014  0.2510 -0.1286
11609W        W29133   3.830  14.123   0.577  0.2053 -0.1397  0.1308
11610W        W29134   0.524  14.618  13.609 -0.2520  0.1176 -0.0372
11611W        W29135  17.084  17.019  11.526 -0.0311  0.1032 -0.1577
11612W        W29136  15.676  18.038   0.547 -0.0493  0.1244 -0.3305
11613W        W29137   3.032  11.916   0.514  0.1023  0.1718  0.0399
11614W        W29138  18.050  15.941   3.819  0.1661  0.1412 -0.2642
11615W        W29139   2.358   4.023   0.783 -0.2761 -0.2176 -0.0696
11616W        W29140  10.307   9.271  13.709 -0.1386 -0.0165  0.0062
11617W        W29141   6.379  17.319   2.919  0.0892  0.0969 -0.4439
11618W        W29142   4.201  15.539   1.088  0.0290  0.3161  0.0057
11619W        W29143   0.693  15.132  13.704  0.2731 -0.0085 -0.0666
11620W        W29144   0.452  15.958   2.866  0.0125 -0.3162  0.1613
11621W        W29145   3.430   8.861   5.775  0.1208 -0.2099 -0.3026
11622W        W29146   4.062   3.998   0.351  0.1330 -0.2482  0.3631
11623W        W29147   1.858  15.652   4.356  0.1231 -0.1174 -0.1453
11624W        W29148   0.675   1.107  13.816 -0.1284 -0.0613  0.1223
11625W        W29149   5.056   2.045   4.325 -0.0173 -0.1153 -0.0553
11626W        W29150   1.058  10.959   4.822 -0.0887 -0.0095  0.1208
11627W        W29151  14.617   2.804  11.955 -0.1219 -0.0254 -0.2043
11628W        W29152   0.560  10.588   1.625  0.0797 -0.0989  0.2011
11629W        W29153  16.472   6.781   0.976  0.1892 -0.2944  0.2091
11630W        W29154   7.114   8.932  12.066 -0.2233  0.0514  0.1167
11631W        W29155   3.383   1.123  14.118 -0.4355 -0.2982 -0.1136
11632W        W29156  18.406  13.500  10.141 -0.1641  0.2566  0.0087
11633W        W29157   7.373   7.685  13.256  0.2056  0.0641  0.3824
11634W        W29158   0.044   4.883   4.094 -0.2381 -0.0115 -0.4102
11635W        W29159  11.999   2.222   1.174 -0.3694  0.1221 -0.4430
11636W        W29160  11.746  11.197  14.850  0.1051  0.0322  0.2251
11637W        W29161  12.892  12.465   2.803 -0.1839 -0.1433  0.1833
11638W        W29162   5.266   0.490   0.900  0.1157 -0.1497 -0.0252
11639W        W29163   7.878  18.333  10.706 -0.0470  0.1014 -0.0928
11640W        W29164   5.388   6.166  11.354  0.2508  0.3861 -0.1212
11641W        W29165   8.343  14.379  12.294  0.2274 -0.0549 -0.0260
11642W        W29166  11.590   1.461   2.883  0.0339 -0.1547 -0.2372
11643W        W29167  12.350   5.040   0.856  0.0078  0.1148  0.3012
11644W        W29168  11.864  16.732   1.328  0.1974 -0.1869  0.0869
11645W        W29169   9.871  17.969  11.793 -0.0066 -0.2090  0.2594
11646W        W29170   0.973   5.507  13.250 -0.0977  0.1900  0.0688
11647W        W29171  17.743  12.220  11.381 -0.0893  0.0862  0.0038
11648W        W29172   6.968   6.337  13.855  0.0518  0.0376 -0.1388
11649W        W29173  15.897  13.083   2.673 -0.1678 -0.1068  0.3661
11650W        W29174  14.445   2.204  14.724 -0.1499 -0.3484 -0.0342
11651W        W29175  15.393   4.693  12.617  0.1467 -0.0345  0.1340
11652W        W29176  18.346   1.181   0.578 -0.2170  0.0438 -0.0861
11653W        W29177   4.953  16.524  12.650 -0.2064 -0.0030  0.1296
11654W        W29178   2.255   6.624  12.347  0.0939  0.0371  0.0336
11655W        W29179   9.451   8.790  12.586 -0.2800  0.3199  0.0272
11656W        W29180   4.165  12.775   4.086 -0.2064  0.2978 -0.1637
11657W        W29181   0.253   3.665  14.467  0.0557 -0.1219  0.0783
11658W        W29182   2.191  13.470  13.639  0.2044  0.0784  0.0049
11659W        W29183   2.777  13.262  12.212 -0.0921  0.0452  0.0708
11660W        W29184  14.398  15.874  13.305 -0.1569 -0.2623 -0.0974
11661W        W29185   3.060   5.358  11.821  0.2046  0.0521  0.0513
11662W        W29186  18.036  12.999  15.437  0.0659  0.2325 -0.2772
11663W        W29187   7.442  17.625  14.203  0.2847 -0.1213 -0.0993
11664W        W29188   9.163   5.283   0.677  0.0285  0.1850 -0.4746
11665W        W29189   4.273  12.091  13.238  0.1746 -0.1707 -0.1965
11666W        W29190   3.201   3.663  13.530  0.2742  0.0073 -0.1341
11667W        W29191  12.074  11.669  11.706  0.4085  0.0853  0.1650
11668W        W29192   2.849  12.797   2.420 -0.2649 -0.0875  0.0269
11669W        W29193   1.844  12.135   0.773 -0.1835 -0.2560 -0.1883
11670W        W29194   2.661   7.285   0.788  0.1481  0.0964  0.2043
11671W        W29195  13.268   2.111  11.587 -0.1982 -0.1405 -0.3365
11672W        W29196  15.146   6.141   9.519 -0.0661  0.1230 -0.2126
11673W        W29197  13.466   2.769  14.665 -0.0841 -0.1749  0.0783
11674W        W29198  11.276  17.724   0.575  0.1644  0.0916  0.1776
11675W        W29199  10.800  16.081  12.643 -0.1334 -0.0251 -0.3256
11676W        W29200  10.318   1.552   4.600 -0.1159  0.1236 -0.1734
11677W        W29201   7.429   9.884  10.809 -0.0904  0.2113  0.0679
11678W        W29202   8.563  13.327   4.078  0.2584  0.0117  0.1060
11679W        W29203  13.825   1.171   5.343 -0.1164  0.1915 -0.2586
11680W        W29204  14.971   2.911  14.474 -0.2635 -0.1141  0.0393
11681W        W29205   2.809   0.884   2.358  0.0265  0.2033  0.0774
11682W        W29206   3.967  17.351  12.658  0.0852 -0.1366  0.1335
11683W        W29207  15.063   4.021   2.592  0.1445 -0.1598 -0.0909
11684W        W29208  12.084   9.737  13.351  0.1327  0.4472  0.1766
11685W        W29209  15.614   5.987   3.057  0.1947 -0.0507  0.1730
11686W        W29210  15.930   1.812  13.491 -0.0767 -0.1092 -0.1417
11687W        W29211   2.711   8.192   3.489 -0.1397 -0.1459 -0.0642
11688W        W29212  18.042  13.603   4.745  0.0137 -0.1361 -0.1886
11689W        W29213  11.079   3.289  11.873  0.0104 -0.0696 -0.4093
11690W        W29214  14.516  11.239   5.399 -0.0213 -0.1301 -0.1132
11691W        W29215   2.427   7.826   4.195 -0.0207  0.4345  0.0184
11692W        W29216  14.650   2.081  13.222  0.5071 -0.3393  0.1430
11693W        W29217  15.256   4.174  15.009  0.0233  0.0168 -0.1940
11694W        W29218  10.295  18.130   0.330 -0.2839 -0.1598 -0.0209
11695W        W29219  13.544  17.381  13.066 -0.0934 -0.1403  0.1712
11696W        W29220   2.941   0.967  14.176 -0.2937 -0.5307  0.1500
11697W        W29221  13.104  12.602   3.490 -0.1517 -0.1313  0.4289
11698W        W29222   4.819   1.630  10.212  0.0718  0.1366 -0.0313
11699W        W29223   5.838   6.705   5.064 -0.3505 -0.0227 -0.0993
11700W        W29224  14.259  11.607  15.015 -0.1974  0.2348 -0.0887
11701W        W29225  12.381  16.833   2.113 -0.1259  0.1455 -0.0544
11702W        W29226  17.887   1.164  11.956  0.0896  0.0528  0.0125
11703W        W29227   3.059   0.693  15.406 -0.1391  0.3200  0.1543
11704W        W29228  16.212  15.344   3.372  0.0247  0.2888 -0.1367
11705W        W29229  13.975  12.348   3.510  0.2098  0.1272  0.1570
11706W        W29230  13.018  17.913   1.499 -0.1129 -0.1210 -0.0370
11707W        W29231   0.783  17.390   2.573 -0.0348  0.1900 -0.1387
11708W        W29232  14.815  10.998   1.429  0.3776 -0.0362 -0.1474
11709W        W29233   4.511   8.240   1.465  0.2131 -0.3079  0.0466
11710W        W29234   2.268   5.151   3.460  0.1966  0.0100  0.1119
11711W        W29235   5.288  12.010  12.431 -0.1172  0.2157 -0.0631
11712W        W29236   0.515  12.123   2.897  0.1772  0.1102  0.3901
11713W        W29237   1.945   2.062  12.372 -0.1582  0.4086  0.0125
11714W        W29238  11.956   5.921   3.568  0.0452 -0.1433 -0.1948
11715W        W29239   9.003   0.706  11.430 -0.0904  0.1017  0.0416
11716W        W29240  12.637   8.956  14.936 -0.1368 -0.0635  0.1527
11717W        W29241  11.005   6.376  12.711  0.0400  0.1253  0.2848
11718W        W29242   5.524  17.394   5.432  0.0188 -0.1393 -0.0613
11719W        W29243  12.284   1.979   0.281 -0.3425 -0.0498  0.1397
11720W        W29244  11.545   5.669  11.362  0.0608 -0.0582  0.3946
11721W        W29245   6.859  17.363  11.921 -0.3812 -0.2758 -0.0921
11722W        W29246   6.633  17.185   4.120 -0.2528  0.1190  0.2049
11723W        W29247   4.556   9.287  13.378 -0.0300  0.3224  0.0737
11724W        W29248   7.781  17.681  14.629  0.3018  0.0013 -0.0432
11725W        W29249  12.135   7.742   2.571 -0.1758 -0.0619 -0.0122
11726W        W29250   7.746  14.934  14.618  0.1898  0.0897 -0.0388
11727W        W29251  11.426   0.936   4.973 -0.0967 -0.3571 -0.1696
11728W        W29252  11.949  11.184   1.488 -0.0539 -0.1601 -0.0543
11729W        W29253   8.862  14.322   2.116  0.0658  0.1744  0.2898
11730W        W29254   8.754   3.888  14.467 -0.0921  0.2648  0.0842
11731W        W29255  14.378   3.729  11.805  0.0011 -0.0646 -0.2612
11732W        W29256   7.572  10.915  13.680 -0.2572 -0.1162 -0.0740
11733W        W29257   8.415   1.362  11.456 -0.1074  0.0648  0.1857
11734W        W29258   0.915  17.240  11.477  0.1938  0.2818  0.1605
11735W        W29259   9.173   7.280   0.800 -0.0348 -0.1130 -0.1316
11736W        W29260   2.421   5.244  12.616  0.0583  0.4224  0.1943
11737W        W29261  15.678  10.712   3.149 -0.1308 -0.0825  0.1920
11738W        W29262  13.009   7.850  14.712  0.3227 -0.1351  0.2001
11739W        W29263  14.670  17.091  12.520 -0.0421 -0.1177  0.0034
11740W        W29264  16.400  12.585   0.073  0.0075 -0.1956 -0.0265
11741W        W29265   6.418   6.724  13.160  0.0650  0.1477  0.0395
11742W        W29266   1.732  14.659  14.572 -0.0580 -0.2232  0.1528
11743W        W29267   5.244   3.166  13.579  0.3963  0.0613 -0.0458
11744W        W29268   9.747  16.030  10.280  0.1024  0.4153 -0.2746
11745W        W29269   4.058   9.036  12.475 -0.3481  0.0623 -0.2393
11746W        W29270   7.543   6.741  11.048  0.2812 -0.0678 -0.0822
11747W        W29271  14.780   3.184   1.507  0.2367  0.0075 -0.0365
11748W        W29272   0.252   0.636   0.752  0.0215 -0.0540  0.0255
11749W        W29273   6.317   4.854   4.208 -0.0591  0.0749 -0.0028
11750W        W29274   0.782  18.195   4.834 -0.0674 -0.1137  0.3454
11751W        W29275   4.181  16.159  15.682 -0.4815  0.1485 -0.1264
11752W        W29276   0.498   1.633   3.655  0.1767  0.0854 -0.3575
11753W        W29277  16.036  14.891  13.475  0.0122  0.0662 -0.3008
11754W        W29278  10.263  16.698  14.250  0.1988 -0.1310 -0.0319
11755W        W29279   1.182  12.248  13.861 -0.2821 -0.0460 -0.2091
11756W        W29280   0.393  12.147   4.940 -0.0996  0.0739 -0.0624
11757W        W29281   1.363  15.322   3.426  0.0023 -0.3317  0.0194
11758W        W29282  12.457   6.903  15.177  0.2463 -0.0122  0.0172
11759W        W29283  15.933   0.866  15.533 -0.0862 -0.0717 -0.0862
11760W        W29284  10.763  11.291   1.103  0.2113  0.0290 -0.0558
11761W        W29285  15.011  11.026   4.923  0.0404 -0.0918  0.0480
11762W        W29286   0.871   1.197  10.377 -0.0036 -0.3194 -0.0815
11763W        W29287   9.762  12.805   3.821  0.0969  0.0776 -0.2932
11764W        W29288   9.011  10.846  14.574 -0.0121 -0.2611 -0.5427
11765W        W29289   8.282   1.198  14.952  0.1411 -0.3870  0.0662
11766W        W29290  10.725  17.049  12.153  0.1000 -0.1802  0.2083
11767W        W29291   1.984   1.303  13.952  0.1060  0.2540  0.0597
11768W        W29292   2.825   9.271   4.325 -0.0055 -0.3746  0.0537
11769W        W29293   0.744   1.214   1.135 -0.1520  0.0310  0.1644
11770W        W29294   3.225   1.758  14.671  0.2988 -0.0158 -0.2325
11771W        W29295  17.815  17.498   1.755 -0.0455  0.0895  0.1430
11772W        W29296  11.734   8.844   0.591 -0.0568 -0.3539  0.2955
11773W        W29297  15.477   5.891   4.347 -0.1392  0.4434 -0.0147
11774W        W29298  13.390  18.350  11.949  0.0574  0.0575  0.2914
11775W        W29299   8.289  13.688   1.407 -0.5489  0.0163 -0.0777
11776W        W29300   8.159  14.056  12.993  0.0579  0.1030  0.1519
11777W        W29301  17.367   9.704  11.232 -0.2699 -0.1133 -0.2873
11778W        W29302  15.918  16.489  14.284 -0.1661 -0.3165  0.0259
11779W        W29303   5.084  13.699   3.518  0.1432 -0.2034  0.0110
11780W        W29304   4.896   0.431   3.688  0.3351 -0.2589 -0.1030
11781W        W29305  12.433  16.039  15.084 -0.0128 -0.2236  0.1721
11782W        W29306   6.435   6.619  15.173 -0.3292 -0.1235 -0.0020
11783W        W29307   5.230  14.237  12.766 -0.5601  0.2244 -0.1239
11784W        W29308  17.207   4.435   0.366  0.5808  0.0918 -0.1328
11785W        W29309  10.147   5.155  11.012  0.2172 -0.1385 -0.0403
11786W        W29310  10.370  14.429   3.425  0.2056 -0.0270 -0.0896
11787W        W29311   1.455   1.532  12.153  0.1260 -0.2953 -0.0946
11788W        W29312   0.015   7.452  11.873  0.1546 -0.0941 -0.1182
11789W        W29313  16.883  14.142  13.541 -0.1530  0.3687 -0.1632
11790W        W29314   9.473   7.767   4.400 -0.1613 -0.1881 -0.1308
11791W        W29315  18.143  18.315  13.963 -0.0515  0.1540  0.1199
11792W        W29316  11.662  17.825   2.219  0.2255 -0.0819 -0.1699
11793W        W29317   6.594   7.228   1.216 -0.0766 -0.0267  0.1607
11794W        W29318   0.871  10.443  14.023  0.1786  0.1555 -0.1310
11795W        W29319  11.011   1.625   2.121 -0.0114 -0.0930  0.0928
11796W        W29320   2.268  16.351   3.856 -0.0818 -0.0403 -0.1814
11797W        W29321   9.602  13.328  11.398 -0.2982  0.3470  0.0145
11798W        W29322   3.577   2.621   1.401  0.5540  0.0924 -0.1291
11799W        W29323   5.082   7.422  11.907  0.0479  0.1291  0.0402
11800W        W29324   3.695   8.150  10.395 -0.3210 -0.0470  0.1212
11801W        W29325  12.319   1.669   1.058  0.2909  0.1896 -0.0217
11802W        W29326   3.888   1.137  14.885  0.0351 -0.2149 -0.0118
11803W        W29327   8.669   3.797   0.184  0.0915  0.1920 -0.0305
11804W        W29328  17.612   2.750  10.976  0.3837  0.0273 -0.2938
11805W        W29329  11.066  14.229  11.707 -0.1035 -0.3036 -0.1329
11806W        W29330   1.952   3.218   1.330  0.2190  0.0276  0.2359
11807W        W29331  12.436  17.421   0.086 -0.0702 -0.0765  0.2398
11808W        W29332  10.130   5.792  11.897 -0.1331 -0.0210  0.0444
11809W        W29333   9.118   9.880   1.651 -0.0433  0.0870 -0.0142
11810W        W29334   4.477   8.576  14.917 -0.0278 -0.3289  0.0363
11811W        W29335   5.629  12.045   1.513 -0.2310  0.0262 -0.0586
11812W        W29336   7.239   7.859  15.634  0.1240 -0.1315 -0.2305
11813W        W29337  16.695   1.960   2.365  0.0102  0.0559  0.0992
11814W        W29338  11.467  13.364  13.315  0.1989 -0.0134  0.0043
11815W        W29339   7.922   4.719  10.770  0.3456 -0.0780 -0.3109
11816W        W29340   9.597   0.668   3.460 -0.0928 -0.0010  0.3789
11817W        W29341   0.765  15.547   2.951  0.2499 -0.3764 -0.1004
11818W        W29342  17.385   6.121   0.318 -0.4088 -0.2464  0.0001
11819W        W29343   5.852   3.555   1.612  0.0116 -0.0082 -0.2739
11820W        W29344   5.074   3.845   2.626  0.0828  0.0201 -0.1039
11821W        W29345  12.211   9.880   3.230 -0.1842  0.0085 -0.1021
11822W        W29346  16.451   6.822  13.272  0.0874  0.0776 -0.0256
11823W        W29347   5.424  15.412   3.003 -0.1946  0.1281 -0.0078
11824W        W29348   3.589   9.321   4.348  0.1807 -0.0228  0.1480
11825W        W29349   5.375   9.150  14.362 -0.0743  0.0001  0.0381
11826W        W29350   4.470   6.255  12.048  0.2966 -0.1296 -0.2947
11827W        W29351  13.236  16.374  12.213 -0.2336 -0.2429  0.0814
11828W        W29352   6.248   8.645   3.002 -0.2975  0.0164  0.1091
11829W        W29353  12.567   6.867   1.269  0.0083  0.0734  0.0378
11830W        W29354   3.834   4.757  10.978 -0.3627  0.0911  0.1244
11831W        W29355   6.495   4.203   0.082  0.1265 -0.1337  0.0951
11832W        W29356  16.575   1.931   2.887  0.1462 -0.0275 -0.2166
11833W        W29357   0.910  11.136  12.426 -0.1023 -0.0080 -0.0738
11834W        W29358   7.771   2.382  12.854 -0.5631  0.1351  0.0331
11835W        W29359   2.073  12.796  14.610  0.1797 -0.2179 -0.2308
11836W        W29360  15.927   4.921  14.732 -0.4198  0.2205  0.0346
11837W        W29361   5.364  14.995   5.574 -0.1260  0.1333 -0.0364
11838W        W29362   3.626  15.413  15.623  0.0480  0.1683  0.2085
11839W        W29363  16.626   1.604   4.299  0.3380 -0.0717  0.1197
11840W        W29364   4.302   6.840   4.470  0.1048 -0.0703  0.0339
11841W        W29365  16.281   8.681   5.453  0.1101 -0.1963  0.3080
11842W        W29366  10.536  10.199  12.568  0.0385  0.3203  0.1088
11843W        W29367  10.528   4.560   1.259 -0.1564 -0.2568 -0.2605
11844W        W29368   9.208   8.071   3.628  0.0310  0.1490  0.1355
11845W        W29369  14.170   3.355   1.371  0.1053 -0.1306  0.1260
11846W        W29370   6.919   5.873   4.172 -0.2007 -0.1065 -0.1354
11847W        W29371  12.610  17.049   4.959 -0.0601 -0.0612  0.0839
11848W        W29372   5.173   4.814  11.763  0.1171 -0.1521  0.1327
11849W        W29373   0.677  18.459   0.303  0.2181 -0.0351  0.3630
11850W        W29374   9.156  18.414  14.383 -0.1547  0.0254 -0.1644
11851W        W29375   4.114   5.687   2.047  0.0849  0.6359  0.1004
11852W        W29376  17.514  15.782   1.153  0.0182  0.3243  0.0117
11853W        W29377   7.034   5.923   0.992 -0.0410 -0.1385 -0.3459
11854W        W29378   5.877  10.855  11.404  0.1607 -0.1401 -0.1650
11855W        W29379  14.686  13.514   1.181  0.1280  0.1467 -0.0137
11856W        W29380   7.740  10.551   3.462 -0.1118 -0.1078 -0.2238
11857W        W29381  11.536   0.703  12.795  0.1857 -0.0662 -0.2308
11858W        W29382  14.850  13.630   2.625  0.0316  0.0340 -0.2341
11859W        W29383  15.977  13.215  13.438  0.2784 -0.0277  0.1907
11860W        W29384   3.756  17.806  15.595 -0.0531  0.1029 -0.0467
11861W        W29385  14.161  15.409  13.584 -0.1910 -0.2397 -0.0102
11862W        W29386  12.199  17.895   4.069  0.0524 -0.2262 -0.3039
11863W        W29387   6.132   9.688  10.914 -0.0673 -0.0367  0.3158
11864W        W29388  11.061  15.439  13.962  0.1452  0.0857  0.0524
11865W        W29389   3.245  15.341  14.753 -0.5122 -0.1324  0.3471
11866W        W29390  11.863  11.677  12.308 -0.1686  0.0942  0.1638
11867W        W29391  18.479  10.769  13.882  0.2800  0.0224 -0.2151
11868W        W29392  12.177   5.298   1.733  0.0312  0.1050  0.3817
11869W        W29393   0.160  15.662  12.038  0.2860  0.0529 -0.3723
11870W        W29394  12.471   0.322  13.533 -0.1183  0.0235 -0.0753
11871W        W29395   1.317   1.092  15.393 -0.0278  0.3636 -0.3329
11872W        W29396   1.245  17.722   0.366 -0.0670  0.0454  0.1184
11873W        W29397  15.843   7.935  14.464  0.1823 -0.1583  0.3550
11874W        W29398   0.398  13.944  11.317  0.0094  0.0818 -0.0341
11875W        W29399  12.234  16.463  11.791  0.2697 -0.0469 -0.0401
11876W        W29400  15.685  10.297  14.119  0.0882 -0.1563  0.1655
11877W        W29401  12.571  15.820  12.949  0.0943 -0.3000 -0.0621
11878W        W29402   5.470  15.489  11.499 -0.1466  0.1409  0.1531
11879W        W29403  17.442  13.154   0.709  0.2184 -0.0641 -0.0466
11880W        W29404  14.618   7.539   0.881  0.1550  0.2170  0.1401
11881W        W29405   6.843  17.654  11.446 -0.0380 -0.0905 -0.1224
11882W        W29406   2.814  15.428  14.075  0.2911  0.1638  0.1828
11883W        W29407   9.841  15.319  15.126  0.1672 -0.0014  0.0026
11884W        W29408   1.207   8.519   4.678  0.0435  0.0914  0.0069
11885W        W29409  16.799  16.734   2.821  0.0134 -0.0032 -0.3040
11886W        W29410  11.106   2.332  13.724  0.0933 -0.1400 -0.1078
11887W        W29411   2.404   5.502  15.316  0.2168 -0.1188  0.0260
11888W        W29412   4.792   2.799   1.297  0.1174  0.0502  0.3070
11889W        W29413  16.479  10.423  11.741 -0.1891  0.0053 -0.3563
11890W        W29414   0.092   1.297   1.475  0.1105 -0.0901 -0.3837
11891W        W29415   3.032  16.535  12.131 -0.1356 -0.3803  0.0449
11892W        W29416  12.519   4.521  14.061  0.2445  0.0942  0.2928
11893W        W29417   8.579  16.489  13.169  0.2418 -0.2397 -0.0400
11894W        W29418   5.482   5.602   3.915  0.2301 -0.0197  0.2708
11895W        W29419  11.493  12.209  15.602  0.2897 -0.0593 -0.1682
11896W        W29420   8.020  15.932  13.083  0.1612 -0.1500 -0.4127
11897W        W29421  17.670  16.345  13.061  0.0911  0.2203  0.0023
11898W        W29422   0.314   5.678   3.061 -0.2636 -0.0301 -0.2317
11899W        W29423   0.932   5.468   2.319 -0.2123  0.2067  0.0639
11900W        W29424   7.419  15.750   1.389 -0.0106 -0.0198 -0.0462
11901W        W29425  11.120  13.331  15.017  0.1090  0.2938 -0.1486
11902W        W29426   9.029  17.036   1.285  0.2374  0.0912 -0.0937
11903W        W29427   9.509  10.814   2.042 -0.0865 -0.3174  0.0725
11904W        W29428  15.248   1.668  14.067 -0.0655 -0.0547  0.1588
11905W        W29429  10.766   0.369  11.503 -0.1545  0.1813 -0.1477
11906W        W29430   8.591   4.705  13.121  0.0790 -0.1679 -0.2612
11907W        W29431   4.799  18.288  14.483 -0.4646 -0.1967  0.2452
11908W        W29432   0.917  12.950  11.722 -0.1765 -0.0555 -0.3029
11909W        W29433   2.981  12.606  14.125 -0.0433 -0.0701 -0.2399
11910W        W29434  17.411  13.481  15.227 -0.1809  0.1908  0.2595
11911W        W29435  17.003   3.112   1.306  0.3259  0.0946  0.1127
11912W        W29436   7.408  10.445   3.023  0.1186  0.0330  0.0730
11913W        W29437  18.238   9.879   4.141 -0.0640  0.0815 -0.2856
11914W        W29438   3.010   4.816  15.618  0.0521  0.0279  0.5192
11915W        W29439  10.863   2.872  13.030  0.1579 -0.1273 -0.0915
11916W        W29440  13.269  16.567  13.854 -0.0064 -0.0895  0.1827
11917W        W29441  15.239   3.222   2.257 -0.3490  0.2181 -0.2691
11918W        W29442  14.399   4.449  14.518  0.3843  0.0702 -0.0795
11919W        W29443  16.688   4.544   3.514  0.2179  0.0195 -0.0350
11920W        W29444  18.248  11.291   3.801 -0.0060 -0.0158 -0.0551
11921W        W29445   6.889   8.270   1.158  0.0915  0.3053  0.0981
11922W        W29446   8.389   7.719   0.883  0.0624 -0.1080  0.1138
11923W        W29447   8.332   9.838  10.818 -0.2273  0.0104 -0.0784
11924W        W29448  16.136   7.782   2.205 -0.1621  0.0559 -0.0125
11925W        W29449   3.757  15.672   0.340  0.2321 -0.1124 -0.2122
11926W        W29450   1.880   9.585   2.183 -0.1004  0.1397  0.1068
11927W        W29451  10.868  13.818  11.362  0.0693 -0.0033  0.0683
11928W        W29452  13.712  15.286   4.042  0.2438 -0.0358 -0.1362
11929W        W29453   6.997  16.314  15.113 -0.1191  0.0637 -0.2202
11930W        W29454  10.863  10.845   4.166  0.0708 -0.0563 -0.2042
11931W        W29455  13.481   8.614   1.578 -0.2746 -0.2246  0.1764
11932W        W29456   8.407  15.018   5.175  0.2475 -0.0394  0.1383
11933W        W29457  18.409   7.735   1.491  0.1539 -0.0907 -0.0305
11934W        W29458   1.183   6.195  11.840 -0.1080 -0.0722 -0.1157
11935W        W29459   4.896   9.686  13.531 -0.0504 -0.0717  0.0078
11936W        W29460   6.693   6.107  12.530  0.0879 -0.0301  0.0865
11937W        W29461  12.068   6.983   1.992  0.2136  0.2426  0.1240
11938W        W29462   0.663  13.278  14.794  0.0162 -0.2810  0.2892
11939W        W29463  16.186   5.162   4.012 -0.0888 -0.0338 -0.0225
11940W        W29464   0.329   8.456  15.000  0.1372  0.1966 -0.5084
11941W        W29465   1.490  10.990  14.508  0.1480 -0.0826  0.1789
11942W        W29466  15.012  12.477  14.603 -0.1706 -0.0563  0.2049
11943W        W29467   0.170  14.853  13.912 -0.1723  0.0658  0.2924
11944W        W29468   8.245  16.822  10.678  0.0334  0.2412  0.1577
11945W        W29469   0.067  14.873   0.157 -0.1695  0.1333 -0.2432
11946W        W29470   1.442  15.242   4.487  0.1480  0.0673 -0.0331
11947W        W29471  15.874  11.947   0.447 -0.0178 -0.1145  0.2334
11948W        W29472  17.865  11.737  10.496  0.0240 -0.1112  0.0791
11949W        W29473  15.237  15.782  14.119 -0.3388 -0.1771  0.0033
11950W        W29474   8.279   1.640   1.612  0.2958 -0.2076 -0.2254
11951W        W29475  10.084  16.939  11.715  0.1601  0.0846  0.1138
11952W        W29476   5.981  11.339   1.195 -0.0045  0.0078 -0.2036
11953W        W29477  13.223   2.558  12.888  0.0954 -0.0121  0.1007
11954W        W29478   3.132  15.710  15.428 -0.3071  0.1100  0.2693
11955W        W29479  14.060   3.827  14.395 -0.5046 -0.0646 -0.1587
11956W        W29480  17.273  16.857   3.185 -0.2525 -0.1688  0.0598
11957W        W29481   0.862  14.964  15.212  0.4251  0.0499 -0.2287
11958W        W29482  12.530  12.632   0.519  0.2776 -0.0973 -0.0265
11959W        W29483   8.193   0.364   0.906 -0.0639  0.0024 -0.0713
11960W        W29484  12.865   0.751   3.018 -0.1474  0.0813 -0.4370
11961W        W29485   4.657   1.749  14.578 -0.2762  0.2684 -0.1484
11962W        W29486   6.863  16.490   1.125 -0.3444  0.0346  0.1916
11963W        W29487   4.720  11.475  15.020 -0.2153  0.0748 -0.0998
11964W        W29488  17.314  10.419  11.993  0.1119  0.2413 -0.4099
11965W        W29489  17.951  13.922  11.004  0.0868  0.3820 -0.0928
11966W        W29490  11.056  14.833  10.816 -0.2661  0.1543 -0.1793
11967W        W29491  14.537   6.334   1.622  0.2638  0.0323 -0.2068
11968W        W29492   5.607   1.226   4.181  0.0179 -0.1632  0.1169
11969W        W29493  14.870   3.220  11.731  0.1172 -0.1307  0.0489
11970W        W29494  16.099   4.963  15.525  0.0560 -0.1814 -0.0678
11971W        W29495  10.329   5.994   4.714 -0.0147 -0.1795 -0.0368
11972W        W29496  14.949  15.092   2.615 -0.3697  0.2487 -0.2010
11973W        W29497  10.459   5.859   0.920 -0.4204 -0.0055 -0.2246
11974W        W29498   7.955   9.625   4.529 -0.0818  0.0909 -0.1631
11975W        W29499   7.060   5.088  13.431 -0.2562  0.2336 -0.1379
11976W        W29500  13.396   5.078  11.405  0.2918  0.0147 -0.1558
11977W        W29501   2.535   3.606   3.168  0.0022 -0.0183  0.0142
11978W        W29502  13.721  12.264  15.297  0.1471 -0.1655  0.1829
11979W        W29503   7.781  11.345   1.276  0.1118 -0.1956 -0.0413
11980W        W29504   3.066   0.997   2.758 -0.1752 -0.0898 -0.2522
11981W        W29505  11.341   4.773  13.806  0.0298 -0.0545  0.1287
11982W        W29506   1.409   9.439   4.191 -0.1185  0.0225  0.1872
11983W        W29507   9.740   3.012   0.351  0.1119  0.0444  0.0042
11984W        W29508  14.452  16.742   2.899  0.2405  0.1081 -0.0420
11985W        W29509   5.922  10.019   2.686 -0.4698 -0.2122  0.1479
11986W        W29510  14.139  17.976  15.262 -0.0724  0.0631  0.2746
11987W        W29511  12.083   1.832  10.863  0.1807  0.1266 -0.1771
11988W        W29512   8.034  17.287   3.899  0.1652  0.4311 -0.0514
11989W        W29513  12.561  11.486   1.611  0.3365 -0.1857 -0.2394
11990W        W29514   8.311   4.128   4.393  0.0298  0.3174  0.2085
11991W        W29515   6.013  13.445  14.372 -0.2349  0.2300 -0.1490
11992W        W29516  12.429   7.786  13.388 -0.1353 -0.1414 -0.0006
11993W        W29517   0.499   7.070  14.861 -0.1984  0.1451  0.0030
11994W        W29518   8.591   5.105   3.759 -0.0757  0.3959 -0.0367
11995W        W29519  13.769   9.698   2.063 -0.2961  0.4891 -0.0174
11996W        W29520   6.056   2.253  13.332 -0.2238 -0.1489  0.0161
11997W        W29521   5.006   2.844  14.798  0.1448  0.3110  0.0365
11998W        W29522   4.551  17.028  11.429 -0.1860  0.0798 -0.1686
11999W        W29523  14.780   4.066  11.926  0.1377 -0.0086  0.1897
12000W        W29524   0.920   0.356   1.448 -0.1828  0.3337  0.1095
12001W        W29525  12.553   7.533   0.832 -0.1451 -0.1421 -0.1753
12002W        W29526  11.136   7.812  11.908  0.2141  0.1971 -0.0613
12003W        W29527   5.580   2.308  11.029  0.1318  0.0415  0.1856
12004W        W29528  15.575  15.426   1.942  0.0470 -0.0775  0.0730
12005W        W29529  17.669   1.103  11.472  0.3585  0.0792  0.1335
12006W        W29530   7.062   6.532   2.257 -0.0984  0.1387  0.0034
12007W        W29531  10.408  16.762   3.938  0.0812 -0.0526  0.3106
12008W        W29532  12.470   5.823  13.157  0.1212  0.1859 -0.0397
12009W        W29533   1.686   1.469   2.809 -0.3808 -0.1844  0.0428
12010W        W29534  10.664   5.715  14.440  0.0046  0.3392  0.1076
12011W        W29535   4.732  13.138   4.852  0.1487  0.0020  0.0882
12012W        W29536  13.060   1.417   3.654 -0.4178  0.0341 -0.2757
12013W        W29537  13.998   6.811  15.561 -0.1475  0.1003 -0.2480
12014W        W29538  13.268  14.573  11.211  0.3128 -0.0043  0.0042
12015W        W29539  11.751  13.311   3.221  0.2874 -0.2083 -0.1902
12016W        W29540   2.199  14.507   2.442  0.2907  0.0700 -0.0273
12017W        W29541   7.695   6.076  10.429 -0.0695  0.1953 -0.1232
12018W        W29542   2.182   9.038  11.971  0.0003  0.0755  0.0097
12019W        W29543  14.546  14.983   4.809 -0.0373  0.1403  0.1101
12020W        W29544   3.129   2.167  13.208 -0.0528  0.2278  0.2714
12021W        W29545  15.288  17.004   0.541  0.1622  0.1674 -0.1094
12022W        W29546   4.071  14.521   4.719  0.0801  0.0244 -0.2369
12023W        W29547   4.103   6.670  14.258 -0.0880 -0.0418  0.0772
12024W        W29548   0.028   5.675  13.198 -0.0094  0.0089  0.0875
12025W        W29549   5.328  15.264   0.957 -0.0408 -0.0703 -0.0590
12026W        W29550   6.899  12.385   0.290 -0.1308 -0.2221 -0.0174
12027W        W29551   6.932   2.285   2.657  0.2185  0.1920 -0.1131
12028W        W29552   7.497   0.066  12.237  0.0628  0.2341 -0.1382
12029W        W29553  15.256  10.028  15.394 -0.1593  0.2815  0.3926
12030W        W29554  18.096   5.591  11.701 -0.0095  0.0339  0.0581
12031W        W29555   4.286   8.407   3.730 -0.0746 -0.0473 -0.1384
12032W        W29556  12.898   9.798  14.108  0.1504 -0.2937 -0.1566
12033W        W29557   6.274  16.136   3.935 -0.2538 -0.0032  0.1803
12034W        W29558   9.217  12.803   1.128  0.1944  0.0345  0.0552
12035W        W29559   6.618   1.002   4.486  0.3543  0.0511 -0.2552
12036W        W29560  13.746  12.217   0.709  0.1305  0.0245  0.2108
12037W        W29561   8.216   3.547  15.641  0.0727 -0.0332 -0.0527
12038W        W29562  12.346   9.209   1.298 -0.1387  0.0958 -0.2776
12039W        W29563   1.321  11.331  12.253 -0.0228 -0.0180 -0.0207
12040W        W29564  18.464  16.030  14.875 -0.0408 -0.1220 -0.0617
12041W        W29565   0.573  18.135   1.240 -0.0311 -0.2275 -0.0395
12042W        W29566   6.994   5.887   1.514  0.2097 -0.4285  0.0690
12043W        W29567   3.870  10.796   0.010  0.1898  0.0645 -0.1096
12044W        W29568   5.348   6.159   4.016  0.2047  0.1404 -0.2385
12045W        W29569  13.447  16.872  12.053 -0.1307 -0.0149  0.0537
12046W        W29570   0.700   5.201   9.826  0.1759 -0.2664  0.1491
12047W        W29571  17.345  14.951   0.884  0.1619 -0.0272  0.0962
12048W        W29572   8.012   1.404   2.771 -0.0196  0.1263 -0.2215
12049W        W29573  15.477   0.105  12.535 -0.2154  0.0356 -0.3945
12050W        W29574   0.735  17.525  15.216 -0.0932  0.0349 -0.0086
12051W        W29575   9.882  12.667   9.958  0.1358 -0.1054  0.3088
12052W        W29576  16.755  11.725  14.860 -0.1031  0.1055 -0.2677
12053W        W29577   0.989   1.521   1.695  0.0488  0.0357  0.1290
12054W        W29578  14.366   1.472   4.699 -0.3164 -0.0067  0.0242
12055W        W29579   4.907  10.595   2.687  0.1339  0.1557 -0.2234
12056W        W29580   9.318  10.055   2.525  0.2683  0.2836  0.0839
12057W        W29581  17.778   2.310  13.781 -0.0181  0.0316  0.0064
12058W        W29582  13.928   2.605   3.291  0.2021  0.2194 -0.0806
12059W        W29583   3.248   1.051   0.762 -0.1778  0.0427  0.0856
12060W        W29584  17.104   7.534  13.402 -0.0660  0.1796  0.0834
12061W        W29585   3.121   7.850   3.400 -0.0044  0.1053 -0.0325
12062W        W29586  13.937  17.778   6.050  0.0036 -0.1210  0.0635
12063W        W29587   6.919  13.206   5.141  0.2077 -0.0724  0.1651
12064W        W29588  11.386   8.530   9.900  0.1963 -0.0164  0.2400
12065W        W29589  14.961  13.136   2.802 -0.1740 -0.0760 -0.0129
12066W        W29590   3.537  14.124  13.811  0.0956 -0.1346  0.3232
12067W        W29591   8.003  16.483  14.792 -0.0089  0.0546 -0.1049
12068W        W29592  15.075   3.596   4.904  0.2557  0.1608  0.0686
12069W        W29593   0.026   3.921   0.579 -0.2523  0.0800  0.1148
12070W        W29594  15.461   3.879   3.561  0.1550  0.0197 -0.3381
12071W        W29595   0.254  16.564   4.188 -0.1989  0.0923  0.2389
12072W        W29596  11.796   4.752  14.593  0.2694 -0.2595  0.1528
12073W        W29597  15.840   2.807  12.404 -0.1605 -0.0721 -0.0147
12074W        W29598  10.442   4.621   4.517  0.4856  0.5113  0.1526
12075W        W29599   7.075   8.311   4.044 -0.1321 -0.2989  0.2682
12076W        W29600  15.442  17.642   2.232 -0.0921  0.1519 -0.2947
12077W        W29601  11.920  13.048   0.816 -0.1297  0.1407  0.0909
12078W        W29602   4.518  15.220   0.135 -0.1366  0.0532  0.2608
12079W        W29603  10.260  13.603   1.459  0.0141 -0.1165 -0.1286
12080W        W29604   9.215   1.163   1.423 -0.2337  0.1953 -0.2229
12081W        W29605   8.676   3.659   2.854 -0.3518 -0.0568 -0.0327
12082W        W29606  15.814   6.124   3.999 -0.0246 -0.0489 -0.1918
12083W        W29607   7.137   4.321   2.296 -0.2547  0.0889  0.1203
12084W        W29608   5.800  10.826   1.084  0.0538  0.0453 -0.0056
12085W        W29609  13.950   6.997   3.311  0.2638  0.2252 -0.1785
12086W        W29610  16.458  14.510  11.665 -0.1012 -0.1257  0.1960
12087W        W29611   9.968  14.059   2.851 -0.1080  0.0123 -0.1697
12088W        W29612   8.371   4.227  13.112  0.0036 -0.0216  0.1116
12089W        W29613   9.697  12.012  13.532  0.1460 -0.0340 -0.0231
12090W        W29614  14.993   7.056  11.683  0.0126 -0.1735 -0.3395
12091W        W29615  12.748   9.977  13.505  0.1296  0.0826  0.1626
12092W        W29616   2.649  12.385  11.556 -0.0825  0.1368 -0.0438
12093W        W29617  15.421  14.917   2.663  0.0398  0.0702 -0.0050
12094W        W29618   0.661   8.724   0.026 -0.0544  0.2320  0.3023
12095W        W29619   1.792   5.490  12.212  0.0417 -0.1100  0.0744
12096W        W29620  16.724  14.281   3.247  0.1664  0.1346 -0.2456
12097W        W29621   7.888  13.927  13.425 -0.2709 -0.0759  0.0219
12098W        W29622  10.168  10.487  11.369  0.1440  0.0049  0.1711
12099W        W29623  12.477   2.265  11.180 -0.0172 -0.0689 -0.0576
12100W        W29624   7.633   5.067  10.435 -0.1398 -0.3411  0.1049
12101W        W29625  14.593  12.032   0.572  0.1282 -0.1225 -0.1602
12102W        W29626   7.932  16.269   3.168 -0.0321 -0.0226 -0.1474
12103W        W29627  12.876  13.999   4.777 -0.1912 -0.2108 -0.1725
12104W        W29628   3.856  15.973  14.964 -0.0529 -0.3521  0.0106
12105W        W29629  15.979   2.208  14.904  0.0085  0.4202 -0.3243
12106W        W29630  10.336  15.535  12.435  0.1765 -0.0205  0.1991
12107W        W29631  12.426   4.089  15.489 -0.0952 -0.2329  0.1184
12108W        W29632   9.648  10.407   2.304  0.0971 -0.0912  0.2408
12109W        W29633  14.612  14.202   2.448 -0.3020  0.1904  0.0381
12110W        W29634   4.290   9.399  14.456 -0.2441  0.1508 -0.1329
12111W        W29635  13.577  13.482   4.290  0.2814 -0.0738 -0.1492
12112W        W29636   1.748   4.012  11.057 -0.2210 -0.1478 -0.0900
12113W        W29637   1.657  10.400  15.653 -0.3828 -0.2356  0.1285
12114W        W29638   6.593   5.750   1.907  0.2136 -0.0046 -0.2784
12115W        W29639  14.773   5.723  15.080 -0.2120 -0.0364 -0.0407
12116W        W29640   0.478  12.394  15.329 -0.1116  0.1679  0.2039
12117W        W29641  12.091  17.197   3.232  0.1107 -0.0925 -0.0412
12118W        W29642   8.667  13.686   3.773  0.1078 -0.2011 -0.1684
12119W        W29643   4.340  12.441  10.696  0.1512 -0.1908  0.3194
12120W        W29644  11.786   8.592   1.065 -0.3501 -0.1565 -0.0563
12121W        W29645   5.374  10.302  14.318 -0.1383 -0.0326 -0.0321
12122W        W29646  16.422   7.353   2.207  0.4547 -0.2621 -0.1603
12123W        W29647  13.292   7.744   1.519 -0.5242 -0.3014  0.1337
12124W        W29648   1.791  10.136   2.843 -0.0349  0.1874  0.2314
12125W        W29649   4.677  12.839  14.688 -0.1144  0.3568 -0.0052
12126W        W29650   3.133   4.110   2.887 -0.1115  0.0672  0.0436
12127W        W29651  17.453  13.598  11.035 -0.0867  0.2993  0.1468
12128W        W29652   0.443  10.995   1.388  0.0016  0.5062  0.2839
12129W        W29653   6.944   1.174   1.675  0.3351  0.2327 -0.3058
12130W        W29654   6.772   3.306   1.981  0.3371  0.0104 -0.1671
12131W        W29655   3.394  11.515  12.549 -0.2341  0.0271  0.3522
12132W        W29656  12.630   4.684   3.993  0.0110 -0.1230  0.2459
12133W        W29657  16.902  10.585   3.863 -0.0102  0.1032 -0.2147
12134W        W29658   8.346   0.108   0.557 -0.0332 -0.0956 -0.0462
12135W        W29659   2.210   7.004  14.494  0.0650  0.0083 -0.1089
12136W        W29660   0.699   3.973  12.662 -0.0716 -0.0122  0.0172
12137W        W29661   4.798   6.764  14.800  0.1426 -0.0416  0.1250
12138W        W29662  18.152   4.733  11.058  0.0274  0.1773 -0.2352
12139W        W29663  11.605   2.412   2.992  0.0787  0.0277 -0.0491
12140W        W29664   5.285  15.675  14.543  0.0995  0.3557  0.2940
12141W        W29665   4.662   8.791  13.348 -0.0219  0.0304 -0.1423
12142W        W29666   6.471  17.232   2.387 -0.3428 -0.1300 -0.4826
12143W        W29667  15.126   5.094  12.753 -0.2208  0.1807 -0.6002
12144W        W29668   2.858  13.906   5.997 -0.0837  0.0699  0.1136
12145W        W29669   9.722   9.225  15.396  0.0715 -0.2204 -0.1141
12146W        W29670  17.365  12.957   1.180  0.2105  0.1569  0.1864
12147W        W29671  14.704  16.356  13.417  0.0713  0.3307  0.4835
12148W        W29672  11.177   0.640  15.145  0.0055 -0.2661  0.0674
12149W        W29673  17.120   5.380   1.999  0.0897  0.1641  0.1994
12150W        W29674   7.754  17.679  13.296 -0.1728 -0.1686  0.0632
12151W        W29675  13.623  15.126   2.294  0.1794  0.4020  0.1004
12152W        W29676   4.478  13.253  15.536 -0.1176 -0.3696 -0.1443
12153W        W29677   0.594   0.154  14.750 -0.1889  0.0770 -0.1286
12154W        W29678  10.968  13.935   4.644  0.2468  0.3152  0.1014
12155W        W29679   7.640   9.337   3.003  0.0346 -0.0861 -0.0792
12156W        W29680   5.620   6.569   9.640 -0.2516  0.3558 -0.1928
12157W        W29681   4.824   9.610  11.899 -0.0391 -0.1765 -0.0032
12158W        W29682   3.531   7.616   3.510  0.0320  0.1606  0.0611
12159W        W29683   3.672  18.137  13.906  0.0265 -0.0586  0.2302
12160W        W29684  16.286  15.094  11.481  0.2415  0.3537  0.0210
12161W        W29685  14.336  16.956  15.643  0.0650 -0.1141 -0.2276
12162W        W29686   9.687  11.611  15.225 -0.0250 -0.2041  0.0410
12163W        W29687  13.894   6.022  13.103 -0.1857  0.3041  0.0143
12164W        W29688   0.575   0.130   3.437  0.1656 -0.1781  0.0383
12165W        W29689   6.131  10.358  12.630  0.1138  0.1799  0.0186
12166W        W29690   3.115   2.747   2.293  0.1152  0.0773  0.0214
12167W        W29691  14.282  17.959   4.570  0.0661  0.0698 -0.0096
12168W        W29692   6.543   8.659   1.450  0.1986 -0.0005  0.0570
12169W        W29693   8.542   3.816  12.097  0.0282 -0.0769 -0.0265
12170W        W29694   3.631   6.319   2.945 -0.0399  0.2035 -0.1339
12171W        W29695  10.279  11.827  12.243  0.1770 -0.1939  0.0269
12172W        W29696  18.251  11.965   1.196  0.1562  0.0899  0.1387
12173W        W29697   0.447   6.131   4.662 -0.1599 -0.1176  0.0739
12174W        W29698  11.388   1.927   4.747  0.2732 -0.0763  0.3478
12175W        W29699   2.061   7.172   0.037  0.0687  0.0160  0.2014
12176W        W29700   5.320   1.650   1.796  0.2327  0.1962 -0.0769
12177W        W29701   2.521  15.601  12.797 -0.1345 -0.0617  0.0813
12178W        W29702   1.548   7.149  14.695 -0.1422  0.0546  0.0654
12179W        W29703  15.651  14.832  14.406 -0.2937 -0.0666 -0.1583
12180W        W29704   2.314   6.120   1.916  0.2132  0.0999  0.2157
12181W        W29705  17.661  13.306   5.363 -0.0822 -0.2308  0.0221
12182W        W29706  17.099   0.618  11.767  0.0367  0.0119  0.0440
12183W        W29707   5.091   8.017   0.881  0.4267  0.0287  0.4612
12184W        W29708  17.525  16.878  12.873  0.1668  0.1357 -0.0718
12185W        W29709   7.772   1.584  13.373  0.0357  0.0890 -0.1981
12186W        W29710   0.414  14.478   0.176  0.1229 -0.1027  0.0747
12187W        W29711  13.896  14.600  11.599 -0.0261  0.0691  0.2511
12188W        W29712  11.950  13.878   4.893  0.0811  0.0834  0.1892
12189W        W29713  11.860  16.770  13.955  0.1191  0.3692  0.4415
12190W        W29714  16.471  14.084   2.501  0.3479  0.0809  0.0823
12191W        W29715   6.745  14.552   1.794 -0.1852 -0.0847  0.1811
12192W        W29716  11.080   5.624  12.660  0.2259  0.1569  0.0359
12193W        W29717   2.460  11.501  13.027  0.0408  0.1067 -0.1074
12194W        W29718  11.044  10.299   4.175 -0.0269  0.3327 -0.0940
12195W        W29719  17.363   5.329  13.686  0.1659  0.2705 -0.1662
12196W        W29720  16.826   4.983   2.603 -0.0692  0.0625  0.3234
12197W        W29721   9.013   8.171   0.581  0.0542 -0.0339 -0.4381
12198W        W29722   4.306   9.070   2.243  0.1130  0.0502  0.1720
12199W        W29723  10.501  15.111   5.282  0.2478  0.2664 -0.1191
12200W        W29724  16.316   3.372  13.606 -0.0259  0.0761 -0.1758
12201W        W29725   1.106   8.040  13.776 -0.3126 -0.0808 -0.1095
12202W        W29726  18.055   0.643   2.194 -0.1012 -0.1241  0.0675
12203W        W29727   1.605   0.827   1.297  0.1343 -0.1600  0.2733
12204W        W29728   3.401   1.276  11.707 -0.0479  0.1565  0.0564
12205W        W29729  18.406  17.615  14.403 -0.0935 -0.2402 -0.2267
12206W        W29730  13.443  11.975  10.596  0.0567  0.1355  0.1988
12207W        W29731   4.946   6.500   0.513 -0.1461  0.1671 -0.2580
12208W        W29732  16.257  11.933  10.218  0.0343 -0.0931  0.2097
12209W        W29733   9.777  17.368  14.847 -0.1314 -0.1289  0.2566
12210W        W29734  10.374   0.429  14.102 -0.4453 -0.1421  0.1911
12211W        W29735  11.085  10.354  13.881  0.0540  0.0722  0.1433
12212W        W29736  16.115   7.024   4.277 -0.0948  0.4432  0.0849
12213W        W29737  10.359   4.091   3.938  0.0861 -0.0575 -0.0327
12214W        W29738  16.625   8.936   0.964 -0.2802 -0.0168 -0.1498
12215W        W29739  11.036   3.986   5.179  0.3207 -0.0828 -0.1744
12216W        W29740  14.968   9.175   3.091  0.0262 -0.1039  0.0048
12217W        W29741  14.256   7.890   1.689  0.2136 -0.1904 -0.2215
12218W        W29742  10.733   1.750  11.335  0.2986 -0.1445  0.0658
12219W        W29743  15.858   4.563   2.815 -0.1630  0.1288 -0.2144
12220W        W29744   8.685   8.204  12.660 -0.1510 -0.0921 -0.0655
12221W        W29745   6.030   3.038   3.340 -0.0803  0.0262  0.1514
12222W        W29746  16.734  12.945  10.784  0.2072 -0.0572  0.0397
12223W        W29747   4.238   3.705  14.098 -0.1672 -0.2318  0.2064
12224W        W29748  10.937   2.210  15.631  0.2058  0.0836 -0.1109
12225W        W29749   3.559  14.873  12.525 -0.1684 -0.1619 -0.0968
12226W        W29750  18.254   6.300   1.014 -0.3087 -0.0094  0.2329
12227W        W29751   8.648  14.924   0.881  0.0377  0.0036  0.3278
12228W        W29752   8.273   5.903   3.543  0.1080 -0.1013 -0.1601
12229W        W29753  15.333  18.135  12.249  0.1640  0.0274 -0.3822
12230W        W29754   4.079  14.570   3.771 -0.0751  0.0248  0.1912
12231W        W29755   1.594  16.479   5.620  0.1556 -0.1668  0.0342
12232W        W29756  11.169   4.090  12.076 -0.1044  0.0340 -0.2193
12233W        W29757   9.228  13.561   4.447 -0.0647  0.2561 -0.1622
12234W        W29758  12.489   0.499  15.648 -0.1762  0.0748 -0.0488
12235W        W29759  17.613   2.899  13.958  0.3734 -0.2743  0.2536
12236W        W29760   2.520  17.071  12.089  0.2035 -0.0885  0.2091
12237W        W29761  11.271   5.434   0.568 -0.1660 -0.1356  0.3266
12238W        W29762   9.942  14.456   0.045 -0.1960  0.0048 -0.3403
12239W        W29763   1.760   1.313  11.768 -0.2216  0.1839 -0.0248
12240W        W29764  17.060   6.301  14.154  0.1650 -0.0837 -0.0127
12241W        W29765  15.701   3.233  15.239 -0.2328 -0.2118  0.2965
12242W        W29766   0.334  12.243  11.630 -0.2135  0.2438 -0.0027
12243W        W29767  18.126  11.804   4.644 -0.0046 -0.0614 -0.2491
12244W        W29768  14.464   9.337   5.518  0.0188 -0.1857 -0.3828
12245W        W29769   5.453  15.462   4.405 -0.0374 -0.1649  0.3253
12246W        W29770   5.749  13.349   3.016  0.1227 -0.2176 -0.1303
12247W        W29771  13.250  11.062  12.960  0.1802  0.1647 -0.0509
12248W        W29772  18.260   4.810   2.786 -0.0147  0.4204  0.0953
12249W        W29773  13.946   1.090  10.199 -0.0038  0.0192 -0.0424
12250W        W29774  11.646   5.725  14.336 -0.1371  0.2558 -0.0893
12251W        W29775  11.926   6.058  15.182 -0.0050  0.0130 -0.2330
12252W        W29776   0.469  13.220   4.132 -0.2561 -0.2867 -0.4080
12253W        W29777   8.461   4.316  14.150  0.0470 -0.1314  0.2964
12254W        W29778  12.565  16.549   4.282 -0.1367 -0.3665  0.0534
12255W        W29779   3.701  12.291   1.634 -0.0933  0.0224 -0.2953
12256W        W29780   6.016  16.277  11.798  0.1924  0.5911  0.0250
12257W        W29781   4.922   3.718  15.610 -0.2036 -0.0506 -0.1983
12258W        W29782   8.277  14.517   4.205  0.1676 -0.0097  0.0293
12259W        W29783  16.584  18.213  11.459 -0.0822  0.1328 -0.0200
12260W        W29784   2.846   6.095   0.581  0.0298 -0.1883  0.3149
12261W        W29785   8.000  14.203   2.603  0.2811 -0.1801  0.2540
12262W        W29786  12.280  16.608  15.442 -0.0540  0.2973 -0.0251
12263W        W29787  11.149  13.475   0.527  0.2124 -0.1710  0.1051
12264W        W29788  17.010   3.949   2.749 -0.1956  0.0753  0.4435
12265W        W29789   6.734   4.163  10.789  0.3115  0.0145  0.0245
12266W        W29790  11.839  10.716  14.375  0.1416  0.2131 -0.1057
12267W        W29791   4.153  11.642   2.756 -0.0821  0.3029 -0.0820
12268W        W29792   3.081   8.589  11.487 -0.3431  0.1493 -0.0813
12269W        W29793   3.874  17.057   4.229  0.1061 -0.2814  0.2918
12270W        W29794   9.884  13.889   5.258 -0.0526 -0.1135 -0.4715
12271W        W29795  16.798  17.484   1.634  0.1806 -0.2183 -0.0034
12272W        W29796   1.043   7.074  15.635  0.1121 -0.0924 -0.2173
12273W        W29797  14.963   9.072   1.587 -0.3062  0.3009 -0.0710
12274W        W29798   2.552   0.501   4.905  0.1673  0.5359 -0.0046
12275W        W29799  11.667  18.190   3.432  0.1120  0.1156 -0.2693
12276W        W29800   4.351   2.619   0.656  0.0974 -0.3065  0.0792
12277W        W29801  16.609   0.905   1.979  0.0011 -0.2205 -0.0161
12278W        W29802  17.664   6.869   2.931 -0.1338  0.0373 -0.1714
12279W        W29803   7.510   3.994   2.911  0.1084 -0.0907 -0.2242
12280W        W29804  11.032   9.702   3.431 -0.0617  0.0697  0.0829
12281W        W29805   6.774  11.057  14.994 -0.0314  0.1891  0.1262
12282W        W29806   1.264  18.430   2.389 -0.3429  0.1528  0.1149
12283W        W29807   4.226   1.743  13.389  0.0908  0.1528  0.2995
12284W        W29808   3.797   6.028  13.761  0.0897  0.0927  0.1021
12285W        W29809  11.181  17.081  13.737  0.0767 -0.0554  0.2594
12286W        W29810   4.197   3.164   0.313  0.0731  0.1754 -0.1961
12287W        W29811   7.507  14.868  12.074  0.1444 -0.0261  0.0047
12288W        W29812  13.570   9.595   5.210  0.0649  0.0893 -0.0516
12289W        W29813   4.234  17.919   4.279  0.1155  0.0581  0.0820
12290W        W29814   4.927   9.786  12.605 -0.1832 -0.0693  0.1732
12291W        W29815  11.737  14.702   2.115  0.3780 -0.3640  0.0525
12292W        W29816   8.641  15.460   4.900 -0.0095 -0.2307  0.0292
12293W        W29817   4.387   3.655  13.528  0.0262  0.0313  0.0005
12294W        W29818   7.400   4.641  14.414  0.1153 -0.2321  0.0284
12295W        W29819  14.760  16.623  13.013  0.0311 -0.0422  0.1047
12296W        W29820  18.299  11.662   2.875  0.1199 -0.2433  0.0531
12297W        W29821   0.250   8.927   0.210  0.2253 -0.0634  0.0067
12298W        W29822   5.578  11.882  13.351 -0.1176 -0.1434 -0.1559
12299W        W29823  12.093  10.126   2.565 -0.0400 -0.0972  0.0045
12300W        W29824   4.384  14.717  10.795 -0.0245 -0.0054  0.1730
12301W        W29825   6.337   0.759   0.078  0.4092  0.0065  0.0723
12302W        W29826  14.497  17.527  13.821 -0.0331 -0.1889  0.0495
12303W        W29827   1.142  14.923   2.219 -0.0142  0.1365  0.4371
12304W        W29828  12.432   5.213  13.730  0.2052 -0.2115  0.1086
12305W        W29829   0.268  16.606  15.273 -0.4603 -0.1865 -0.1374
12306W        W29830   3.214   4.790   3.607  0.0796 -0.1753 -0.0347
12307W        W29831  13.972   7.491  13.983  0.1353  0.1070 -0.2699
12308W        W29832  17.311  18.365   5.526 -0.2031 -0.0180  0.0145
12309W        W29833   7.569   9.912   0.024 -0.0819 -0.2457  0.1895
12310W        W29834   7.830  10.865   1.850 -0.2223  0.0172 -0.2185
12311W        W29835   8.040   6.506   4.078 -0.2057 -0.3378 -0.0712
12312W        W29836   1.639   9.446   0.639  0.0826  0.2635 -0.0016
12313W        W29837   0.135   5.912   2.034  0.2166 -0.0514 -0.0345
12314W        W29838   7.805  10.809   3.004  0.1081  0.4371  0.1656
12315W        W29839  15.923  13.010  11.218  0.0789 -0.0921  0.0025
12316W        W29840   5.876   6.146   0.647  0.1203  0.4980  0.0031
12317W        W29841   8.690  11.043  14.223  0.1135  0.0586  0.2211
12318W        W29842   6.222  12.711   1.993  0.1518 -0.2069  0.1531
12319W        W29843   7.164  16.805  14.106 -0.6649 -0.0262  0.0528
12320W        W29844  13.126   9.195   3.190  0.1663  0.1796  0.3282
12321W        W29845   3.125   5.170   0.240  0.2024 -0.1401  0.0672
12322W        W29846   3.541  15.621  15.091  0.3419 -0.0302 -0.2740
12323W        W29847  15.430  17.797   0.073 -0.1772  0.2242  0.1066
12324W        W29848   4.601  18.411  13.995  0.0903 -0.0239 -0.0938
12325W        W29849  14.279  12.062  15.148 -0.0582  0.1207 -0.1627
12326W        W29850  11.857   8.740   1.534 -0.1739  0.0411  0.5144
12327W        W29851  13.588  15.278   5.089  0.0406 -0.2544 -0.1662
12328W        W29852  17.733  17.896   3.073  0.1070 -0.0106  0.1148
12329W        W29853   4.545  10.750   3.016 -0.0803 -0.2293  0.1140
12330W        W29854  12.620  15.223  12.246  0.0005 -0.3152 -0.3463
12331W        W29855   9.517  12.070  14.837  0.0397 -0.1096  0.0230
12332W        W29856   7.405   0.820   0.265  0.0324 -0.0529  0.1167
12333W        W29857   7.755   0.718  14.753 -0.0505  0.1137 -0.0681
12334W        W29858   5.712   8.000  12.167 -0.0521 -0.0644 -0.0752
12335W        W29859   7.549   1.771   3.394 -0.1253  0.0304  0.0911
12336W        W29860   4.886   1.863  12.619 -0.0673 -0.3890  0.1649
12337W        W29861   5.406   2.982  11.752 -0.0100 -0.2762  0.1467
12338W        W29862   6.521   3.156  14.753 -0.4077 -0.1731  0.0262
12339W        W29863   6.796  18.393   4.473 -0.0953  0.2358 -0.1676
12340W        W29864  13.521   7.378   3.345 -0.2949 -0.0260 -0.1246
12341W        W29865  16.398   8.001   3.231  0.1671  0.1847 -0.4300
12342W        W29866   6.434  14.828  12.604 -0.1594 -0.0495  0.0832
12343W        W29867  12.752  13.584  12.946  0.1326 -0.1775  0.0279
12344W        W29868   2.741   9.286   1.134 -0.1824  0.0422  0.1969
12345W        W29869  10.340   4.087  12.973 -0.0449  0.1363 -0.1577
12346W        W29870  11.434   7.968   3.973  0.0875 -0.1054  0.1188
12347W        W29871  10.122   3.656  13.426  0.1604 -0.2233  0.0495
12348W        W29872   9.787   4.172  11.559 -0.2777  0.3043  0.1543
12349W        W29873  16.926   2.329   4.423 -0.2412  0.1502 -0.0813
12350W        W29874  12.464   7.199  12.140  0.0007  0.1187  0.0965
12351W        W29875  11.686   8.231  10.721 -0.1081  0.0185 -0.1022
12352W        W29876  18.456   0.915   3.350  0.0299 -0.2264 -0.2762
12353W        W29877   0.664  12.505  14.089  0.1207 -0.1604 -0.0514
12354W        W29878   6.942  13.997   1.256  0.1869 -0.1611  0.4913
12355W        W29879  15.340   8.224  12.154 -0.0548 -0.0618 -0.0332
12356W        W29880   1.454  17.155   4.519 -0.0516  0.1533 -0.1163
12357W        W29881  13.012   5.212   0.324  0.3231 -0.0306 -0.0399
12358W        W29882   2.782   9.476   3.305 -0.2824 -0.2888 -0.1683
12359W        W29883  17.264   6.984  14.391 -0.0307 -0.4464  0.3494
12360W        W29884  14.209  17.208   1.414  0.1553 -0.1175 -0.2235
12361W        W29885  15.241   9.865   0.579  0.1423 -0.0429  0.1250
12362W        W29886   0.800   4.394   3.929  0.1459 -0.3081 -0.2824
12363W        W29887  10.087  14.037   3.364 -0.1414 -0.1293  0.1255
12364W        W29888   4.846   5.889   2.146 -0.0429  0.0922 -0.3403
12365W        W29889   7.864  10.577   0.652 -0.1997 -0.1654  0.2002
12366W        W29890  13.069   1.715  12.405 -0.1553  0.2679 -0.1439
12367W        W29891   1.778  14.306  11.871  0.1551 -0.2066 -0.1019
12368W        W29892   0.166  12.572   4.844  0.0259  0.2616 -0.2527
12369W        W29893  11.881   3.559   1.918  0.0542 -0.0233  0.0053
12370W        W29894   5.836   6.204   2.022 -0.3689  0.0057  0.1652
12371W        W29895  17.774   8.984  14.258  0.1274 -0.0886 -0.0619
12372W        W29896  13.067   9.873   3.945 -0.1949 -0.1862  0.2158
12373W        W29897   6.835  13.757  12.031 -0.0259  0.0395 -0.1298
12374W        W29898   0.112  12.595  10.922 -0.0518 -0.1571 -0.3460
12375W        W29899   2.575   4.339  12.409  0.2386  0.0448 -0.0835
12376W        W29900  10.271  15.910  14.610 -0.0824  0.1694  0.0822
12377W        W29901   6.722   1.970   0.395  0.1840  0.0254  0.0222
12378W        W29902   5.054  16.891   3.025  0.3096  0.3771 -0.1146
12379W        W29903   0.891   8.055   1.635  0.3546 -0.1840  0.0049
12380W        W29904   3.847  13.443  11.210 -0.0999  0.0273 -0.1853
12381W        W29905  17.580  10.620  12.564 -0.2054  0.3796 -0.0872
12382W        W29906  14.133   3.738   3.968 -0.0014 -0.2768  0.0809
12383W        W29907   4.012  15.637   3.448  0.0566  0.0774  0.0004
12384W        W29908  11.313   2.622  12.834  0.3202  0.1194 -0.0203
12385W        W29909  16.047   6.120  11.616  0.2447  0.0443  0.1527
12386W        W29910   5.186   0.056   2.248  0.0954 -0.0738 -0.1277
12387W        W29911   3.621  11.194   0.810 -0.0000 -0.1062 -0.0222
12388W        W29912   0.318   5.002   0.613 -0.2106 -0.0638 -0.2164
12389W        W29913   8.327   1.121  12.073 -0.0931 -0.1110  0.3018
12390W        W29914  16.849   4.674  13.838  0.2694  0.2407 -0.0253
12391W        W29915   1.583  16.493   0.134  0.1010 -0.0639  0.1701
12392W        W29916  15.948  18.182   3.891  0.1933  0.2183  0.3194
12393W        W29917   5.518   0.232   2.597 -0.0169 -0.1139  0.2243
12394W        W29918  18.102  11.136  13.665  0.0191 -0.2566  0.2351
12395W        W29919  13.866  17.725  15.674 -0.0957  0.0990 -0.0076
12396W        W29920   7.759  12.644  14.834 -0.1420  0.1493  0.1076
12397W        W29921   1.840   9.057  12.300  0.2187 -0.0109  0.1830
12398W        W29922  12.830   0.437  11.434 -0.0315 -0.0362 -0.0951
12399W        W29923  13.099  12.095   2.283  0.1489  0.1036  0.3617
12400W        W29924  15.522  15.602  13.217 -0.2116 -0.3082  0.0334
12401W        W29925   1.958   4.962  13.543  0.0353 -0.2855  0.1777
12402W        W29926  15.997   5.818  15.078  0.1300  0.5921 -0.1982
12403W        W29927   1.646  10.700  15.230  0.0813  0.1525  0.0834
12404W        W29928  15.388  12.684   5.094  0.0065  0.1523 -0.0088
12405W        W29929   0.160  17.857  12.137  0.1482 -0.2115  0.0814
12406W        W29930   1.010   7.988  15.691 -0.0258 -0.0030 -0.3417
12407W        W29931   3.314  17.688  15.074 -0.2143  0.0998  0.2981
12408W        W29932  10.082  18.326  15.014  0.1044 -0.0553  0.0383
12409W        W29933   1.402  10.673  11.590 -0.2120  0.1411  0.0058
12410W        W29934   7.751  15.506  12.955 -0.0257  0.0391 -0.1678
12411W        W29935   5.136   4.985   2.781  0.2179  0.0061  0.0451
12412W        W29936   7.685   1.647  15.431 -0.2282 -0.5140 -0.0958
12413W        W29937  16.977  17.342   5.011  0.0327 -0.3265 -0.2371
12414W        W29938  11.507   1.081  13.660  0.0721  0.0915 -0.3074
12415W        W29939   1.021   3.688   1.337  0.2080  0.1794  0.1105
12416W        W29940  10.848   0.537  12.961 -0.2756 -0.0740 -0.2168
12417W        W29941  12.829   1.747   2.101  0.4789 -0.0917 -0.1164
12418W        W29942  18.255  13.754   4.268 -0.0960  0.0278  0.2322
12419W        W29943   1.523   2.977   2.085  0.1358 -0.1225  0.0670
12420W        W29944   4.860  18.471   4.116  0.0166 -0.1688 -0.0495
12421W        W29945   3.785   4.860   4.952 -0.1458 -0.1787  0.1945
12422W        W29946  12.897  12.000  13.821 -0.6012 -0.0224 -0.2714
12423W        W29947   8.871  16.341   2.303  0.0388  0.0748 -0.0624
12424W        W29948   3.491  12.179   4.616 -0.1070  0.2945  0.2763
12425W        W29949   4.841   7.019   0.781  0.0023  0.3215  0.0027
12426W        W29950   6.434  10.718   0.222 -0.1043  0.1992  0.1675
12427W        W29951  15.453  16.072  13.449  0.2529 -0.0888  0.0532
12428W        W29952   4.834   9.418   0.077  0.1300 -0.0339  0.2048
12429W        W29953   4.636  14.714   2.054 -0.1881  0.1050 -0.0086
12430W        W29954   8.026   7.592   1.210 -0.1300  0.1731 -0.0029
12431W        W29955   1.035   1.927  15.598  0.1139  0.3474  0.1655
12432W        W29956   8.201   8.044   2.906  0.0563  0.1231  0.2915
12433W        W29957  17.285   2.148  13.938 -0.3280 -0.1165  0.1285
12434W        W29958   4.812   9.913   4.404  0.0946  0.0316 -0.0297
12435W        W29959  17.607   0.903   2.619  0.0342 -0.1610  0.0381
12436W        W29960   1.877  14.902   1.436  0.2584 -0.0246  0.0144
12437W        W29961  17.271  14.888  11.689  0.2782  0.1797  0.1087
12438W        W29962   6.048   5.911   1.676  0.0923  0.1252  0.0622
12439W        W29963   6.893  15.910  13.053 -0.0556 -0.2094 -0.4468
12440W        W29964  10.798   4.409  13.069  0.0887  0.0881  0.0605
12441W        W29965  16.741  12.212  14.720  0.1090 -0.1411 -0.1536
12442W        W29966  15.871  14.482   1.772 -0.0231 -0.0377 -0.3223
12443W        W29967  13.957   7.149  14.412 -0.1247  0.0642  0.1687
12444W        W29968  17.659   2.980  11.992  0.2505  0.0216 -0.1370
12445W        W29969   0.336   1.611  13.809 -0.0783  0.1744  0.3426
12446W        W29970   8.092  11.449  15.265  0.1336 -0.0100 -0.0527
12447W        W29971   3.330   5.257  12.357  0.1879  0.0746  0.2291
12448W        W29972  12.389   8.635  14.657 -0.3056  0.2354  0.0541
12449W        W29973   5.343   6.646   1.380 -0.1075  0.3355 -0.0062
12450W        W29974   0.597  17.679   1.501 -0.2725 -0.0508 -0.4895
12451W        W29975  13.787   1.371  15.310  0.3883 -0.1697 -0.1686
12452W        W29976  10.263   8.976   2.482 -0.1781  0.2846 -0.0691
12453W        W29977  15.532  15.803   3.271 -0.1569  0.0852 -0.0569
12454W        W29978  17.496   4.253  12.034 -0.0471  0.1186  0.3885
12455W        W29979   2.043   6.342   4.102  0.0192 -0.0165 -0.0141
12456W        W29980  13.533   7.806  14.858  0.0301 -0.0135  0.0018
12457W        W29981  10.504  10.859  11.459  0.1365 -0.0351 -0.0415
12458W        W29982  13.607   0.137  15.568 -0.2096  0.2638 -0.0574
12459W        W29983  17.208  13.069  15.430  0.5249  0.0071 -0.1748
12460W        W29984   8.007   7.946  14.447  0.4024  0.0380  0.2092
12461W        W29985   0.523   8.801   3.896  0.2442  0.1381  0.3950
12462W        W29986  12.777   3.152  12.116 -0.1078 -0.5441 -0.0139
12463W        W29987   5.960  10.155   4.105  0.1194  0.1828 -0.2387
12464W        W29988   5.143   6.567  10.471  0.1098 -0.0463 -0.1594
12465W        W29989   9.243   3.846   2.585 -0.0304  0.2490 -0.0525
12466W        W29990  14.011  16.417   1.012  0.1384  0.1791  0.0869
12467W        W29991  18.466  14.315   3.575 -0.0857  0.0261 -0.1056
12468W        W29992   9.723  12.588   4.232  0.2350  0.3361  0.1087
12469W        W29993   1.876  10.144  12.465  0.0888  0.2329  0.2522
12470W        W29994   1.530   2.756   0.120  0.2384  0.2070 -0.4055
12471W        W29995  13.370  15.966   5.540 -0.0925 -0.0316  0.0638
12472W        W29996   8.602  11.334  12.876 -0.2730  0.0276  0.0571
12473W        W29997  10.412   9.340  14.293  0.1211 -0.0053  0.0918
12474W        W29998  10.222  11.484  14.531 -0.0831  0.1483 -0.1365
12475W        W29999   5.759  10.917  13.207 -0.0711  0.1126  0.0035
12476W        W30000   1.910  15.373   0.305  0.2311 -0.0660 -0.2319
12477W        W30001   7.512   6.065   0.250 -0.1316 -0.1072  0.1760
12478W        W30002   3.483   3.312  15.249 -0.0102  0.3200 -0.3530
12479W        W30003   5.792  16.680   1.294  0.0878 -0.0119 -0.2511
12480W        W30004   9.922  16.982  14.581 -0.2951 -0.0766  0.1134
12481W        W30005   8.488   8.622   2.028 -0.0471  0.3510 -0.0110
12482W        W30006  15.351   7.887  11.662 -0.0411 -0.0609  0.1595
12483W        W30007  13.788   4.720   1.018  0.0916 -0.0881 -0.1056
12484W        W30008  15.842   3.269  12.557  0.3138 -0.1826 -0.3219
12485W        W30009   2.028  11.754   2.382 -0.1682  0.1124  0.0407
12486W        W30010   7.527  14.516   2.159 -0.0557  0.2710  0.1770
12487W        W30011   2.018  16.049   1.182 -0.5169 -0.1148  0.1957
12488W        W30012   9.531  17.289  13.551 -0.0165  0.0464 -0.0820
12489W        W30013  12.411   8.313   2.361  0.0260  0.0878 -0.1119
12490W        W30014   7.232   7.371   1.321  0.0355  0.0498  0.0616
12491W        W30015   9.150  17.977   3.787 -0.1052  0.4336 -0.0342
12492W        W30016  16.317  13.391  13.166 -0.1158  0.3266  0.3230
12493W        W30017   5.663  11.991  10.778 -0.3792 -0.3170 -0.3444
12494W        W30018   8.764   5.030   0.446 -0.4206 -0.0649  0.0032
12495W        W30019  13.365  17.250   1.928 -0.0256 -0.2586  0.2201
12496W        W30020  10.826   6.689  13.648  0.0533  0.0483 -0.3170
12497W        W30021   5.385  17.003   4.391 -0.1448  0.3831  0.3010
12498W        W30022   3.047   3.108   1.773 -0.1298 -0.3100 -0.0756
12499W        W30023  14.230   6.903  11.192 -0.1621 -0.0230  0.0740
12500W        W30024   2.580  15.958  14.675 -0.0943  0.0559 -0.1249
12501W        W30025  14.642  14.045   1.482 -0.1937  0.2905  0.1608
12502W        W30026  18.215  10.107   2.977 -0.1788  0.0667 -0.1917
12503W        W30027  12.427   4.225   1.916 -0.1155 -0.1595 -0.1276
12504W        W30028  15.552  11.647  10.836  0.1918 -0.1934 -0.2205
12505W        W30029   2.676  14.531  12.883 -0.2323  0.0331  0.1570
12506W        W30030   9.950  12.728   1.608  0.0374 -0.1191 -0.1585
12507W        W30031   3.051  16.108   4.675 -0.1072 -0.1178 -0.0325
12508W        W30032  15.081  12.788   1.384  0.0690 -0.0295 -0.0848
12509W        W30033   0.862   2.402   4.581  0.0901  0.1095 -0.2657
12510W        W30034   5.880  17.248   2.355  0.1104 -0.1312 -0.0479
12511W        W30035  11.297   1.502  11.199 -0.0388  0.1785  0.1768
12512W        W30036   5.024  16.019  12.536 -0.1024 -0.0848  0.4510
12513W        W30037  17.624  16.264  10.804 -0.1671 -0.1282  0.0586
12514W        W30038   0.742  13.273   0.649 -0.0322  0.1514 -0.2246
12515W        W30039   4.441   5.803  13.144  0.1869 -0.0761  0.0944
12516W        W30040  14.947   0.490  15.369 -0.0470  0.2797 -0.1490
12517W        W30041   1.495   0.565  14.429  0.1287  0.1678 -0.0722
12518W        W30042   7.868   7.948  11.657  0.0608 -0.2981 -0.3282
12519W        W30043   1.296   8.486  13.417  0.0834 -0.1388  0.1014
12520W        W30044  11.233   3.620   2.165  0.2966 -0.2408 -0.0566
12521W        W30045  10.247  17.736  12.083  0.1698  0.6479 -0.0732
12522W        W30046   6.092   8.891  10.857 -0.2936 -0.0000  0.0087
12523W        W30047  15.727  17.253  15.113 -0.0908 -0.2922  0.1619
12524W        W30048   4.685   0.495  12.550  0.0858 -0.0995  0.0051
12525W        W30049  17.687  15.717   4.665 -0.2798  0.0982 -0.0140
12526W        W30050   1.360  17.064  13.350  0.1314 -0.2500  0.2101
12527W        W30051  16.236   7.638  12.753  0.3880 -0.1557  0.0152
12528W        W30052   7.375   1.819  13.938  0.1575  0.0607  0.3562
12529W        W30053   8.766  11.951   2.326  0.0959 -0.0889  0.1451
12530W        W30054   4.806  11.321   1.714  0.0743 -0.2576  0.0912
12531W        W30055   0.521  11.661  14.964 -0.0109 -0.1606 -0.2285
12532W        W30056   4.604  10.247   4.875 -0.3455 -0.1735 -0.0587
12533W        W30057  15.806   5.296   0.949  0.0979 -0.2537  0.1632
12534W        W30058   4.520   5.450  12.153  0.0324  0.1246  0.2713
12535W        W30059  13.977  14.894   1.917  0.2843 -0.1434 -0.5347
12536W        W30060   2.798  15.479   0.498 -0.2653  0.2303  0.1151
12537W        W30061  15.979  11.163   0.517 -0.0581 -0.0768  0.0094
12538W        W30062  10.196   1.056   2.921 -0.2372 -0.1161 -0.0022
12539W        W30063  17.975   5.527   0.791 -0.1542 -0.0510  0.2083
12540W        W30064  12.917   4.880   3.642 -0.0486  0.0587  0.0099
12541W        W30065   1.086   4.564   3.462  0.3130 -0.0232  0.1515
12542W        W30066   3.273  12.509   2.419 -0.0357 -0.0768 -0.1115
12543W        W30067   7.618   8.911   3.975  0.2942 -0.1067  0.0483
12544W        W30068  16.863  13.116   0.544 -0.1952 -0.3358 -0.0117
12545W        W30069   6.025  12.195   4.133  0.0713 -0.3293 -0.2248
12546W        W30070   1.807   0.595   4.490 -0.0660 -0.0766 -0.3770
12547W        W30071   1.913  15.845   1.656 -0.0035 -0.2496  0.2589
12548W        W30072  16.216   6.510   4.127 -0.2732  0.5217 -0.2759
12549W        W30073   1.299   1.915   1.594  0.0376 -0.0044  0.0222
12550W        W30074   8.365   0.610  14.804  0.0897 -0.0560 -0.0517
12551W        W30075   1.499  10.684   1.698  0.0252  0.1218 -0.1654
12552W        W30076  11.887  14.638  13.199 -0.2303  0.1468 -0.1123
12553W        W30077  11.654  11.606   2.884 -0.1840 -0.1292 -0.3137
12554W        W30078  13.396   7.190   1.322 -0.3277  0.1016  0.1184
12555W        W30079  17.030  17.172   2.903 -0.1098  0.2367 -0.0880
12556W        W30080   8.845   4.714   2.518  0.2442  0.3355  0.0939
12557W        W30081   1.243  10.112   2.746 -0.2110  0.2341  0.1149
12558W        W30082   4.426   5.981  12.576  0.1331  0.0727  0.3815
12559W        W30083  16.537  14.358  14.001  0.0040  0.0953  0.3153
12560W        W30084  16.939   5.856  13.976 -0.0350  0.2133  0.2195
12561W        W30085  11.383  16.307   4.939 -0.1800 -0.0924  0.2418
12562W        W30086   5.051  10.477   1.825 -0.0584  0.1380  0.2589
12563W        W30087  12.896   5.012   0.767  0.2918  0.0305 -0.2942
12564W        W30088   1.859   4.190   0.882 -0.0665  0.0042  0.0405
12565W        W30089   9.289  13.011  13.324 -0.0513  0.0592  0.1405
12566W        W30090   8.245  15.504   5.257  0.0536  0.1288  0.0098
12567W        W30091   1.271   1.436  11.661 -0.1345 -0.0502  0.1075
12568W        W30092  11.818  10.732   3.230  0.0790  0.1419 -0.0131
12569W        W30093  15.540   9.545   1.033  0.1021  0.0101 -0.1324
12570W        W30094  12.943   4.973  14.693 -0.0338  0.1112  0.1481
12571W        W30095  17.157   3.980  13.152  0.0072  0.1058 -0.1993
12572W        W30096  13.382  10.432   0.943 -0.1610  0.0494 -0.0059
12573W        W30097  15.613   1.562   0.415 -0.0315  0.0732  0.1335
12574W        W30098   7.131   4.669   2.853  0.0721  0.0135 -0.1877
12575W        W30099  17.212   7.002   2.809  0.1887  0.1576 -0.0831
12576W        W30100  17.302   3.850  12.677 -0.0408  0.1405 -0.0061
12577W        W30101   9.895  13.782  14.803  0.2888  0.0726  0.0309
12578W        W30102  10.386  14.954   3.879 -0.0328  0.1267  0.0653
12579W        W30103   5.847  17.752   3.810 -0.0964 -0.2115 -0.1445
12580W        W30104   0.947   7.550  14.149  0.0208 -0.3475  0.0575
12581W        W30105  15.974  15.129  14.751  0.0352  0.1381  0.1075
12582W        W30106  16.493   0.066   3.111 -0.0663  0.1766 -0.1051
12583W        W30107   4.629   6.092  14.788  0.2423 -0.1938  0.0666
12584W        W30108  14.413   1.411  15.010  0.2372  0.0552  0.0142
12585W        W30109   0.097  12.741   0.912 -0.0123  0.1839 -0.0087
12586W        W30110   9.477  10.846  14.019  0.1669  0.3557 -0.2259
12587W        W30111   3.153  13.154  13.936  0.0101  0.4115  0.0577
12588W        W30112  15.621  17.288  14.275 -0.2339  0.1003  0.3203
12589W        W30113   2.337  12.827   0.276  0.1029  0.1652  0.0288
12590W        W30114   5.401   4.935   4.710 -0.2166 -0.1433  0.1874
12591W        W30115   7.191   9.292   3.754 -0.0434  0.0219 -0.3115
12592W        W30116  11.431  12.381  14.518  0.2007 -0.2458 -0.3272
12593W        W30117  16.436   7.683   3.632 -0.1297 -0.0778  0.1500
12594W        W30118  14.181   2.125  12.985  0.1691 -0.2119 -0.0342
12595W        W30119   8.590  13.073   5.516  0.2069 -0.0021 -0.2549
12596W        W30120   5.354  12.018   1.980  0.3234  0.1935 -0.2448
12597W        W30121  18.481  13.907  13.374 -0.0970  0.0252 -0.2406
12598W        W30122   0.557  14.686   4.849 -0.0116 -0.3961  0.0692
12599W        W30123   2.654  15.481   1.278 -0.0048 -0.0557 -0.0278
12600W        W30124   7.959   6.800   2.501 -0.2529  0.2938  0.1925
12601W        W30125  10.453   9.980  11.092 -0.0039  0.2499 -0.0805
12602W        W30126  11.150  17.668   5.009 -0.0123  0.0144  0.4208
12603W        W30127  11.169   9.219  13.627 -0.2326 -0.2441  0.0714
12604W        W30128  10.375   7.875  13.883 -0.1583  0.1374  0.1209
12605W        W30129  16.411  11.975   1.773  0.1547 -0.0169  0.0292
12606W        W30130  15.072   5.813  15.489  0.3010  0.0304  0.0155
12607W        W30131   5.066  16.299   3.130  0.0418 -0.0015 -0.0250
12608W        W30132  10.140  15.989   2.260 -0.2795 -0.0308 -0.3128
12609W        W30133  16.205  12.962  14.643 -0.0568 -0.1187 -0.2769
12610W        W30134   9.342  12.428   1.444 -0.0520 -0.0483  0.0610
12611W        W30135  12.367   6.538   4.063 -0.0490  0.2751  0.3600
12612W        W30136  10.040  18.326   2.277 -0.1672 -0.2143  0.1091
12613W        W30137  16.194  14.233   3.534 -0.0384  0.1632 -0.1087
12614W        W30138  10.284   1.258  11.516  0.0077 -0.0489  0.3671
12615W        W30139  17.299  15.173   3.544 -0.1561 -0.1646  0.0433
12616W        W30140  16.342  12.645   1.219 -0.1340  0.1231  0.1655
12617W        W30141   1.959  11.488  15.641 -0.1740  0.3219 -0.1251
12618W        W30142  17.424   2.841   1.196 -0.2330 -0.0689  0.1370
12619W        W30143  11.237  15.988  15.170  0.0809 -0.1577 -0.2765
12620W        W30144  12.814  16.926  12.846 -0.1235  0.2741  0.0858
12621W        W30145   4.809  10.956  13.365 -0.0538  0.2469 -0.2047
12622W        W30146  17.816  11.008   3.138 -0.0579 -0.3140  0.1415
12623W        W30147   4.210  14.441  14.294 -0.1011 -0.0652  0.2276
12624W        W30148   5.236   8.496  12.620 -0.2295  0.1952  0.1121
12625W        W30149   7.867   6.384   1.916  0.4622  0.2244  0.0496
12626W        W30150  17.348   1.941   5.563 -0.0546 -0.0801 -0.2388
12627W        W30151   2.741   8.708  13.311 -0.3143 -0.1458  0.3107
12628W        W30152   9.566   1.125  14.424 -0.3318  0.1599  0.0019
12629W        W30153  10.552   0.481   1.505 -0.2909  0.0136  0.0278
12630W        W30154   2.169   0.699   3.965  0.0898 -0.2064 -0.3127
12631W        W30155   4.522  16.076   5.888 -0.1961 -0.0807  0.0455
12632W        W30156   7.358  12.144   4.415 -0.0118  0.0192  0.2306
12633W        W30157   8.229  12.145  11.795  0.0561  0.0824 -0.2177
12634W        W30158   1.515  11.258  14.894 -0.0894  0.0765  0.0258
12635W        W30159   1.714  11.589   2.946  0.0266  0.1281  0.1692
12636W        W30160   6.559   1.984   2.766  0.0557  0.0807  0.1102
12637W        W30161   1.327   3.532   3.980 -0.2951  0.0375 -0.4821
12638W        W30162   4.311   6.363   4.322 -0.2199  0.0761 -0.1841
12639W        W30163   5.531   5.820  10.869  0.2609  0.0659  0.0834
12640W        W30164  12.095  16.793  11.411  0.1994  0.0331  0.0391
12641W        W30165   8.508   6.485  14.986  0.0380  0.1330 -0.0153
12642W        W30166   0.361   8.783   2.069  0.1316  0.1610 -0.1297
12643W        W30167   8.397   8.808  11.624  0.2225 -0.0069 -0.0636
12644W        W30168  11.816   7.777  12.385 -0.0454 -0.1540  0.2067
12645W        W30169  18.413   5.818   0.827  0.0331  0.3155 -0.1464
12646W        W30170  12.230   1.587  12.648 -0.1391  0.0627  0.2575
12647W        W30171   6.512   1.732   3.306  0.1182  0.0247  0.0662
12648W        W30172   6.408   3.325   4.230  0.1362  0.1983 -0.0444
12649W        W30173  13.938   2.980  14.552 -0.1104  0.1820 -0.2524
12650W        W30174  12.548   4.350  12.416  0.0464 -0.1665 -0.1502
12651W        W30175   8.751  10.671  15.000 -0.2396 -0.1045 -0.0881
12652W        W30176  17.881  14.652  12.387  0.0206 -0.0769  0.1391
12653W        W30177  18.329   4.914  12.759 -0.2507 -0.1499  0.1870
12654W        W30178  15.763   5.807   5.267  0.1451  0.0274  0.2190
12655W        W30179  13.112   3.094  14.583  0.3248 -0.1947 -0.0184
12656W        W30180   1.637  16.593   4.678 -0.1809  0.1020 -0.0580
12657W        W30181   0.448  16.465  12.311  0.0805 -0.0366  0.0632
12658W        W30182   7.609   6.644  13.851 -0.1693 -0.0415  0.1706
12659W        W30183  16.271  13.581   1.995  0.1124  0.2779  0.2189
12660W        W30184   8.578   6.798  12.335 -0.0869  0.3322  0.3250
12661W        W30185  15.189  17.398  14.569 -0.1581 -0.1419 -0.0814
12662W        W30186   1.981  10.670   1.341  0.0562 -0.1595  0.0447
12663W        W30187  10.862  15.293  14.475 -0.1309  0.1862  0.2257
12664W        W30188  12.472   1.786  11.216 -0.1710 -0.0092 -0.0985
12665W        W30189   3.069  18.098   0.437 -0.0865  0.2488 -0.0759
12666W        W30190   5.565   1.252   3.695 -0.2457 -0.2216 -0.0963
12667W        W30191  12.975  15.133  10.639  0.3384  0.2883 -0.3185
12668W        W30192  13.915   2.551   1.689 -0.1653  0.0469  0.0574
12669W        W30193   9.628   6.513  11.000  0.0345  0.1325 -0.0175
12670W        W30194   3.206   9.170  12.755  0.3069  0.0502 -0.0095
12671W        W30195  17.026   4.238  10.649  0.0965  0.0641  0.1505
12672W        W30196   6.158  11.879  12.270  0.0319  0.0773  0.0771
12673W        W30197  16.807   3.690  15.404  0.0134  0.0210  0.1347
12674W        W30198   6.855   4.526  12.699 -0.0905  0.2833  0.1163
12675W        W30199   9.256   8.510  14.927 -0.2806 -0.2386 -0.3837
12676W        W30200   8.339   5.047  15.358 -0.2300 -0.0303  0.1589
12677W        W30201   7.790   0.410   1.719  0.1584  0.3274 -0.0393
12678W        W30202   6.673   2.093  10.417  0.2792  0.3158  0.1610
12679W        W30203  13.365   8.442  11.228  0.2952  0.0704  0.0523
12680W        W30204   4.761  16.575  11.326 -0.1223  0.3670 -0.5995
12681W        W30205  15.364  17.880  11.319 -0.2316 -0.0014  0.0596
12682W        W30206   0.955   4.089   0.483  0.3101 -0.1032  0.0135
12683W        W30207   0.250   4.875  14.029 -0.0186 -0.1268  0.0990
12684W        W30208  14.623  11.036  15.671 -0.0164  0.2566  0.1654
12685W        W30209  16.852  14.175   4.598  0.1077 -0.1827  0.4282
12686W        W30210   0.854  17.237  14.019  0.2181 -0.0591 -0.0065
12687W        W30211  13.090  11.182   0.813  0.2003 -0.2375 -0.0010
12688W        W30212   2.638   0.493  11.648 -0.0109 -0.1314  0.0726
12689W        W30213   5.865   9.937  11.704  0.0121 -0.2051  0.0133
12690W        W30214  12.729  12.423   4.584  0.0308 -0.0862  0.1371
12691W        W30215   2.440   2.251  11.917 -0.0581 -0.2524 -0.0703
12692W        W30216   1.514   8.077  13.460  0.0926 -0.1134 -0.3876
12693W        W30217   2.776   4.117   9.838  0.0328 -0.2243 -0.0435
12694W        W30218  16.660  13.620  13.950 -0.1209 -0.2363 -0.2407
12695W        W30219   8.100  15.154  14.249  0.1488 -0.3029  0.1712
12696W        W30220   5.574  10.769   9.608  0.0129  0.1196  0.1429
12697W        W30221  14.267  17.705  14.545 -0.0790 -0.1435 -0.0387
12698W        W30222  18.124  10.659   1.007 -0.3785  0.1225  0.3301
12699W        W30223   4.083  14.991   1.136 -0.3594 -0.1357  0.1697
12700W        W30224  17.052  12.365  13.220  0.1781 -0.0731 -0.1101
12701W        W30225  16.260  14.880  10.866  0.1519  0.3834 -0.2306
12702W        W30226  18.140   4.406   3.251  0.0853  0.2021 -0.1806
12703W        W30227   9.418  14.013  12.327  0.1597 -0.4371  0.1051
12704W        W30228   1.332   8.169  14.788 -0.0712  0.1947 -0.0456
12705W        W30229   3.136  10.007  11.315 -0.2261  0.1994 -0.5368
12706W        W30230   8.955  12.000   5.544 -0.0854 -0.1858  0.1520
12707W        W30231  16.173  14.472  13.670  0.1041  0.2389 -0.0872
12708W        W30232   5.737   0.203   0.579 -0.0481  0.1339 -0.0447
12709W        W30233  11.957   8.345  15.083  0.2289  0.1418  0.2157
12710W        W30234  14.896   5.268   5.330  0.0393 -0.1443  0.1328
12711W        W30235   4.421  16.285   5.263 -0.2318  0.0776 -0.1586
12712W        W30236   6.409   1.473  12.317 -0.2936 -0.1222  0.1819
12713W        W30237   6.875   6.483   3.619 -0.1901  0.1688 -0.3599
12714W        W30238  13.744   4.915  12.360  0.2410 -0.0552  0.1063
12715W        W30239   4.827   4.422  11.248 -0.0213  0.1707  0.0546
12716W        W30240  17.304  17.160  13.379 -0.2503 -0.3726  0.1215
12717W        W30241   7.389  10.714  12.678  0.0592  0.1514  0.0576
12718W        W30242  14.868  15.493   1.443  0.2472  0.0384  0.0042
12719W        W30243  18.436   1.043   5.144 -0.0564 -0.1663  0.0326
12720W        W30244   0.384   1.399  12.921  0.0023 -0.1024 -0.1473
12721W        W30245  14.617  11.963   1.173  0.2843 -0.0652 -0.1679
12722W        W30246   3.401  15.044  11.046 -0.2213 -0.0357  0.0454
12723W        W30247   6.280   0.130  11.041  0.1683 -0.1484 -0.0146
12724W        W30248  15.237   8.234   2.702  0.0662 -0.0353  0.2202
12725W        W30249   4.953   9.036   5.468  0.0149  0.1053  0.0325
12726W        W30250  15.756  17.344   2.889  0.0758 -0.1268  0.0984
12727W        W30251  10.771   6.357  11.961 -0.3666 -0.2006  0.2279
12728W        W30252   2.988   9.202   1.969  0.1697  0.2363  0.1808
12729W        W30253  10.675   3.981   1.194 -0.0633  0.2056 -0.3530
12730W        W30254   2.486   8.917   0.782  0.2227  0.3453  0.3282
12731W        W30255   5.622   2.008   1.749  0.0591  0.6007 -0.1478
12732W        W30256   3.315   9.191  14.533 -0.2722 -0.0067  0.0260
12733W        W30257   0.067   9.400  10.700  0.1581  0.3634 -0.1006
12734W        W30258   7.259   7.126  11.138  0.1257 -0.0237 -0.0230
12735W        W30259  13.549  17.608  10.613  0.0695  0.1987 -0.1594
12736W        W30260  14.515   7.955   2.128 -0.1295  0.0675  0.0290
12737W        W30261   5.446  12.364  13.097  0.0534 -0.0427  0.1350
12738W        W30262   2.074  12.372  15.472 -0.0897  0.0507 -0.0395
12739W        W30263  12.351  10.772  14.396 -0.2554 -0.1270 -0.1803
12740W        W30264   6.605   9.939  14.246 -0.0523  0.0960 -0.1204
12741W        W30265   3.901  17.610   2.287 -0.0693 -0.1364  0.1802
12742W        W30266   4.224   2.528   5.727 -0.3010  0.1118 -0.1039
12743W        W30267  14.779  16.547  12.550  0.2088 -0.0885 -0.2783
12744W        W30268  14.169  15.538   5.124  0.3154  0.1804  0.1094
12745W        W30269  17.378  11.981  11.755 -0.1481 -0.0983 -0.0451
12746W        W30270   0.880   7.499   2.595  0.1393 -0.0138  0.2213
12747W        W30271  16.564  11.297   0.698 -0.2504  0.2285  0.5938
12748W        W30272   9.124   9.829   2.931  0.1443  0.2425  0.0113
12749W        W30273   7.370  16.885   2.288 -0.0382 -0.0723  0.1124
12750W        W30274   4.561   3.569   0.946  0.1390 -0.1111 -0.2280
12751W        W30275   3.174  16.864  13.327 -0.3733 -0.2178 -0.2686
12752W        W30276  10.098   6.533   3.501 -0.0029 -0.0872  0.3443
12753W        W30277   1.625   0.761  14.967 -0.0635  0.2122 -0.2080
12754W        W30278   0.207  18.392   1.555 -0.0208  0.0512 -0.3192
12755W        W30279  17.401   8.562   0.687 -0.4186  0.1568  0.0350
12756W        W30280   0.030   7.861   0.086 -0.0521  0.3081  0.0524
12757W        W30281   6.900   7.508   2.424  0.5417  0.0449  0.0640
12758W        W30282  16.004   9.348  12.767 -0.2480 -0.3779  0.0593
12759W        W30283   2.734  11.104  12.825 -0.1779 -0.0914  0.2907
12760W        W30284   7.844   7.916   3.451  0.1308  0.1060 -0.2202
12761W        W30285  11.587   2.848  14.588  0.2847  0.0627  0.1311
12762W        W30286  16.361  13.516  15.651 -0.1028 -0.1306  0.1178
12763W        W30287   9.358   1.507  11.175  0.1539 -0.0273 -0.1237
12764W        W30288  11.179   6.748   4.278  0.0411  0.1274  0.1349
12765W        W30289   9.650   4.050   0.302 -0.0368  0.0241 -0.0288
12766W        W30290  16.572   5.925   1.323  0.3756  0.2078  0.2251
12767W        W30291   3.956  12.143  14.906 -0.1032 -0.1211  0.1252
12768W        W30292  16.581   1.625  15.018  0.2580 -0.1289  0.3208
12769W        W30293   9.570   5.277   4.513  0.0142 -0.0506  0.0535
12770W        W30294  11.544  14.033   6.244 -0.0867  0.1226 -0.0403
12771W        W30295   3.664  16.938  14.715  0.2591  0.0735 -0.0370
12772W        W30296   1.951   3.779  10.607 -0.2210 -0.1101  0.2721
12773W        W30297   0.569   8.209   2.014 -0.3406  0.1501  0.0014
12774W        W30298   4.163   7.375   0.240  0.0867  0.0085  0.2459
12775W        W30299   2.198   6.075   3.247 -0.4672 -0.1100  0.0163
12776W        W30300   5.094   2.448  10.757  0.1238 -0.0192 -0.0551
12777W        W30301   7.052   6.450  15.021 -0.0941  0.0288 -0.0616
12778W        W30302   3.740   5.715   3.891 -0.1109 -0.2478 -0.0885
12779W        W30303   6.553   1.771   5.742  0.1304 -0.0598  0.0733
12780W        W30304  10.046   7.478   0.333 -0.2189 -0.2628  0.1212
12781W        W30305  15.244  11.893  12.413  0.0289 -0.0522  0.2642
12782W        W30306  11.967  17.584  15.643  0.0978  0.2570 -0.1774
12783W        W30307   6.512  15.801  12.323  0.1600  0.4041  0.1377
12784W        W30308   3.502   0.359   4.656  0.3258 -0.3949 -0.2470
12785W        W30309   0.215   8.609  15.547 -0.1796 -0.0266  0.2578
12786W        W30310   6.296  10.247  13.714  0.1083  0.2272  0.1287
12787W        W30311   1.537  12.085  14.205  0.2710 -0.0888  0.2936
12788W        W30312  17.555  18.018  15.088  0.1679  0.1105 -0.0114
12789W        W30313   2.323  15.313  14.140 -0.1753  0.0904  0.0567
12790W        W30314   9.786   0.310  11.665  0.0557  0.1808 -0.1032
12791W        W30315  16.349  13.571  12.207  0.0656  0.2229 -0.0876
12792W        W30316   7.866  10.440   2.637 -0.1932 -0.0101  0.0693
12793W        W30317  17.621   0.182  11.771  0.1378  0.1143 -0.0179
12794W        W30318   6.063   0.485   3.931  0.0341 -0.3131  0.3881
12795W        W30319   4.791   7.369  14.527 -0.1226 -0.0846 -0.3303
12796W        W30320  17.087   9.581   4.787 -0.2812 -0.2635  0.1567
12797W        W30321  14.514  14.097  13.970  0.1106 -0.1421 -0.2887
12798W        W30322  14.398   6.038  15.631  0.0434 -0.1914  0.3223
12799W        W30323   1.224   0.224  13.962  0.3713 -0.0506 -0.1012
12800W        W30324   7.188   2.558  15.428 -0.0245  0.3638 -0.0371
12801W        W30325   4.469   3.197  15.322 -0.3943 -0.1761  0.0107
12802W        W30326  15.430   6.835  10.724 -0.0930 -0.0821  0.1580
12803W        W30327   3.769   9.746   0.138  0.1674  0.0678 -0.0952
12804W        W30328  12.652  14.360   4.420  0.2175 -0.1439  0.1438
12805W        W30329  10.505   7.753  11.232 -0.1569  0.1560 -0.2754
12806W        W30330   7.626  14.631   3.788 -0.2705  0.2401 -0.2461
12807W        W30331  10.716   3.119  14.404 -0.2282  0.0606 -0.3157
12808W        W30332   6.085   3.219  12.743  0.4185  0.1502 -0.0891
12809W        W30333   5.425   9.704   3.695 -0.0604 -0.3024 -0.0111
12810W        W30334   6.330   9.179   3.021 -0.2112 -0.3627  0.3993
12811W        W30335   8.807  10.640  12.169  0.0768  0.0811 -0.0688
12812W        W30336  14.171  10.870  14.165 -0.1050 -0.0304 -0.2619
12813W        W30337  15.260  14.100  12.017 -0.2181  0.0346  0.3430
12814W        W30338   6.557   8.164   3.930  0.0788 -0.0335  0.1902
12815W        W30339   9.406  10.790  11.515 -0.1105 -0.1612  0.1135
12816W        W30340   5.098   3.509   1.060  0.0135 -0.1402  0.1535
12817W        W30341  17.849   3.562   2.637  0.2025 -0.1553  0.2118
12818W        W30342   6.194  12.995   0.358  0.1160  0.1544  0.0998
12819W        W30343  12.664  11.353  12.314 -0.0633 -0.5453  0.0008
12820W        W30344  14.292  11.310   2.317 -0.0572  0.0276  0.2099
12821W        W30345   0.181  17.348  12.751  0.1170 -0.0314  0.0941
12822W        W30346   7.127   0.986  12.065 -0.2587 -0.1948 -0.1440
12823W        W30347   6.380  12.814  14.378 -0.0028 -0.1087  0.3446
12824W        W30348   6.776  15.753   3.495 -0.0662  0.0619 -0.3423
12825W        W30349   5.571   9.166  13.197 -0.0689  0.0957 -0.4367
12826W        W30350   4.863   3.885  13.227 -0.3122  0.1627 -0.0432
12827W        W30351  12.070   8.382   5.614  0.1796 -0.0420  0.0756
12828W        W30352   2.750  17.796   1.728  0.3579  0.1324  0.2708
12829W        W30353  15.485  13.615  11.901 -0.0204 -0.1438 -0.1271
12830W        W30354  11.411   1.695   1.713  0.1346  0.0554  0.0114
12831W        W30355   4.851  11.336  10.638  0.0323 -0.1636  0.0366
12832W        W30356  13.805   5.398  12.035 -0.3282 -0.0549 -0.0176
12833W        W30357  16.058  16.955   1.674  0.2673 -0.1351  0.1449
12834W        W30358   9.762   3.732  11.288 -0.1720  0.2326 -0.1369
12835W        W30359   9.192   0.929   0.443  0.2837 -0.3864 -0.1321
12836W        W30360   8.564  18.408  12.750 -0.0389 -0.4940  0.1075
12837W        W30361   4.099   1.887  14.213 -0.0619  0.0310 -0.2326
12838W        W30362  10.760  13.503   4.368 -0.2175 -0.0511  0.0102
12839W        W30363  16.470  10.300   3.871  0.1424  0.0861 -0.1072
12840W        W30364  15.734   5.914  11.936 -0.0334 -0.2885 -0.1081
12841W        W30365   1.817  17.565   0.231 -0.1593 -0.0519  0.6045
12842W        W30366  14.799  10.827  12.087 -0.2110  0.0793  0.0107
12843W        W30367   6.337  17.487  11.609  0.0215  0.0709 -0.3449
12844W        W30368  13.644  16.961   3.561 -0.0632  0.1608 -0.0277
12845W        W30369  17.524   0.556   3.440  0.1193  0.3506  0.1831
12846W        W30370   9.683  11.107   2.817 -0.0891  0.1274 -0.3541
12847W        W30371   5.763  11.653  12.201 -0.3795 -0.3804  0.0391
12848W        W30372   1.861   7.831   1.559 -0.3570  0.0437 -0.2150
12849W        W30373   9.903   9.963  11.204  0.3671 -0.2031  0.3103
12850W        W30374   8.514  12.172  12.214  0.0582 -0.1715  0.0695
12851W        W30375   3.370   1.553   0.824 -0.2849  0.2490  0.3666
12852W        W30376  13.219   7.903   4.265  0.0191  0.0650  0.2483
12853W        W30377  18.445   5.247   5.401  0.0042  0.1180 -0.0718
12854W        W30378   6.836  16.091   3.882 -0.0457 -0.0176  0.2081
12855W        W30379   4.408   6.123   2.393 -0.1835  0.1052 -0.0195
12856W        W30380  11.862  14.265  14.156 -0.0506  0.0559  0.2689
12857W        W30381  18.029   6.534   1.720  0.1273  0.2018  0.1143
12858W        W30382  14.923   0.826   3.853 -0.1720  0.2275 -0.3594
12859W        W30383  17.609  17.695   1.342  0.0025 -0.2891 -0.3399
12860W        W30384   0.583   3.057  13.769  0.2326  0.1248  0.1323
12861W        W30385  17.040  13.551  14.348  0.1483  0.0501  0.2970
12862W        W30386  17.054   9.923   2.804  0.1247  0.0907 -0.0073
12863W        W30387  11.749  16.316   1.997  0.0361 -0.0731 -0.2540
12864W        W30388  14.762  15.645   0.953  0.4772  0.1182  0.0772
12865W        W30389   6.066  16.616   4.020 -0.0284 -0.0724  0.1293
12866W        W30390  16.091  16.726   3.555 -0.3368  0.3260 -0.0185
12867W        W30391  10.946   7.069   1.160  0.0866  0.2138 -0.3316
12868W        W30392  14.158  14.052  13.651 -0.1366  0.0214 -0.0650
12869W        W30393  15.489  10.070   4.455 -0.1330  0.0387  0.3310
12870W        W30394  10.541  17.261   1.213 -0.1322  0.2042 -0.2657
12871W        W30395  18.029  13.933  13.587 -0.2046  0.1893  0.2488
12872W        W30396  13.049  14.194  11.392  0.0206 -0.0764  0.1982
12873W        W30397   0.049   2.325   1.436  0.1705  0.1428 -0.0050
12874W        W30398   1.020   4.790  15.655  0.3826  0.0319  0.0761
12875W        W30399   1.483   0.322   2.036  0.2863 -0.1409 -0.0085
12876W        W30400   0.014   3.175  12.806 -0.3001 -0.0637  0.0314
12877W        W30401   6.270  17.071  11.368 -0.2755 -0.1002 -0.0458
12878W        W30402  15.603   3.223  11.471 -0.0205 -0.1590  0.1901
12879W        W30403   4.246  10.200   3.846  0.2025 -0.0888 -0.0361
12880W        W30404  15.372  11.262  14.062  0.2041  0.1231  0.2714
12881W        W30405   6.181  14.792  14.882  0.1098 -0.1413  0.1143
12882W        W30406  17.385  13.549   3.410 -0.0518  0.0206  0.2004
12883W        W30407  13.039  14.967  11.909 -0.0313  0.0514 -0.3176
12884W        W30408   2.397  12.828   4.251 -0.2220  0.0070 -0.0250
12885W        W30409   5.467  10.447  13.203 -0.0434 -0.1317  0.2259
12886W        W30410   7.970   6.997  10.866  0.2470 -0.0835  0.0563
12887W        W30411   4.413   2.289  14.092 -0.2272  0.2405  0.2030
12888W        W30412  10.732   8.762   0.668  0.3163  0.1911  0.1074
12889W        W30413   5.705   0.662   0.728  0.0793 -0.0900 -0.2904
12890W        W30414   5.587  10.031   4.500  0.1697 -0.3018 -0.2927
12891W        W30415  18.290   5.544  13.626 -0.0387  0.0650 -0.0838
12892W        W30416   7.819  12.371  13.376  0.3057 -0.1239 -0.2535
12893W        W30417  14.427  16.820   5.114 -0.0836 -0.1849  0.1937
12894W        W30418   6.496   5.509   4.309  0.1566 -0.2061 -0.0871
12895W        W30419  10.413  13.043   1.617  0.1909 -0.0886  0.2739
12896W        W30420   9.050   3.803  12.327 -0.0004 -0.3650 -0.3469
12897W        W30421  15.610  13.453  15.689  0.1928  0.3794  0.1968
12898W        W30422   0.550  10.353   0.811  0.0820  0.2022 -0.2852
12899W        W30423  16.161  12.214  15.475  0.3003 -0.1206 -0.2666
12900W        W30424  16.759   6.960  12.914 -0.0429 -0.1047 -0.0407
12901W        W30425   5.167   2.842   2.027  0.0179 -0.0548 -0.0632
12902W        W30426   7.188  16.380  13.905 -0.0005  0.3316 -0.0225
12903W        W30427   0.736   9.138   3.012 -0.1616  0.0792 -0.0350
12904W        W30428   4.438  17.412  12.873 -0.0359  0.2727 -0.1419
12905W        W30429   1.197  13.384  11.762  0.0575 -0.0046  0.0311
12906W        W30430  15.586   7.302  10.896  0.0374  0.2725  0.1515
12907W        W30431   9.675  15.805   2.120  0.1456  0.0017 -0.4482
12908W        W30432   6.372   5.466   0.893 -0.3146 -0.2487 -0.1964
12909W        W30433  11.970   5.901  15.659 -0.0783  0.0120  0.2502
12910W        W30434  12.890  11.815  12.189 -0.0002 -0.2712  0.0344
12911W        W30435   2.023   7.171   4.728 -0.0252  0.1901 -0.1601
12912W        W30436  10.545   7.069   2.582 -0.4096  0.0983 -0.0184
12913W        W30437   3.267  10.366   4.749 -0.1015  0.0931  0.1947
12914W        W30438   1.805  12.698   0.512 -0.2227 -0.0065  0.0772
12915W        W30439  10.741  15.783  14.394 -0.2172 -0.1028  0.1614
12916W        W30440   2.628  18.478  12.029  0.2806  0.0977 -0.0229
12917W        W30441  16.410   1.147  13.160  0.2274  0.2161  0.0043
12918W        W30442   8.397  13.815  15.240 -0.1952 -0.2377  0.1184
12919W        W30443  12.952  15.382   0.357 -0.2036  0.2927  0.1845
12920W        W30444  13.360   9.440   2.098 -0.2620 -0.1837 -0.2135
12921W        W30445   5.696   0.731   4.149 -0.0617 -0.1595 -0.1591
12922W        W30446   0.892  15.978  15.164 -0.3209  0.0244  0.0635
12923W        W30447  18.287   0.767   4.746  0.1884 -0.1574  0.0384
12924W        W30448  14.727   3.498  10.433 -0.3272 -0.2746 -0.0053
12925W        W30449   7.068   5.551   3.481 -0.0494 -0.0942 -0.3292
12926W        W30450  15.316   2.331   2.984 -0.1810  0.2426  0.1478
12927W        W30451  12.144   8.113   0.230  0.1454 -0.1370  0.1668
12928W        W30452   0.997   9.295   1.279  0.0209 -0.4964  0.0130
12929W        W30453   3.972   2.823  11.524 -0.2177  0.0100  0.0165
12930W        W30454   6.723  10.187  14.665  0.0987  0.0464  0.2401
12931W        W30455   4.120   9.069  15.203 -0.1680 -0.1854  0.0113
12932W        W30456   0.759  18.468  13.156 -0.4321 -0.1889 -0.0916
12933W        W30457  10.902   6.207  10.960  0.0303 -0.1202  0.0783
12934W        W30458  13.748  14.244   4.545 -0.1982  0.0218 -0.0307
12935W        W30459  12.290   6.347  13.320 -0.2448 -0.2111 -0.0837
12936W        W30460   2.602   3.238  14.768 -0.2613  0.3153  0.2674
12937W        W30461  10.317   8.368   0.577  0.0762 -0.0790 -0.0244
12938W        W30462  13.676  17.618  11.612 -0.0164  0.0329 -0.2332
12939W        W30463   0.321   4.059  15.052  0.3029 -0.1493 -0.2022
12940W        W30464   3.197  12.679   9.877  0.1503  0.3903  0.0235
12941W        W30465  12.155  12.982   2.376  0.0213  0.0568  0.1180
12942W        W30466  14.295   4.787  12.513 -0.1146  0.0082 -0.1458
12943W        W30467   7.811  14.740  14.058  0.1190  0.0712 -0.1840
12944W        W30468  14.739  18.231   3.673  0.0348 -0.0927 -0.2200
12945W        W30469   2.309  15.310   2.138 -0.0256 -0.2430  0.3413
12946W        W30470  14.429  10.115  13.809 -0.2109 -0.0114 -0.0755
12947W        W30471   7.516   8.704  11.139  0.2439 -0.0239  0.0591
12948W        W30472  16.103   8.456   5.028 -0.1624 -0.2189 -0.0918
12949W        W30473   3.282   6.694  11.526  0.0294 -0.2542 -0.0531
12950W        W30474   2.548   0.001   3.517  0.2227  0.1574  0.1571
12951W        W30475  16.447   2.416   1.018 -0.3257 -0.1770  0.2076
12952W        W30476  12.830  18.409   4.570  0.1174  0.3490 -0.3070
12953W        W30477   1.582   5.746   0.275  0.0946 -0.2407  0.1547
12954W        W30478   0.583   9.248  15.722  0.1202  0.1991 -0.1133
12955W        W30479   0.708   5.791   2.857 -0.1019  0.1875  0.2968
12956W        W30480   2.754  16.429  14.501 -0.0228  0.2922 -0.1225
12957W        W30481   0.874  17.903   6.376  0.0901  0.0659  0.1310
12958W        W30482  16.493   7.921   4.195  0.0021 -0.1215 -0.2749
12959W        W30483   4.001  13.758   2.773  0.2452 -0.0887 -0.0721
12960W        W30484   9.247  16.389   4.390  0.2550  0.0902 -0.1990
12961W        W30485   3.726  16.231   1.911  0.0467 -0.5572 -0.0312
12962W        W30486  12.095  15.563  11.943  0.2185 -0.3284 -0.0731
12963W        W30487  10.949   8.768  12.442 -0.0082  0.1196  0.0372
12964W        W30488  16.013   1.281   0.597 -0.0070  0.2601 -0.0877
12965W        W30489   7.838  10.578  12.723  0.4145  0.0282  0.0590
12966W        W30490  15.078  13.298  11.910  0.1150 -0.0096 -0.1575
12967W        W30491  11.364  13.224   2.890  0.2584 -0.0525  0.0761
12968W        W30492   4.349  11.446   4.221  0.2272 -0.1306  0.2052
12969W        W30493   0.580  17.009   1.336  0.3429 -0.0591 -0.1725
12970W        W30494   1.123   9.363   2.078 -0.1822  0.0740  0.1007
12971W        W30495  16.047   9.805  10.982  0.2025  0.2755  0.1258
12972W        W30496  13.080  17.662   1.074 -0.3905  0.0463  0.0205
12973W        W30497   0.561   8.712   0.806 -0.2243 -0.3065  0.0404
12974W        W30498   8.781  12.047  13.271  0.1262 -0.3646 -0.0429
12975W        W30499   1.214  10.011   4.736  0.6551  0.0197  0.0033
12976W        W30500  16.516  13.352  12.572 -0.3138  0.1939 -0.0477
12977W        W30501  12.101  17.969   2.032  0.0564 -0.2122 -0.0625
12978W        W30502   3.614  16.759   3.117  0.0914 -0.2963 -0.1100
12979W        W30503  17.607   9.145  11.776  0.2054  0.1395  0.2398
12980W        W30504  12.166   3.090   1.877 -0.0214 -0.1903  0.4155
12981W        W30505   9.574   7.912  11.030  0.0044 -0.1082 -0.2214
12982W        W30506   8.427  12.465   4.384  0.1954 -0.3247  0.2916
12983W        W30507  13.905  16.157  12.821 -0.0735  0.2445 -0.0373
12984W        W30508   8.989   9.503   1.013 -0.1220  0.0928 -0.1951
12985W        W30509   5.713   3.166  15.719  0.0278 -0.0967  0.2369
12986W        W30510   1.620   5.772  11.218 -0.4115 -0.0353  0.1970
12987W        W30511   0.009  16.072   0.670 -0.2921 -0.4842 -0.2939
12988W        W30512  10.447  17.570   1.985 -0.0616 -0.2578 -0.1748
12989W        W30513   8.562  12.898  13.810  0.0019 -0.2859  0.1016
12990W        W30514   7.907   1.601  14.315 -0.0215  0.4659 -0.1448
12991W        W30515   3.936  14.057   1.861  0.1043 -0.1066 -0.2928
12992W        W30516   8.803  14.642  12.475 -0.1280  0.2791  0.0655
12993W        W30517   3.028   2.336  14.435 -0.1727  0.1071 -0.1064
12994W        W30518   0.569  11.146   4.997 -0.0346 -0.3000  0.1061
12995W        W30519  17.791  16.350   3.510 -0.2137 -0.0399 -0.0034
12996W        W30520   8.756  11.317  13.394 -0.4033 -0.2559 -0.1438
12997W        W30521   7.896   0.922   0.258 -0.0529 -0.0138 -0.0588
12998W        W30522  14.059  15.143  11.553  0.4145 -0.1471 -0.0718
12999W        W30523   9.365  18.449  15.278  0.2019 -0.0187 -0.1316
13000W        W30524  10.488  16.900   2.600  0.3404 -0.3182 -0.4245
13001W        W30525   1.835  17.073  13.196  0.2040 -0.1876  0.2614
13002W        W30526   6.356  16.797   4.413 -0.1101  0.1723  0.3595
13003W        W30527  16.808  12.843   1.074  0.2339 -0.0748  0.1301
13004W        W30528   0.464   6.938   4.222  0.2197 -0.1077  0.0799
13005W        W30529  15.123  13.627   2.240  0.0454 -0.1875  0.0581
13006W        W30530   3.473   9.779  11.735 -0.1220  0.1559 -0.1513
13007W        W30531  17.705   7.597   3.857  0.0289 -0.1407  0.1282
13008W        W30532  10.598  12.330  15.073  0.1665  0.0835 -0.4310
13009W        W30533  10.873   9.597  14.354  0.0420 -0.0009 -0.1009
13010W        W30534   7.312  17.144  14.434  0.0950  0.1377 -0.0287
13011W        W30535   3.097  18.108   0.946 -0.1143 -0.0149 -0.2572
13012W        W30536  15.467  18.066   1.715 -0.0407  0.0875 -0.0974
13013W        W30537  16.069   6.138  10.979 -0.0860  0.1246  0.1231
13014W        W30538  13.570  10.599   1.436  0.3973  0.0366 -0.0793
13015W        W30539   6.591   7.527  14.232  0.1552  0.2795 -0.1657
13016W        W30540  10.865   2.711   2.122  0.1309  0.2896 -0.0619
13017W        W30541   3.834  18.324   1.542  0.0476 -0.1577 -0.3440
13018W        W30542   3.370  17.561   4.983  0.1266 -0.0015  0.3233
13019W        W30543  14.092  12.777   1.959 -0.1898 -0.1037 -0.3164
13020W        W30544  18.254  18.283   1.688  0.2949  0.0858 -0.0047
13021W        W30545  10.373   1.611  13.256  0.4147  0.0710  0.1142
13022W        W30546  15.410   3.813   0.158  0.0783 -0.0960  0.0534
13023W        W30547   0.537  11.073   3.158  0.0639  0.1695 -0.2155
13024W        W30548  17.018   6.812   1.464 -0.0920  0.2356 -0.2609
13025W        W30549   1.946  12.508  12.250  0.0193  0.2206  0.2035
13026W        W30550   2.516   1.320   3.096 -0.0233  0.1924  0.2885
13027W        W30551  14.413   7.922  15.668  0.3192  0.1655  0.1587
13028W        W30552  14.235  15.371   2.120  0.1157 -0.0204 -0.0759
13029W        W30553   8.839   6.064  10.082  0.3285 -0.3252 -0.2427
13030W        W30554  15.299   0.231   4.892  0.0485  0.4106 -0.2409
13031W        W30555  15.095   5.355  13.207  0.3505 -0.0738 -0.1447
13032W        W30556  14.772   1.497  13.762 -0.0700  0.1123  0.2649
13033W        W30557   0.678   4.775  14.688 -0.3132  0.0341 -0.1656
13034W        W30558   2.364  12.301   3.397 -0.3520  0.2079 -0.0985
13035W        W30559   4.973   9.844   3.904 -0.2441 -0.3988  0.0893
13036W        W30560   6.569  14.677   0.005  0.0096 -0.2643 -0.0913
13037W        W30561  13.948   0.636  14.238  0.2462 -0.0694 -0.1719
13038W        W30562  15.349  16.311  12.648  0.2362 -0.0297 -0.1971
13039W        W30563  10.025   4.950  12.371 -0.3047 -0.0020  0.1947
13040W        W30564   9.449   0.747  12.335 -0.1627 -0.0229 -0.1278
13041W        W30565   0.948   9.635   4.203 -0.0996 -0.1717  0.2661
13042W        W30566   6.398  16.456  14.362  0.2834 -0.3275  0.1475
13043W        W30567  10.682  18.106   1.223 -0.0291 -0.2884  0.0272
13044W        W30568  17.997   8.146   1.471  0.1312 -0.2144 -0.2466
13045W        W30569  13.504  12.445   3.825 -0.0565 -0.1267  0.1638
13046W        W30570  16.927  10.836   1.941  0.1057  0.0654 -0.3990
13047W        W30571  14.340   3.849  10.460  0.1447 -0.1284 -0.1540
13048W        W30572   8.506  12.830  15.060  0.3578 -0.0625  0.0770
13049W        W30573  17.803  15.563   2.902  0.0723 -0.0013 -0.0518
13050W        W30574   8.947   4.992  12.468 -0.0077  0.1572  0.0299
13051W        W30575  12.112   4.651  12.838  0.2127 -0.1187  0.0444
13052W        W30576  11.524   2.501  13.312 -0.0482 -0.0522 -0.0862
13053W        W30577   6.248  10.913  11.028 -0.1750 -0.1949  0.3659
13054W        W30578  13.934   1.878  11.341 -0.1110  0.4577  0.4428
13055W        W30579  17.343   5.329   3.433  0.4685  0.1697 -0.2983
13056W        W30580   4.676  16.825  15.056 -0.0353  0.2046 -0.0784
13057W        W30581   8.847   1.185   0.046  0.0888  0.0602  0.0849
13058W        W30582   0.484  12.536   1.196 -0.2461 -0.2126  0.2219
13059W        W30583   0.474   9.562   2.647 -0.0077 -0.0204 -0.0937
13060W        W30584   4.532  11.003   0.693 -0.1179  0.3294  0.0951
13061W        W30585   7.247   0.301  11.868  0.1105  0.1345  0.2557
13062W        W30586   8.501   9.514  13.350 -0.1688 -0.3543 -0.0435
13063W        W30587  16.758  12.424  10.973  0.0580  0.0747 -0.1276
13064W        W30588   8.106   2.304   3.101  0.1359  0.1099 -0.0819
13065W        W30589  17.116  14.168   3.794  0.0648  0.1845  0.1554
13066W        W30590   1.878   2.951   3.665  0.4076  0.0961 -0.0495
13067W        W30591  18.448   1.213  15.026  0.4842 -0.0149 -0.0505
13068W        W30592  10.505  16.736  11.797  0.1289 -0.4958  0.1264
13069W        W30593  12.189   0.748  11.707  0.0243  0.1268 -0.0886
13070W        W30594   3.333   7.975  13.509 -0.1844  0.1834  0.0849
13071W        W30595  16.216   1.118   0.081 -0.1519  0.3044  0.1381
13072W        W30596   6.610  11.134  11.309 -0.1287  0.2603  0.0573
13073W        W30597  11.792  15.840  13.282  0.2773  0.0338  0.0201
13074W        W30598  12.712   1.066  13.093  0.0121 -0.1196 -0.1153
13075W        W30599  13.220  15.075  11.085  0.1308 -0.2531  0.1896
13076W        W30600  15.008  11.589   3.320 -0.2474 -0.1732  0.0820
13077W        W30601   9.601   3.613  14.881  0.0240  0.1548 -0.2399
13078W        W30602  14.724   6.912  13.659 -0.0332  0.3898  0.1800
13079W        W30603  10.124   4.804  15.623 -0.0780 -0.0871 -0.1727
13080W        W30604  16.540  15.368   1.857  0.0443 -0.1915  0.0128
13081W        W30605   6.843  16.210  11.261 -0.1962 -0.0661 -0.2324
13082W        W30606   0.871   1.654   2.525  0.0403  0.0753  0.1348
13083W        W30607  16.881  10.776   0.916  0.0510 -0.3982 -0.0083
13084W        W30608   9.685   1.244  14.926 -0.0303  0.1142  0.2978
13085W        W30609  15.064  15.846   0.058  0.0252  0.1031 -0.1309
13086W        W30610   5.086   0.661  14.337 -0.1391  0.1189 -0.1594
13087W        W30611   9.391   1.053  11.453 -0.1869 -0.0365  0.0104
13088W        W30612  11.621  11.174  12.094 -0.0946  0.0875  0.2064
13089W        W30613   0.345  14.937  13.248 -0.3689 -0.0734 -0.0109
13090W        W30614  15.977   4.758  12.573  0.0972 -0.1461  0.0554
13091W        W30615   0.653  15.821  11.681 -0.3052 -0.3691  0.1938
13092W        W30616  15.720  12.824  12.366 -0.0427  0.2367 -0.2197
13093W        W30617  11.898   7.272   2.320  0.0585 -0.1562  0.2314
13094W        W30618  17.044  11.900  13.988 -0.0748  0.1570  0.0076
13095W        W30619  12.793   7.704  11.323 -0.1421 -0.2501 -0.0309
13096W        W30620   7.359   3.671  12.550 -0.0205 -0.0503  0.0947
13097W        W30621   3.939   0.781   1.066  0.1541 -0.1569  0.2735
13098W        W30622  17.501  14.857   1.759  0.0636 -0.0199  0.1818
13099W        W30623   7.505  12.234  14.705 -0.3610 -0.0514  0.3454
13100W        W30624  15.226   8.482   3.798  0.1573 -0.1032 -0.1005
13101W        W30625   6.169   4.223  14.818  0.3356 -0.1186 -0.0906
13102W        W30626   9.703  14.119   3.867 -0.0694 -0.1023  0.0437
13103W        W30627  17.102   1.046   2.146  0.0119  0.0932  0.1231
13104W        W30628   3.939   2.544   0.875 -0.0436  0.1315  0.1218
13105W        W30629  10.694  13.278  15.309  0.1252 -0.0972 -0.1329
13106W        W30630   9.136  11.130   1.805 -0.0754  0.0773 -0.0363
13107W        W30631  17.932   1.127   0.839  0.0426  0.3043  0.0635
13108W        W30632   0.698  17.289   3.926  0.0602 -0.0264  0.1693
13109W        W30633  11.823  17.986   1.245  0.0417 -0.1474  0.3173
13110W        W30634  13.318   9.073  14.416 -0.2484 -0.1011  0.1268
13111W        W30635   8.458   2.163   2.751 -0.0509  0.1195 -0.3768
13112W        W30636   0.380  10.514  14.107  0.0167 -0.0147  0.2041
13113W        W30637  15.441   7.270  14.859  0.0521  0.1318  0.1889
13114W        W30638  13.103   6.715   0.568  0.0747 -0.2512  0.0774
13115W        W30639  17.478   8.134  12.987  0.1462  0.2299  0.1118
13116W        W30640  11.474   1.931   2.572  0.0872  0.0237  0.1162
13117W        W30641  14.233   3.028  15.699  0.1743 -0.2830 -0.2160
13118W        W30642  11.608   4.776  12.716  0.0602  0.1064  0.1883
13119W        W30643  16.741   8.175  10.689 -0.2563  0.0069 -0.1413
13120W        W30644   7.928  13.337   4.244  0.4323  0.4558  0.1384
13121W        W30645   7.576  15.551   0.595  0.2073 -0.1906 -0.2626
13122W        W30646   9.872   3.752   1.982  0.4194  0.2418 -0.1275
13123W        W30647   8.250   7.907  11.322 -0.1775  0.0462 -0.0012
13124W        W30648  13.177   1.269  12.644 -0.2075 -0.1544 -0.2506
13125W        W30649  15.679   5.711  14.386  0.1714  0.2506  0.1871
13126W        W30650   1.557  10.787  13.638  0.2170  0.2377  0.4025
13127W        W30651  16.483   7.396  13.132 -0.4323  0.3121  0.0075
13128W        W30652  12.916   5.221  13.846 -0.0888 -0.1035 -0.0752
13129W        W30653  11.485  14.529  15.184 -0.0163 -0.0401  0.0656
13130W        W30654  12.665   3.732   2.917 -0.1324 -0.2425  0.0004
13131W        W30655  12.553   0.051  11.415 -0.2018  0.2055 -0.2415
13132W        W30656   2.664   1.829   3.021 -0.0661  0.1252 -0.3375
13133W        W30657  18.235  13.173  14.990 -0.4725  0.1851  0.0165
13134W        W30658   7.851   0.001   0.735  0.3190  0.0246  0.3278
13135W        W30659  16.124   9.169  11.501 -0.2152 -0.2478  0.2167
13136W        W30660   6.233   3.534   3.772 -0.0695  0.1850 -0.0780
13137W        W30661   4.746   8.509   3.447  0.0108 -0.4211 -0.0581
13138W        W30662   1.608  17.473   3.021 -0.5816  0.1175  0.1891
13139W        W30663  16.469  15.788   2.176  0.0648 -0.1516 -0.0075
13140W        W30664   5.990  18.183   5.018  0.0098  0.3632  0.0377
13141W        W30665  12.323   7.151   1.614 -0.2200  0.0004  0.1740
13142W        W30666  10.818   4.731  14.556  0.1879 -0.1173  0.1247
13143W        W30667   8.734   5.467   2.498  0.0026  0.0621  0.2019
13144W        W30668  12.342  10.631   2.606  0.1886  0.3744 -0.1783
13145W        W30669   5.215   3.560   2.253  0.2451  0.1130 -0.0520
13146W        W30670   7.903  12.741  11.603  0.0276  0.3600 -0.1148
13147W        W30671   1.431  12.478   0.880  0.2952 -0.0340 -0.4700
13148W        W30672  12.803  11.139  11.378 -0.0908 -0.1152 -0.0006
13149W        W30673  15.707   0.338  15.333 -0.1339  0.4070 -0.1098
13150W        W30674  15.880   5.784  13.070 -0.2635  0.2843 -0.1863
13151W        W30675  15.142  12.899  11.665  0.1937 -0.2661 -0.0379
13152W        W30676  14.946   1.527   2.040 -0.1248 -0.1472 -0.1521
13153W        W30677  16.693   8.960  13.024 -0.2968 -0.0418 -0.0280
13154W        W30678  13.539  12.076   5.621 -0.4988 -0.0576 -0.2420
13155W        W30679  13.417   8.533  15.353 -0.1661  0.1436 -0.3642
13156W        W30680   1.492  12.835  12.446  0.3542 -0.0769  0.1005
13157W        W30681   6.234   2.406  12.622  0.0455  0.0417  0.1366
13158W        W30682  12.258   7.641  11.439  0.2740  0.0069  0.0296
13159W        W30683   7.725   5.622   0.190  0.2503  0.0663  0.1711
13160W        W30684  10.038  10.074  12.526 -0.0475 -0.1480  0.0423
13161W        W30685  13.191   1.854  15.667 -0.0826  0.0778 -0.2393
13162W        W30686  13.520   8.957   4.243  0.3194  0.2392  0.1228
13163W        W30687   2.892  16.655   5.285 -0.5206  0.1505  0.1174
13164W        W30688  15.691  14.312   0.498  0.1944  0.1776  0.0345
13165W        W30689   4.547  14.528   0.613 -0.2094 -0.0657  0.2670
13166W        W30690   7.242  13.737  12.628  0.0736 -0.0291  0.1984
13167W        W30691  16.613  13.289   2.230 -0.4506 -0.4036  0.2343
13168W        W30692  15.413  14.158  14.991  0.0990 -0.0104  0.1612
13169W        W30693   9.706   2.019   3.126 -0.3551  0.1974  0.3185
13170W        W30694  17.114  10.097  14.886  0.2024  0.0927  0.2463
13171W        W30695   7.877   9.120   4.359 -0.1351 -0.1550  0.1969
13172W        W30696   9.898   9.703   2.004  0.1489  0.1672  0.0262
13173W        W30697  13.487  17.586   2.319  0.1038 -0.2836 -0.4029
13174W        W30698  14.817   6.262   0.088 -0.0769 -0.0388  0.2503
13175W        W30699   4.680  14.353   1.645 -0.0037  0.1964 -0.2016
13176W        W30700   8.873   5.906  14.367  0.0585 -0.3890 -0.2184
13177W        W30701   7.250  16.605   1.422 -0.1066  0.2171 -0.1492
13178W        W30702   4.179   7.250   4.228  0.2803  0.1937  0.0997
13179W        W30703   4.686  10.448   2.157  0.3314 -0.2417 -0.2693
13180W        W30704  11.973  12.949  13.537 -0.1474 -0.2824 -0.3509
13181W        W30705   4.790   2.253   4.727  0.3321  0.2007 -0.0628
13182W        W30706  10.651  11.007   4.607  0.1473  0.0274  0.2270
13183W        W30707  18.111   3.604   3.436 -0.1363 -0.2880 -0.3654
13184W        W30708   4.298  13.182  15.103 -0.2259  0.2616  0.0823
13185W        W30709   5.827   2.118   3.974 -0.1424 -0.3294  0.0391
13186W        W30710  18.131   5.927  12.483  0.1391  0.1410 -0.0474
13187W        W30711  12.131  10.621  10.108  0.0999 -0.1718 -0.0224
13188W        W30712  17.404   2.929  14.383  0.2535 -0.0168 -0.0902
13189W        W30713   7.685   2.528  14.137 -0.0123  0.0801  0.0927
13190W        W30714   1.462  14.249  10.021 -0.0609  0.0811 -0.1875
13191W        W30715  13.846  11.631  14.500 -0.4384  0.2360  0.0274
13192W        W30716  12.297   2.122  14.000 -0.0558  0.0706  0.0960
13193W        W30717  11.000  15.944  13.890 -0.2678 -0.0800 -0.3565
13194W        W30718   2.769   4.557  13.243  0.3497  0.2270 -0.0120
13195W        W30719   3.816  14.746   1.525  0.0574  0.1056 -0.1069
13196W        W30720  11.520   6.282   4.499  0.1650 -0.1974  0.4632
13197W        W30721   3.424  17.267  13.486  0.0499 -0.3847  0.2999
13198W        W30722  17.076   5.657   1.129  0.0221 -0.0371 -0.2715
13199W        W30723   6.518  17.154   3.486  0.0153  0.0735  0.0152
13200W        W30724   9.724   1.527  10.838 -0.1111 -0.2715 -0.1200
13201W        W30725  14.646  13.330   2.203 -0.1275 -0.0530 -0.0860
13202W        W30726   3.695   6.317  13.342 -0.0812 -0.1909 -0.0104
13203W        W30727  13.494   5.686   1.226 -0.1808  0.0508 -0.1756
13204W        W30728  12.630   9.429   5.089 -0.0912 -0.2320  0.2601
13205W        W30729  10.904   5.090  13.846  0.2538  0.1964  0.5036
13206W        W30730   1.608  12.289   3.643  0.1727 -0.3074  0.1170
13207W        W30731   1.781  16.133   2.865  0.0418 -0.0594 -0.3523
13208W        W30732  15.423  14.603   1.525 -0.2751  0.0182 -0.2787
13209W        W30733   1.306   9.617  12.758 -0.1571 -0.3223  0.0155
13210W        W30734   8.687   2.363  11.623 -0.3620 -0.0459  0.2811
13211W        W30735  11.281  18.070   1.274  0.1157 -0.1449  0.0542
13212W        W30736   9.905  11.924   2.121 -0.1477  0.0111 -0.0785
13213W        W30737   1.125   8.476  15.617  0.1947  0.0438 -0.0799
13214W        W30738   0.730  14.858   9.995 -0.0386  0.2125 -0.1983
13215W        W30739  12.784  10.554  13.647 -0.2605 -0.1639  0.0445
13216W        W30740  15.436  17.714   2.734  0.2169  0.1628  0.0497
13217W        W30741   6.572   6.136  13.557 -0.3270  0.0836  0.2571
13218W        W30742   2.863   2.086   3.635 -0.2476  0.0597  0.1542
13219W        W30743   2.057   2.229   4.727  0.0175 -0.0466  0.1610
13220W        W30744  14.740   9.080   2.477 -0.2458 -0.2537  0.2031
13221W        W30745   9.159  14.958  13.286  0.3842  0.0394  0.0657
13222W        W30746   6.373  11.792   4.856  0.0347 -0.1999  0.3493
13223W        W30747   7.021   6.994  15.652 -0.1786 -0.2688  0.1692
13224W        W30748   2.881   2.070   4.194  0.2001 -0.0920  0.0766
13225W        W30749  17.869  17.979  14.726 -0.3431  0.1635 -0.3234
13226W        W30750   7.357  11.936  12.086  0.5330 -0.4187 -0.2611
13227W        W30751   3.290   4.821  13.920  0.2570 -0.0534  0.0126
13228W        W30752   8.001   0.023   1.950  0.3752  0.0706  0.0684
13229W        W30753  10.609   9.506  13.065 -0.1789 -0.2798 -0.1082
13230W        W30754   2.679  15.945  13.825 -0.2274  0.0243  0.1175
13231W        W30755  13.703   2.683  12.329 -0.1314  0.3352 -0.4609
13232W        W30756   5.469   8.182   2.449 -0.0594  0.0281 -0.0407
13233W        W30757  11.403   9.604  14.219  0.2251  0.1376  0.6154
13234W        W30758  12.751  16.421   4.789 -0.0748 -0.1474 -0.0346
13235W        W30759  16.535   4.928   0.135  0.0813 -0.2394 -0.0527
13236W        W30760   1.149  16.889   1.920  0.0617  0.1707  0.1177
13237W        W30761   0.979  12.278   1.087  0.1131  0.2136 -0.0153
13238W        W30762  14.820  17.944  15.085 -0.1725  0.0431 -0.0007
13239W        W30763   1.225   4.339  12.490  0.3611 -0.3126  0.2553
13240W        W30764   0.130  13.431   2.251  0.0502 -0.2730 -0.0430
13241W        W30765  17.193   3.383  14.386 -0.1333 -0.0414  0.1142
13242W        W30766   2.542  18.485   2.819  0.1119  0.0499  0.0768
13243W        W30767  12.080   2.373  14.319 -0.1926  0.0150 -0.0998
13244W        W30768  15.450   9.473   3.891  0.0115 -0.1757  0.1569
13245W        W30769   5.967   1.178   1.907  0.1107 -0.1979  0.0555
13246W        W30770  12.744   7.313  15.309 -0.0506 -0.2404  0.5240
13247W        W30771   8.445   5.027   2.363 -0.0134  0.5490 -0.1309
13248W        W30772  18.185   4.372  14.625 -0.1263  0.3523  0.1425
13249W        W30773   3.447  16.298   0.678 -0.1036  0.3257 -0.0287
13250W        W30774   3.065  15.584   3.708 -0.0267 -0.2342 -0.1712
13251W        W30775   0.364  15.769   0.877  0.1321 -0.1587  0.2077
13252W        W30776  12.187  18.416   4.665 -0.0402 -0.2517  0.2098
13253W        W30777  12.830   6.910   2.366  0.0601 -0.1501  0.0485
13254W        W30778  17.526   9.689  13.253 -0.0080 -0.0960 -0.1316
13255W        W30779   4.042  10.948  12.271 -0.2598  0.2096 -0.0008
13256W        W30780  14.466   8.912   1.546  0.1187 -0.2758 -0.2665
13257W        W30781  17.245   6.187   4.356 -0.0457 -0.0050  0.1726
13258W        W30782   7.848   4.888  12.431  0.1662  0.1514 -0.4055
13259W        W30783   7.020  10.214   4.064  0.1504 -0.0157 -0.0003
13260W        W30784   7.957   0.478  15.666  0.0720  0.0366 -0.0724
13261W        W30785  11.188  15.035  12.143  0.0397 -0.2834  0.0303
13262W        W30786   8.945   8.565   2.321  0.0286  0.0243 -0.0611
13263W        W30787   2.614   4.092   3.538 -0.0745  0.1040  0.2757
13264W        W30788  17.974  13.370   2.541 -0.0971  0.4781 -0.0046
13265W        W30789  12.659  17.952   2.588  0.2333  0.1948 -0.0291
13266W        W30790   7.501   2.625   4.419 -0.1183  0.0970  0.1217
13267W        W30791   5.021   3.333   6.077  0.1704 -0.1570  0.1012
13268W        W30792  13.861   0.299   6.039  0.0115 -0.0902  0.1057
13269W        W30793   0.354   1.590   4.640  0.1403 -0.2561 -0.2915
13270W        W30794   3.196   5.539   4.704 -0.3210 -0.3762 -0.2531
13271W        W30795  10.784   2.769  15.003 -0.3125  0.2064  0.1977
13272W        W30796  14.486  18.221   0.397  0.2185  0.0026 -0.2356
13273W        W30797   9.625  13.379  14.536  0.0262  0.0719  0.1929
13274W        W30798   7.800   4.811  14.053  0.0079  0.0731  0.1163
13275W        W30799   5.444  16.685  12.987  0.0226 -0.1366 -0.0002
13276W        W30800  13.872   3.190  12.331 -0.3354 -0.1713  0.0053
13277W        W30801  17.427   5.109  10.692  0.2764  0.1480 -0.1230
13278W        W30802   9.400   8.724   5.344 -0.0553 -0.1202  0.3766
13279W        W30803  16.238   2.581   2.252  0.3554  0.2325  0.0958
13280W        W30804   2.325  15.436   2.598  0.2808 -0.1409  0.2327
13281W        W30805  17.020  13.901   3.305  0.0520 -0.0594  0.0517
13282W        W30806   7.183   4.759  15.664 -0.0133  0.2475  0.7107
13283W        W30807   0.959   3.555  13.015  0.4647  0.0717 -0.0414
13284W        W30808  17.082   0.471   5.887 -0.0235 -0.1019  0.3658
13285W        W30809   5.392  18.228  14.266 -0.2431 -0.0671 -0.2094
13286W        W30810  15.886  15.998   4.006  0.2812 -0.0917  0.1845
13287W        W30811   3.730  14.207  11.779  0.0183 -0.0342  0.2135
13288W        W30812   6.001  15.743  13.216  0.0219  0.0377 -0.1766
13289W        W30813   2.594  14.367  12.431  0.3387 -0.0678  0.0622
13290W        W30814  12.791  13.935  12.002  0.3359  0.0878 -0.0390
13291W        W30815   8.953  11.246   0.037  0.0959  0.0839  0.0945
13292W        W30816   5.447  10.364  14.829  0.2637 -0.2395  0.0877
13293W        W30817   0.781   9.540   0.405  0.1100  0.1382 -0.0216
13294W        W30818  10.551  13.048   2.710  0.0611  0.3426  0.0646
13295W        W30819   1.703   3.677   1.428 -0.1070 -0.0713 -0.0277
13296W        W30820   9.972   8.661   0.762  0.1141 -0.1118  0.5331
13297W        W30821   0.363   2.452  13.572  0.0903 -0.0287 -0.1479
13298W        W30822   8.530  12.208  10.988 -0.0982  0.2912 -0.0856
13299W        W30823  10.851   4.478   3.756  0.0713 -0.0921  0.1605
13300W        W30824   4.828  10.489  12.573 -0.0994  0.0041 -0.2095
13301W        W30825   3.827  12.861  13.630 -0.0865  0.0748 -0.2820
13302W        W30826  13.320   5.484   2.242 -0.0294  0.3618  0.3147
13303W        W30827   9.830  11.467  12.506  0.0128  0.0550  0.0455
13304W        W30828  13.880   0.484   4.057 -0.3605  0.2913 -0.2306
13305W        W30829  11.403   7.673  14.569 -0.0458 -0.0283 -0.2795
13306W        W30830  12.967  18.358  14.954  0.1249  0.2133  0.2450
13307W        W30831  13.338  12.431  15.620  0.0411 -0.3907 -0.0277
13308W        W30832   3.200   5.829   1.015  0.2317 -0.3248  0.2930
13309W        W30833   3.840  16.172  11.656 -0.1900  0.1768  0.0493
13310W        W30834   5.676   3.411  14.439 -0.3890  0.0973 -0.0575
13311W        W30835  14.037  12.008  13.269  0.2857  0.0700 -0.0772
13312W        W30836   2.284  15.110   0.591  0.0488  0.1878  0.0239
13313W        W30837  10.766  11.874  13.474 -0.1421  0.1411  0.2039
13314W        W30838  12.330  17.781  13.946  0.2141  0.2371 -0.1907
13315W        W30839   1.949   2.691   2.296  0.2186 -0.2109  0.2499
13316W        W30840  17.609  16.533   3.027 -0.0062 -0.0025  0.0521
13317W        W30841  17.494   8.318  14.698  0.2245 -0.0922 -0.1023
13318W        W30842   8.405   9.690   3.736  0.1291  0.2147  0.1951
13319W        W30843   2.848  11.314  11.060  0.1269 -0.0827 -0.0523
13320W        W30844  13.627  13.005  11.322  0.0173 -0.1443 -0.0314
13321W        W30845   4.835   6.925   2.182  0.0167  0.1174  0.2718
13322W        W30846   5.422  16.312  15.320 -0.0121 -0.3361 -0.1280
13323W        W30847   7.640  16.881   0.116  0.1431 -0.3450  0.1039
13324W        W30848   3.502  16.418  15.564  0.2437 -0.0116  0.0539
13325W        W30849  15.025  13.235  15.060 -0.0849  0.0026  0.2122
13326W        W30850   3.458  17.670   0.904  0.1404 -0.0672  0.1919
13327W        W30851   1.617   6.258   4.517 -0.1145 -0.3327  0.0544
13328W        W30852   4.268   0.050   4.985  0.2719 -0.0399 -0.3843
13329W        W30853  16.876   8.378  13.468 -0.0716  0.0384  0.4225
13330W        W30854   8.178   5.080   0.503 -0.1620 -0.4268  0.3848
13331W        W30855  17.670   6.089  14.786 -0.1034  0.1181 -0.1048
13332W        W30856  14.231   8.600  11.594 -0.0487  0.1269 -0.0126
13333W        W30857  18.346  12.522   3.549  0.1548 -0.0119  0.0860
13334W        W30858  15.559  12.099  13.881  0.3459 -0.0731 -0.0589
13335W        W30859  13.832  10.578  12.119 -0.3833  0.2692  0.2003
13336W        W30860   5.798   9.527  14.687 -0.0182 -0.2514 -0.1800
13337W        W30861   1.377   6.181  11.249  0.0214  0.1106 -0.0765
13338W        W30862  10.105   8.797  15.456  0.0024 -0.1689 -0.0429
13339W        W30863   8.762   4.902   4.925  0.0169 -0.1769  0.0162
13340W        W30864   2.731  10.410  12.115  0.0971 -0.0932  0.1046
13341W        W30865   6.928   5.075   2.106  0.1074  0.2032 -0.0537
13342W        W30866   4.492  11.370  14.480  0.1583  0.0227 -0.3121
13343W        W30867   2.951   1.454  14.003 -0.2171  0.1133  0.0455
13344W        W30868  10.534   6.286   3.253  0.1936  0.2024 -0.3690
13345W        W30869  10.871   5.139  15.377  0.0419 -0.2252 -0.1382
13346W        W30870   5.151  11.498   0.178 -0.0250  0.0591  0.0530
13347W        W30871   3.596   4.466   4.640  0.2246  0.1047 -0.0864
13348W        W30872   3.810   3.442   4.168  0.2629 -0.3393  0.1002
13349W        W30873  16.077   3.169   0.253  0.0284 -0.0101 -0.1163
13350W        W30874   6.611   4.117   0.585  0.1946  0.2138 -0.2741
13351W        W30875  11.840   4.961   1.483 -0.0007 -0.0742 -0.1187
13352W        W30876   2.632  18.307   0.175  0.2250  0.2247 -0.1048
13353W        W30877   7.880   5.635   3.542  0.2120 -0.1612 -0.2019
13354W        W30878  13.227  18.408  15.402 -0.0214  0.0552  0.1456
13355W        W30879   7.930  12.281   2.011  0.0719  0.0549  0.2502
13356W        W30880   2.272   6.187  12.089 -0.0008  0.1764  0.1397
13357W        W30881  17.163  15.247  12.522 -0.0615 -0.0903  0.2075
13358W        W30882   6.549   6.938  10.702 -0.2646  0.0433  0.1229
13359W        W30883   3.115   5.441   0.675 -0.1262  0.0656 -0.2171
13360W        W30884   1.608   8.135   2.996  0.0855 -0.0681  0.1774
13361W        W30885   2.067   7.043   5.976 -0.0905  0.0316 -0.0052
13362W        W30886  13.689  10.830   0.864  0.1857  0.0859 -0.1048
13363W        W30887  14.707   2.073   3.518  0.0556  0.0448 -0.2650
13364W        W30888  10.554   0.936  13.926  0.2350  0.1476 -0.3111
13365W        W30889  11.322  11.497   4.484  0.1121 -0.0335 -0.2373
13366W        W30890   0.593   2.170   2.564 -0.3013  0.1618 -0.2857
13367W        W30891  11.139   8.411  15.196  0.2197  0.1345  0.0561
13368W        W30892  15.016  14.124  12.500  0.3982 -0.1139  0.2100
13369W        W30893   6.243  17.743   3.154  0.1793  0.1593  0.1077
13370W        W30894   7.195  15.260  12.256  0.3526  0.1082 -0.0415
13371W        W30895   7.409  16.457  12.694  0.0637 -0.2861 -0.0500
13372W        W30896   8.879  17.864   4.674  0.0578  0.0213 -0.0497
13373W        W30897  18.046   7.455   2.183 -0.1061  0.0041 -0.0393
13374W        W30898  14.004  16.627   1.478  0.0777  0.0885 -0.1299
13375W        W30899   7.538  15.790   0.129 -0.3484 -0.1198  0.2146
13376W        W30900   2.117   7.685   0.605 -0.0004  0.2378 -0.1609
13377W        W30901  10.388   3.776   0.851  0.3308  0.0151  0.1296
13378W        W30902   2.834   2.937   5.865 -0.1184  0.3420  0.0014
13379W        W30903   8.236  17.440  15.061  0.0478 -0.1040 -0.1321
13380W        W30904   7.161   2.244  14.998 -0.0018 -0.2822  0.5450
13381W        W30905   4.710   0.528   0.004 -0.1578 -0.1319  0.1483
13382W        W30906  11.148   8.926   4.257  0.1189 -0.0575  0.1149
13383W        W30907   6.879   7.155  14.466 -0.0101  0.0630 -0.1773
13384W        W30908  15.426   9.138   0.490  0.0449  0.0140 -0.5823
13385W        W30909   6.268   8.551   3.571 -0.1678  0.2923  0.0120
13386W        W30910   8.426   0.905   4.181  0.0816  0.1976  0.1296
13387W        W30911   4.581   0.645  14.725 -0.0388  0.1225 -0.2614
13388W        W30912   5.717   9.625   0.185  0.1405 -0.0585 -0.2206
13389W        W30913   7.672   6.413  11.448 -0.0651 -0.2881  0.2458
13390W        W30914  17.745   2.127  12.876 -0.0411  0.0493 -0.0181
13391W        W30915  15.385   9.877   3.464 -0.0685  0.2060 -0.3085
13392W        W30916   5.966  11.098   9.544  0.3332 -0.2260 -0.2584
13393W        W30917  11.217   1.535   0.322 -0.1368  0.0817 -0.2582
13394W        W30918  10.152   7.600   1.395 -0.1152 -0.2570  0.1978
13395W        W30919   6.154   3.920   2.321  0.3027 -0.0728  0.2267
13396W        W30920   6.719  18.385  15.562 -0.0255 -0.1400  0.2144
13397W        W30921   8.540   5.672  14.062  0.0824 -0.1385  0.2046
13398W        W30922   9.625   4.670   0.798 -0.0160 -0.0031 -0.2448
13399W        W30923   9.626   6.791   4.288 -0.1569  0.0758 -0.1664
13400W        W30924  11.988   8.437   0.646  0.3086 -0.4432  0.1117
13401W        W30925  13.597   1.795  12.175 -0.1068  0.1561  0.0308
13402W        W30926  13.380   4.289   1.587 -0.4126  0.0530  0.0063
13403W        W30927   0.065   1.190  13.722 -0.4673 -0.1950  0.1079
13404W        W30928  13.383  15.090   1.169 -0.1038  0.0959 -0.0778
13405W        W30929   5.866  17.789  11.665 -0.3423 -0.1881 -0.1065
13406W        W30930  13.620   8.710  14.267 -0.2172 -0.2599  0.3510
13407W        W30931  10.684   2.776  11.389  0.0181  0.0634  0.1809
13408W        W30932  16.144  17.706   3.923 -0.1284 -0.4189  0.3954
13409W        W30933  15.529  13.198   1.356  0.1334  0.0622  0.0587
13410W        W30934  17.295   4.137  11.182  0.3044  0.0473 -0.0963
13411W        W30935  15.355   1.395   3.081 -0.2441 -0.3234 -0.1058
13412W        W30936   6.902   0.523  12.174 -0.1338 -0.1620 -0.2870
13413W        W30937   8.105   7.138   3.366 -0.0996 -0.0270  0.2015
13414W        W30938  16.865   1.157   1.644  0.1380 -0.1017  0.1008
13415W        W30939  18.423   6.460   0.568 -0.3016  0.1958  0.2575
13416W        W30940  18.479   6.368   1.935  0.0388 -0.1961 -0.1208
13417W        W30941   0.245   9.490  13.211  0.0461  0.3205  0.1644
13418W        W30942   7.003  13.202   2.941  0.2828 -0.3203 -0.1103
13419W        W30943  13.293   6.881   4.202  0.2348 -0.0020  0.2734
13420W        W30944  16.238  16.824   4.115 -0.1001 -0.0522  0.1108
13421W        W30945  13.535  17.074   5.568  0.4626  0.3522  0.3310
13422W        W30946   0.484   1.097  14.729 -0.0800  0.1307  0.1022
13423W        W30947   2.506   8.021  11.269 -0.0793  0.1499 -0.0721
13424W        W30948   7.802   2.130   2.160  0.1095  0.1834 -0.1898
13425W        W30949  14.429   8.185  11.822 -0.1665  0.0990 -0.0965
13426W        W30950   0.356   3.804   2.528  0.0014  0.0163  0.0306
13427W        W30951  13.364  12.764  11.669  0.2936  0.0031 -0.0976
13428W        W30952  17.239  16.052  12.378 -0.3839 -0.1252  0.0320
13429W        W30953   5.530  11.658  15.594  0.2135 -0.1981 -0.0604
13430W        W30954   2.329  16.817   4.557 -0.0575 -0.2320  0.0974
13431W        W30955   3.723  17.729  13.607 -0.0286  0.1347 -0.0977
13432W        W30956  12.940   6.455  13.905 -0.1512 -0.0565 -0.1459
13433W        W30957  11.020   6.303   4.710 -0.2928  0.2852 -0.0460
13434W        W30958   9.454  14.979   0.110 -0.1106 -0.1633  0.1576
13435W        W30959   9.227   2.742  14.451  0.0809  0.0748  0.0565
13436W        W30960  16.368  13.042  14.119  0.1631  0.1398 -0.1980
13437W        W30961   4.379   8.677  15.357 -0.2561 -0.0406 -0.1845
13438W        W30962   7.063  12.065   3.444 -0.2518  0.0363 -0.3430
13439W        W30963   6.339  13.945   4.776 -0.0649 -0.2389  0.2082
13440W        W30964   1.424   1.344   1.517 -0.0408  0.0009 -0.0832
13441W        W30965  14.962   3.924   3.810 -0.2431 -0.1727  0.0871
13442W        W30966  16.353  16.204   1.543 -0.1950 -0.0053  0.0566
13443W        W30967   7.496   5.942  12.530  0.1145 -0.0480  0.1117
13444W        W30968   2.147  11.765   0.891  0.1661  0.0024  0.1356
13445W        W30969   6.494  15.626   4.251 -0.1453 -0.1329  0.1815
13446W        W30970  12.700   3.395  15.227 -0.0262 -0.0730 -0.0641
13447W        W30971  10.561  15.652  13.555 -0.0523 -0.0673 -0.0172
13448W        W30972  14.037  15.901   2.022 -0.0900  0.1174  0.3925
13449W        W30973  10.989   8.002  13.179 -0.1265 -0.1793 -0.2702
13450W        W30974  12.240   7.552  12.890 -0.2973 -0.1996  0.5337
13451W        W30975   6.029  10.704  11.988  0.2128  0.2887 -0.0617
13452W        W30976   4.409   0.151  15.579 -0.2219  0.2436 -0.0023
13453W        W30977   7.752   3.108  13.892 -0.0429  0.0865 -0.2103
13454W        W30978   3.013  11.272   2.139 -0.2535  0.0115  0.1132
13455W        W30979   6.811  12.679  14.185 -0.0549 -0.2013 -0.0590
13456W        W30980   4.575  15.022   3.367 -0.1667  0.2313  0.0095
13457W        W30981  10.658   0.040  12.395  0.3013  0.1054 -0.2867
13458W        W30982   6.829   1.338   0.327 -0.1159  0.3646 -0.1713
13459W        W30983  16.730  16.276  14.463  0.0951  0.0666 -0.0319
13460W        W30984   9.136   4.618   2.158 -0.0761  0.1468  0.4700
13461W        W30985   5.638   9.937  15.109  0.1746 -0.1280  0.0128
13462W        W30986   5.713   2.359  12.592 -0.0283  0.1187 -0.2472
13463W        W30987  15.886   2.327  10.601 -0.1201 -0.1548 -0.0446
13464W        W30988   2.350   4.821  14.921  0.0052 -0.0233  0.2375
13465W        W30989  12.598   8.318  13.232  0.0208 -0.0038  0.3415
13466W        W30990  15.950   1.059   3.999 -0.2836  0.2480 -0.1514
13467W        W30991  16.817   9.023   4.740  0.0069 -0.2490 -0.1376
13468W        W30992   1.870   9.090   4.236  0.0540 -0.2089 -0.0422
13469W        W30993   6.886   1.524  13.817 -0.0981  0.2063 -0.1441
13470W        W30994  12.054  10.806  11.975  0.3544 -0.0060 -0.2975
13471W        W30995  17.984   5.249   2.866  0.0973 -0.0859  0.1363
13472W        W30996   0.623   6.010  12.561 -0.2462  0.3774  0.2736
13473W        W30997   2.376   3.036  12.216  0.2886 -0.0128 -0.0564
13474W        W30998  15.964   8.965   2.779  0.2104 -0.2640 -0.1124
13475W        W30999   8.329  14.166  14.873  0.0576  0.0707  0.1324
13476W        W31000  11.389   1.662   4.223 -0.3130  0.1913 -0.0219
13477W        W31001   4.351   1.780  15.501 -0.1426 -0.1601 -0.0553
13478W        W31002   2.798  13.666  13.679  0.1358 -0.2651  0.1769
13479W        W31003  17.632  15.037  12.662 -0.1485 -0.0289  0.2181
13480W        W31004  14.447   8.387   1.859 -0.3842  0.1433  0.0279
13481W        W31005   9.588   1.119  13.213  0.0169  0.3052 -0.0335
13482W        W31006  12.626  11.055   0.909 -0.0029  0.1986 -0.0846
13483W        W31007   3.352   6.655  10.549 -0.0773  0.0293 -0.1789
13484W        W31008  10.128   2.367  12.700 -0.0105  0.1312  0.0234
13485W        W31009  13.611  15.368  15.547 -0.0331 -0.1645  0.1363
13486W        W31010   2.450   1.839   4.575  0.0701  0.2940  0.0956
13487W        W31011   1.321   0.973   4.497 -0.1327  0.4866 -0.2883
13488W        W31012  11.825   0.364  12.939 -0.2063 -0.0212  0.0410
13489W        W31013  14.753  16.282  10.800 -0.0708  0.1005 -0.0965
13490W        W31014   9.100   2.106  12.457 -0.1648 -0.0353 -0.0231
13491W        W31015   9.759   7.419  12.857  0.1293  0.2215 -0.0304
13492W        W31016  10.835   5.258   0.553  0.2868  0.4203 -0.0882
13493W        W31017  17.569   6.580  15.102 -0.0892 -0.0233  0.0295
13494W        W31018  14.436   3.146  14.487 -0.0148  0.2492 -0.1923
13495W        W31019   9.671  12.222  12.955 -0.0096  0.0942  0.3186
13496W        W31020   3.450  15.898   5.088 -0.0640  0.3426 -0.0638
13497W        W31021  14.526   8.019  14.242  0.0219 -0.3342  0.4162
13498W        W31022  12.313  13.164  13.235 -0.0956 -0.3313 -0.1259
13499W        W31023   9.413   5.971   3.508 -0.0618  0.1251  0.0215
13500W        W31024   6.868  15.514   5.677 -0.0289 -0.2993 -0.2576
13501W        W31025  11.921   3.790  11.179 -0.2599  0.1512  0.1475
13502W        W31026  11.225   1.864  13.368  0.0760 -0.1633  0.3085
13503W        W31027  14.117   8.033   0.354 -0.0932 -0.0257 -0.1880
13504W        W31028  12.311  12.190   1.226  0.1653  0.1045 -0.0653
13505W        W31029   1.233   4.104  11.000  0.1446  0.0893  0.0595
13506W        W31030   1.425  10.153   3.507 -0.0726 -0.2607  0.0875
13507W        W31031  16.514   2.768   0.584  0.0249 -0.1108 -0.1639
13508W        W31032   8.192  15.589  15.100 -0.0756 -0.0058 -0.0755
13509W        W31033   5.169   6.627   4.034 -0.2544  0.1258  0.0354
13510W        W31034   5.265   6.480   4.537  0.0607 -0.2208  0.0408
13511W        W31035  11.695   2.624   3.733 -0.1573  0.1390  0.0157
13512W        W31036   6.279   8.978   4.234 -0.0500  0.0438  0.1457
13513W        W31037   3.374   4.136   2.033 -0.0089  0.0398 -0.2462
13514W        W31038  15.868  17.974  11.457 -0.1175  0.2985  0.1092
13515W        W31039   8.776   6.975  11.433 -0.0053 -0.0534 -0.0655
13516W        W31040  15.937   2.221  12.335  0.0396 -0.3073  0.1180
13517W        W31041  11.917  13.943   0.966  0.0181  0.1454  0.1145
13518W        W31042   7.086  11.850  13.955  0.0173  0.2414  0.4808
13519W        W31043   2.793  16.860   0.156 -0.2978 -0.1689 -0.0890
13520W        W31044  13.356   5.840   1.921  0.0913 -0.1595  0.1149
13521W        W31045   6.059  12.444   1.546 -0.0827  0.0620 -0.0956
13522W        W31046  16.291  13.548   2.506 -0.0877 -0.0868  0.1852
13523W        W31047  16.607   3.642  10.869 -0.0672 -0.1043  0.1811
13524W        W31048  15.322  13.842   4.924  0.4287 -0.0074  0.0786
13525W        W31049   4.355  10.605   3.618  0.2478 -0.1756 -0.2226
13526W        W31050  12.719   4.117  13.089  0.1075  0.3699 -0.1346
13527W        W31051  13.883  15.920  13.304 -0.0576 -0.1222  0.0113
13528W        W31052   4.812  15.089   1.815  0.0351 -0.1830 -0.0748
13529W        W31053   4.298   7.442  14.523 -0.0823 -0.1582 -0.2042
13530W        W31054   6.078   9.829  14.001  0.0203 -0.0412  0.1390
13531W        W31055   6.104   5.004   0.138  0.3008 -0.2941  0.0952
13532W        W31056  15.600  17.402   4.690 -0.1973  0.1815  0.1539
13533W        W31057  11.229   9.313   0.550 -0.0129  0.1909 -0.1411
13534W        W31058   4.042  13.524   0.289 -0.1810 -0.2280  0.3800
13535W        W31059  12.238   4.549  15.374  0.1390 -0.1282 -0.1126
13536W        W31060  10.918   7.563  12.264  0.0474 -0.2369 -0.1126
13537W        W31061   4.145  12.924  11.987 -0.1474  0.1607 -0.2962
13538W        W31062   9.091   5.995   3.149 -0.0572 -0.0325 -0.2845
13539W        W31063  17.761   4.898   3.174 -0.2761  0.2318  0.2184
13540W        W31064   6.637  16.570   4.021  0.1234 -0.0313 -0.1173
13541W        W31065  16.018  13.017   4.494  0.2785  0.0932  0.0721
13542W        W31066   7.840  10.073  14.909  0.1761  0.0046  0.1422
13543W        W31067   4.078  10.763   1.552  0.1375 -0.0556 -0.1794
13544W        W31068   7.954   5.981  12.454  0.3270 -0.0786 -0.1144
13545W        W31069   1.879  16.503   3.676  0.1810 -0.2769  0.1319
13546W        W31070   5.645   7.992  10.771  0.0868 -0.3222 -0.0453
13547W        W31071  10.801  16.043   0.522 -0.2580  0.2565  0.1091
13548W        W31072   9.314   0.624   4.483 -0.3269  0.0198  0.1709
13549W        W31073   4.354  11.861   2.341 -0.3253  0.1763  0.0797
13550W        W31074  17.531  14.459   3.915  0.1629 -0.3516  0.0086
13551W        W31075  14.616  11.612   2.919 -0.0316 -0.2205 -0.1368
13552W        W31076   7.751   5.354  15.429  0.3060  0.0556  0.1372
13553W        W31077  11.214   9.498  14.672 -0.0731  0.0211  0.3418
13554W        W31078   4.979  10.156  11.757  0.0724 -0.2112  0.1562
13555W        W31079   6.700  15.769  11.069  0.1030  0.3598  0.1248
13556W        W31080   4.227  12.254  15.693 -0.0317  0.1572 -0.1519
13557W        W31081  16.617   4.262  10.995 -0.2037 -0.2445  0.0726
13558W        W31082   2.777   8.697   1.154  0.2828 -0.0283 -0.0959
13559W        W31083  13.880  14.411  15.282  0.2977 -0.3335 -0.1017
13560W        W31084   4.298   4.107   2.394 -0.0144  0.0951  0.0749
13561W        W31085  10.730  17.060  14.761 -0.3201  0.0098  0.0595
13562W        W31086   1.184  12.465  13.394  0.2402 -0.0306  0.2043
13563W        W31087   4.166  15.151  11.779 -0.1291  0.2189  0.1638
13564W        W31088  17.424   4.878   0.118  0.0787  0.0687  0.0213
13565W        W31089  15.376   6.510  14.979  0.0199 -0.2467 -0.0608
13566W        W31090  11.479  17.032   1.586 -0.1446  0.0267  0.1064
13567W        W31091  15.281  10.177  14.398 -0.0054  0.0934  0.1242
13568W        W31092  13.080  17.039   5.302 -0.0621  0.1481 -0.1076
13569W        W31093  13.826  11.007   0.357  0.0712  0.0549 -0.0100
13570W        W31094  17.770  11.885  15.121 -0.3789  0.1170  0.0537
13571W        W31095   8.038   8.301  12.135  0.0186  0.0315  0.0483
13572W        W31096  15.147   2.503  13.582  0.3839 -0.0448 -0.0995
13573W        W31097   7.846  16.230  12.674  0.3304  0.1966  0.0469
13574W        W31098   7.418   5.410  12.585  0.2767  0.2959 -0.1965
13575W        W31099  13.710  15.411  13.241  0.2519 -0.1846 -0.2727
13576W        W31100  10.481   7.256   1.584 -0.1816 -0.0631  0.2463
13577W        W31101   1.640   1.570   1.975  0.2910 -0.0609 -0.1420
13578W        W31102  11.263  13.804  13.620 -0.1324 -0.2889 -0.0984
13579W        W31103  17.476   9.561   2.727 -0.1010 -0.1937 -0.1608
13580W        W31104  16.421  17.310  13.881  0.0107 -0.0808 -0.3890
13581W        W31105  10.713  15.409  12.128 -0.3132  0.1026  0.0150
13582W        W31106   9.182  15.770   0.404  0.0183  0.0647  0.0562
13583W        W31107  11.730  17.953   2.853  0.0649 -0.1416  0.0303
13584W        W31108  11.545  17.863  14.827  0.0141  0.1666  0.0200
13585W        W31109   9.753  15.563  15.546 -0.0624  0.0259 -0.1357
13586W        W31110  14.379   7.159   2.536  0.0147 -0.1641 -0.0260
13587W        W31111   6.212  18.106   4.073  0.1710  0.3674 -0.1060
13588W        W31112   5.965  11.333  10.724 -0.0748 -0.1579 -0.0238
13589W        W31113   6.812   8.449  15.674 -0.2715  0.0375  0.0535
13590W        W31114   1.508  11.726   3.606  0.0055 -0.1068  0.2874
13591W        W31115  10.776   3.657  13.573  0.1169  0.0641 -0.0419
13592W        W31116  14.322  13.853   0.121  0.0691 -0.1003  0.0216
13593W        W31117   7.573   1.972  15.010  0.1567 -0.3156 -0.3118
13594W        W31118  14.496  12.971  13.289 -0.0798 -0.1599  0.0517
13595W        W31119  11.312   5.401  15.332 -0.0515 -0.0980 -0.0002
13596W        W31120   3.446  12.617   1.903  0.1805 -0.4395 -0.4429
13597W        W31121   1.706   0.963  13.593  0.0641 -0.0703  0.0364
13598W        W31122  17.056   7.561  14.216 -0.1597  0.3663  0.0944
13599W        W31123   3.890   8.134  11.425  0.0180  0.3981  0.1540
13600W        W31124  16.964   3.086   0.527 -0.1902  0.1282 -0.1333
13601W        W31125  15.986  15.907  13.330  0.1270 -0.2334 -0.0284
13602W        W31126   8.489   7.043  11.055 -0.1062 -0.2676  0.0743
13603W        W31127  16.368  15.341  12.993 -0.1887 -0.1224 -0.1633
13604W        W31128  10.205   1.873   3.245  0.2918 -0.0111  0.0774
13605W        W31129   0.105  12.957  10.564  0.1326  0.1825  0.1024
13606W        W31130   9.114  14.838  14.839 -0.2203 -0.1041 -0.0118
13607W        W31131   2.765   0.091   4.567  0.1217 -0.0154  0.1088
13608W        W31132   3.468   4.109  15.446 -0.0073  0.1051  0.7187
13609W        W31133  15.420   8.153   2.047 -0.0489  0.2813  0.0368
13610W        W31134   6.636   4.661  14.162  0.3445  0.0963 -0.0646
13611W        W31135  14.136   2.747   2.104 -0.1171  0.1204 -0.1451
13612W        W31136  14.343   3.222   0.593  0.0528 -0.3073 -0.0989
13613W        W31137   6.449  12.717   2.419 -0.0065  0.0299  0.2945
13614W        W31138  11.719   4.163  13.229  0.0510 -0.0365  0.3765
13615W        W31139  14.333  13.203   1.748  0.0243 -0.2015 -0.3083
13616W        W31140  10.430   2.431  14.941 -0.0933 -0.0921  0.0237
13617W        W31141   3.241  16.913  11.731 -0.1399 -0.0322  0.3373
13618W        W31142   0.354   4.188   3.759  0.0889  0.1482 -0.1756
13619W        W31143   9.826   5.986   0.199  0.1557 -0.2916 -0.2174
13620W        W31144  18.327   6.181   4.490 -0.0544  0.0187  0.0154
13621W        W31145   7.773  13.604  10.244 -0.2249 -0.1393  0.0587
13622W        W31146  11.629  12.049  13.770  0.1257 -0.0404 -0.1317
13623W        W31147  17.410  15.348  12.955  0.3270 -0.5404 -0.0399
13624W        W31148  13.485   5.376   1.609  0.0254  0.0477  0.0100
13625W        W31149  13.933  17.176  11.914 -0.0301 -0.1135  0.2762
13626W        W31150   7.666   8.353  12.975 -0.1733 -0.1388 -0.0773
13627W        W31151  12.197   1.387   3.201  0.2851 -0.1579 -0.1749
13628W        W31152  18.058  10.253   0.344 -0.0458 -0.1308  0.0146
13629W        W31153  15.550  11.814  14.880 -0.1447  0.0640 -0.1160
13630W        W31154  16.924  10.205   0.912 -0.3299  0.0676  0.0336
13631W        W31155  11.958  12.579  12.104 -0.2797 -0.1752 -0.2254
13632W        W31156   5.348   3.626   0.159 -0.0152 -0.1360  0.1913
13633W        W31157  18.307  16.046  13.206  0.4400  0.0296  0.1326
13634W        W31158  16.799  16.459   0.245  0.0290  0.1253  0.0055
13635W        W31159  16.881   6.116  15.033  0.1290  0.2855  0.1024
13636W        W31160   6.127  18.338   0.410 -0.0131  0.0154 -0.0547
13637W        W31161  16.515  13.362  15.141  0.1459 -0.1605 -0.2169
13638W        W31162   2.500   5.241   1.551 -0.1537  0.2712  0.2836
13639W        W31163   7.996   5.762  13.880 -0.3301 -0.0263  0.6044
13640W        W31164   2.021   6.045   1.538 -0.3785 -0.2580  0.0301
13641W        W31165   0.058  14.713  12.905 -0.2009  0.1221  0.0359
13642W        W31166   7.478   4.121  11.913  0.2310 -0.4207  0.2407
13643W        W31167  13.884   1.505   0.094  0.3115  0.2044 -0.1826
13644W        W31168   2.172   8.242   4.505 -0.3137 -0.1162  0.0309
13645W        W31169  11.747   1.041  11.600  0.1998  0.0363  0.1203
13646W        W31170   0.057   7.216  14.805  0.1103 -0.0298 -0.0886
13647W        W31171  13.124  11.848   1.633  0.0439  0.0484  0.0859
13648W        W31172  16.662   8.341  11.522 -0.2056 -0.1387  0.1049
13649W        W31173  15.577  16.789  14.089  0.1434  0.3222  0.2315
13650W        W31174  18.381   0.344  15.641  0.2053  0.1090  0.1073
13651W        W31175  14.305   3.276   4.810  0.0372  0.2220  0.2720
13652W        W31176  13.110   9.346   1.620  0.0013  0.1219  0.0438
13653W        W31177   0.556   9.788  11.762 -0.1166  0.4726 -0.1856
13654W        W31178   2.237  12.100  12.275 -0.0540  0.2721 -0.1304
13655W        W31179   6.565   3.015   0.298 -0.1959  0.0534 -0.2869
13656W        W31180   3.821  10.605   3.884  0.1175  0.0361  0.1349
13657W        W31181  16.400  15.848   3.889 -0.3532  0.5029 -0.1217
13658W        W31182  17.130   8.313  14.321  0.0588 -0.0869 -0.1271
13659W        W31183  10.452   2.853  13.641  0.2295  0.1600 -0.1006
13660W        W31184   1.294  13.692   1.736  0.1053  0.2906 -0.0362
13661W        W31185   8.151  11.828   2.000 -0.2136 -0.0381  0.0907
13662W        W31186   8.280  12.805   0.797  0.1076 -0.1221  0.0634
13663W        W31187  14.309  10.679   3.811 -0.1874  0.2506 -0.1770
13664W        W31188   2.242   1.760  12.771  0.0977 -0.1168 -0.2120
13665W        W31189  17.688   0.596   0.786 -0.0568  0.2703 -0.2607
13666W        W31190  12.851   4.697   3.122  0.0378 -0.0138 -0.2145
13667W        W31191  15.356  16.856   4.625  0.3148  0.0098  0.1309
13668W        W31192   3.158  12.212  10.717 -0.3099 -0.1766 -0.2782
13669W        W31193  10.803  10.330  11.449 -0.0099 -0.1788  0.2755
13670W        W31194  12.098   8.330   1.468 -0.3565  0.1278 -0.2543
13671W        W31195  17.403  12.728   0.279  0.0425  0.1893  0.2820
13672W        W31196  12.578  18.017  11.665 -0.1854 -0.0205 -0.1084
13673W        W31197  12.645  13.795   5.562 -0.1545  0.0193 -0.0255
13674W        W31198   9.609  15.961  12.744 -0.0493  0.1675 -0.2496
13675W        W31199   6.866   9.947   5.145 -0.2173  0.1028 -0.2271
13676W        W31200  11.451   7.359   0.032 -0.4239 -0.1510  0.3161
13677W        W31201  11.413   1.778  10.712  0.1944  0.1815  0.1092
13678W        W31202   1.125   6.583   1.450  0.2544  0.0186  0.0525
13679W        W31203   1.495  10.913   0.549  0.0351 -0.5105  0.0973
13680W        W31204  14.748   8.438   3.623  0.1646 -0.1851 -0.2003
13681W        W31205   7.404   8.089  14.304 -0.1731  0.4988 -0.0926
13682W        W31206   6.134   1.553  15.351 -0.1154  0.1314 -0.0905
13683W        W31207  10.928   7.293   0.662  0.2048 -0.0842 -0.0579
13684W        W31208   1.010  15.365  14.006  0.2670 -0.0343 -0.1531
13685W        W31209   1.114   4.550  14.761  0.0988  0.0907  0.0751
13686W        W31210   7.671   8.021  13.447 -0.0766  0.2620  0.0613
13687W        W31211   1.011   0.313   2.522 -0.2617 -0.0949  0.1146
13688W        W31212   7.472   3.033  15.302 -0.2064  0.1396  0.3077
13689W        W31213   2.028  15.543  14.607  0.1031  0.0308  0.0197
13690W        W31214  11.493  15.373   2.948 -0.0176 -0.1933  0.1520
13691W        W31215   0.651  10.773   0.217 -0.0448  0.1591  0.0107
13692W        W31216   9.136   5.451   1.903  0.2583 -0.4107 -0.1328
13693W        W31217   4.929   8.097  13.900  0.5502  0.0257 -0.3326
13694W        W31218  10.567   6.736   5.272 -0.1495 -0.2050  0.0192
13695W        W31219   9.462   6.381  11.993 -0.1585 -0.0909 -0.1430
13696W        W31220   3.248  11.317  11.428 -0.2989  0.1889 -0.1198
13697W        W31221   8.280  13.687   4.298 -0.0779 -0.2543  0.2444
13698W        W31222  15.216  17.259   5.018  0.2786  0.0574 -0.0603
13699W        W31223   8.179   2.325   3.708  0.2307  0.0932  0.0014
13700W        W31224   7.287   4.659  11.429  0.0986  0.1044  0.2639
13701W        W31225   1.888   7.658   0.140 -0.0964 -0.2613  0.3095
13702W        W31226  11.968   2.906  12.047  0.1590  0.1159 -0.0950
13703W        W31227   0.739  18.435   1.661  0.1401  0.1653  0.1722
13704W        W31228  11.816  17.311   3.657 -0.1556  0.0444  0.0617
13705W        W31229   6.662   7.288   0.275 -0.1945  0.0127  0.0924
13706W        W31230  10.263   4.277  11.722  0.1550 -0.3136  0.0509
13707W        W31231  15.559   8.405  11.700 -0.1333  0.2599 -0.0252
13708W        W31232   9.197   7.319   3.438  0.1604  0.1310 -0.0986
13709W        W31233   6.985   1.407   2.140 -0.0206 -0.0398  0.2419
13710W        W31234   4.120  15.645   2.347  0.2147 -0.1045  0.0072
13711W        W31235   3.036  13.646  14.146 -0.0392  0.0924  0.2674
13712W        W31236  17.328   1.481  10.234 -0.2945 -0.2778 -0.1299
13713W        W31237   3.160  13.016  11.188 -0.3303 -0.0257  0.1350
13714W        W31238   8.716   8.001   3.077  0.0626  0.0604 -0.1234
13715W        W31239   3.053  17.391   0.770  0.4177 -0.1255 -0.0424
13716W        W31240   0.943  13.196   4.321 -0.4816 -0.0124  0.0285
13717W        W31241   8.554  17.117  12.262 -0.3290  0.0266  0.0232
13718W        W31242  10.023   7.537   4.585  0.2953  0.1072 -0.2449
13719W        W31243   4.649   2.774   2.375  0.0391 -0.0978 -0.0221
13720W        W31244  16.818  12.052  10.323  0.0578  0.1401  0.0274
13721W        W31245   9.871  17.070  15.346 -0.0295 -0.3360  0.0033
13722W        W31246   0.754  11.048   5.745  0.2711  0.1056  0.1838
13723W        W31247  11.206  17.303   2.302 -0.0977  0.1553  0.1537
13724W        W31248   3.189  12.806   0.276  0.1309 -0.0760  0.0975
13725W        W31249  15.129   6.815   4.096 -0.0286 -0.1459 -0.0813
13726W        W31250  10.440  10.586   2.823  0.0216 -0.2541 -0.2435
13727W        W31251   9.066  18.201   4.344 -0.0610  0.0710 -0.3015
13728W        W31252  13.494   5.125   2.599 -0.2535 -0.0922 -0.0121
13729W        W31253   4.836   2.902  15.298  0.1068 -0.1006  0.0969
13730W        W31254  13.821   9.401  12.645  0.0176 -0.0750 -0.0870
13731W        W31255   6.281   1.591   2.000 -0.0336 -0.0563  0.0294
13732W        W31256   1.979  12.989   4.474 -0.0511 -0.1374 -0.4002
13733W        W31257   3.591  18.011   4.826 -0.4854  0.1345  0.0839
13734W        W31258  13.398   0.251   1.563 -0.1454  0.0752 -0.0641
13735W        W31259   8.625   4.029   4.786  0.1612  0.1268  0.2518
13736W        W31260   8.478   8.334  10.461 -0.0186  0.0347 -0.0370
13737W        W31261  11.214  15.539  12.113  0.1606 -0.1840  0.0053
13738W        W31262  12.099   0.794   4.599 -0.1935  0.0678 -0.1077
13739W        W31263   6.903  15.109  13.852 -0.3401  0.0941  0.2417
13740W        W31264   4.649   5.665  15.074  0.0480  0.0955  0.2963
13741W        W31265   2.775  13.552   3.473  0.0162 -0.2664 -0.1352
13742W        W31266   8.035   6.526  15.411 -0.0559  0.2109  0.0363
13743W        W31267  12.226   6.161  10.756  0.0938  0.2687  0.2244
13744W        W31268  13.051  10.163   1.757  0.0913  0.0744 -0.0335
13745W        W31269   5.953  18.179   3.208  0.0228  0.0914  0.0437
13746W        W31270  17.131  17.483  14.548  0.1956  0.0683 -0.1992
13747W        W31271   2.949   8.467  12.942  0.1810  0.0791  0.3234
13748W        W31272   1.606   0.775   3.959  0.1630 -0.0809 -0.1901
13749W        W31273   0.859  15.837  13.215 -0.0614 -0.0402  0.0822
13750W        W31274  11.511  10.646   4.763 -0.3216 -0.0588  0.0379
13751W        W31275   8.053   2.922  14.213 -0.2423  0.1867  0.0398
13752W        W31276   2.122   4.191  12.702  0.1848  0.1614  0.2604
13753W        W31277   5.740   7.642   1.206  0.1528  0.1902  0.2805
13754W        W31278  13.149   1.021   0.243  0.0978  0.2995  0.1424
13755W        W31279   1.445   4.484   3.897 -0.0497 -0.0884 -0.1264
13756W        W31280  17.623   5.789  11.709 -0.1071  0.2161 -0.3181
13757W        W31281  10.383   0.431   0.101  0.1111 -0.2008  0.1275
13758W        W31282   6.686  11.959  15.100  0.1368 -0.2571  0.1283
13759W        W31283  18.145  14.951  10.827 -0.0858  0.3183  0.2634
13760W        W31284  14.514  13.469  11.892  0.1558 -0.0572 -0.3133
13761W        W31285   1.039  13.197  12.261 -0.2394 -0.2782  0.2094
13762W        W31286   1.282  15.765  13.913 -0.0171  0.1753  0.2626
13763W        W31287   8.016   7.607  12.065 -0.0815 -0.0682 -0.1855
13764W        W31288  15.110  15.083  13.517 -0.0347  0.0217  0.1221
13765W        W31289  17.363  10.868  14.100  0.0335 -0.2716  0.0835
13766W        W31290  12.796   9.048  12.436  0.0853 -0.1288 -0.0019
13767W        W31291  10.539  11.396  15.547 -0.0291  0.2296  0.2712
13768W        W31292  12.370   5.190   5.404 -0.1736 -0.0714 -0.0341
13769W        W31293   6.718  13.790   0.660 -0.1030 -0.0196  0.1432
13770W        W31294  10.176  11.798   4.667  0.0636  0.2517  0.0617
13771W        W31295  16.808  10.967   9.794  0.1524  0.0589  0.1149
13772W        W31296   1.659   6.879   1.882  0.2682 -0.2883 -0.1438
13773W        W31297  18.441  16.521  11.956 -0.0725  0.1651  0.1200
13774W        W31298   1.068   3.858   2.956  0.2159  0.0089  0.0874
13775W        W31299   6.985   9.585  14.062 -0.0632 -0.2192  0.0225
13776W        W31300  12.942  13.758  14.322  0.3963 -0.2677 -0.1830
13777W        W31301   5.329  16.761   1.422 -0.0175 -0.1581  0.0859
13778W        W31302  15.649  14.919   1.886  0.1429  0.5139 -0.1350
13779W        W31303  10.993   6.299  13.356  0.2621 -0.0325  0.2882
13780W        W31304  11.461   2.154  12.927 -0.2325  0.1357 -0.1308
13781W        W31305   0.318   2.752  12.850  0.1223 -0.3700 -0.5245
13782W        W31306   1.323  12.655   4.050 -0.4034  0.0251  0.1927
13783W        W31307  12.250  14.925  13.084 -0.2174  0.3261 -0.1275
13784W        W31308  15.861  16.433   0.047  0.0875  0.2203  0.1618
13785W        W31309   8.313   5.183   1.415 -0.1312 -0.0324 -0.0708
13786W        W31310   9.826   7.796  15.032 -0.0466  0.0015  0.1209
13787W        W31311   9.721  12.571   0.343 -0.3721 -0.3033 -0.2820
13788W        W31312  14.126  12.104   2.034  0.0875  0.3619 -0.0245
13789W        W31313   3.758   6.766  11.711  0.5650  0.1831 -0.0149
13790W        W31314   9.763   4.191  11.073  0.1110  0.1736 -0.1254
13791W        W31315   8.087  18.130  13.536  0.0057  0.3209  0.2467
13792W        W31316   5.682  16.839  15.320 -0.0161 -0.1154  0.1733
13793W        W31317  15.416   8.877  13.394 -0.2993  0.2207 -0.1998
13794W        W31318  13.404  15.157   0.257  0.3477 -0.2465 -0.1065
13795W        W31319  15.569  13.468   4.791 -0.1150 -0.0985 -0.0740
13796W        W31320   2.969  11.652   1.150 -0.1021 -0.1824  0.1318
13797W        W31321   6.492   9.004   3.520 -0.0306 -0.0307  0.0063
13798W        W31322   2.934  17.288  11.883 -0.0522  0.2594  0.2713
13799W        W31323   1.648   0.582  12.273 -0.0858  0.1146  0.3826
13800W        W31324   9.556   5.368   2.774 -0.1221  0.0433 -0.2120
13801W        W31325   4.820   3.809   3.107  0.1948 -0.0649  0.0819
13802W        W31326   3.883   4.529  12.875 -0.2600  0.2699  0.0568
13803W        W31327   4.326  16.043   0.449  0.1605  0.1944 -0.1385
13804W        W31328   8.641   6.029  11.649  0.1458  0.2201 -0.1109
13805W        W31329  14.837  15.896   4.597  0.0290 -0.2363 -0.2745
13806W        W31330  17.813   7.724  14.108 -0.0566  0.1417  0.0359
13807W        W31331  11.362   4.118  11.023 -0.1684 -0.1308 -0.2797
13808W        W31332   9.438  11.101  14.474  0.0034  0.2487 -0.0085
13809W        W31333   4.897   3.443   0.455 -0.0318 -0.0276 -0.0562
13810W        W31334   8.937   9.656  13.178  0.0327 -0.3161 -0.3097
13811W        W31335   0.269  14.733  12.276  0.0895  0.2264  0.2336
13812W        W31336   4.785  15.955  13.913 -0.2109  0.1454 -0.1113
13813W        W31337   7.377   4.431   0.978  0.3762  0.0493 -0.0042
13814W        W31338   9.701  16.616  14.064  0.0918 -0.0197  0.1530
13815W        W31339   2.860  15.787   0.100  0.1884 -0.4041  0.2572
13816W        W31340  13.763   6.020  14.030  0.2984  0.1069 -0.1047
13817W        W31341  17.609   1.950   4.592  0.1036 -0.1331 -0.1580
13818W        W31342  10.950   1.037  13.625  0.1218  0.3298  0.2227
13819W        W31343  14.412  12.561   0.063 -0.1184  0.1860  0.0225
13820W        W31344  13.732   4.016   0.406 -0.0744 -0.0706 -0.2617
13821W        W31345  16.194   6.077   1.995  0.1575  0.0028 -0.0759
13822W        W31346  11.915  14.220  15.701  0.0083  0.1149  0.3064
13823W        W31347   2.391  13.745  14.728  0.0526  0.1224 -0.3409
13824W        W31348  15.717  14.811   0.562 -0.3407  0.0344  0.2955
13825W        W31349   1.455   8.475   1.703 -0.2792  0.4661 -0.3426
13826W        W31350   2.999  14.684   2.231  0.0155 -0.4077 -0.0807
13827W        W31351  17.113   6.737   3.829 -0.0734  0.2427  0.0291
13828W        W31352  15.844   6.278  15.158 -0.2208  0.2087 -0.2332
13829W        W31353  13.519   8.027  11.530  0.0839 -0.3428  0.1449
13830W        W31354  17.131   6.492  14.678 -0.1590 -0.0958 -0.1925
13831W        W31355   0.409  18.005   1.854  0.0303  0.0441 -0.0177
13832W        W31356  14.205   1.618  10.952  0.1337  0.2830  0.0251
13833W        W31357  11.290  10.368   1.573  0.1751  0.2029 -0.3092
13834W        W31358   7.448  13.348   4.228  0.2261  0.6017 -0.5223
13835W        W31359   3.154   2.534   4.963  0.2545  0.2900 -0.1913
13836W        W31360   3.464   5.735   4.340 -0.0344  0.0361 -0.0308
13837W        W31361  11.160  17.173   4.814 -0.0002  0.0952 -0.0755
13838W        W31362   2.321   9.605   5.503 -0.0112 -0.2690  0.3402
13839W        W31363   9.768   9.594   5.386  0.1207  0.0850  0.0881
13840W        W31364  12.153  15.079   3.209 -0.3679 -0.0666  0.0897
13841W        W31365  18.157  11.389   3.264 -0.0973 -0.0821 -0.2241
13842W        W31366  15.572  16.359   2.278  0.1234  0.0455 -0.1203
13843W        W31367  10.190   7.357  14.945  0.1566  0.2252  0.0922
13844W        W31368  14.740   2.387  15.098  0.0463  0.0007  0.2054
13845W        W31369  12.766  16.441   3.474  0.1895  0.0250  0.1168
13846W        W31370   8.922  12.234   0.340  0.0441 -0.0622  0.2144
13847W        W31371   3.112  15.099  14.370  0.0129 -0.0154 -0.1020
13848W        W31372  10.152   4.609  13.692 -0.1144  0.0928 -0.2112
13849W        W31373   2.145  12.877   3.421 -0.0247 -0.0173 -0.2076
13850W        W31374   3.392  17.182   2.940 -0.0539  0.4168 -0.0259
13851W        W31375  16.637  18.344  12.086  0.1586 -0.0070 -0.1102
13852W        W31376  14.619  11.467   4.836 -0.0111  0.3096 -0.2329
13853W        W31377   5.581  11.655   1.176  0.1932  0.0964 -0.1509
13854W        W31378   1.833   3.917  13.138 -0.1070  0.0683  0.0808
13855W        W31379  12.059  11.596   2.402 -0.1897 -0.1913 -0.0571
13856W        W31380   4.457  12.660   1.603 -0.0730 -0.0414  0.3205
13857W        W31381  17.158  10.854  12.436  0.1224  0.1632  0.3179
13858W        W31382   9.511   1.554  10.366 -0.0031  0.2658  0.1098
13859W        W31383   6.551  17.814  13.657 -0.0790 -0.1642 -0.2907
13860W        W31384   8.395  17.573   3.734 -0.0179  0.0743  0.0196
13861W        W31385   0.256   7.331   4.011 -0.0904 -0.1376 -0.1337
13862W        W31386  13.077   3.902   3.206 -0.1191 -0.0361 -0.0963
13863W        W31387   4.514   6.403   3.447  0.0808 -0.0472  0.2805
13864W        W31388   5.950   8.032  13.006  0.0884  0.0108  0.1718
13865W        W31389  12.275  13.479  14.705 -0.0690  0.0465 -0.1979
13866W        W31390   3.468  14.380   2.434  0.0980 -0.1226  0.1047
13867W        W31391  13.558  11.195  12.604  0.2993  0.2456  0.2401
13868W        W31392   8.493  11.736  13.536  0.3174 -0.1653  0.0622
13869W        W31393   6.996  11.596  12.268 -0.2075  0.1598 -0.0386
13870W        W31394   3.431   1.391   4.130 -0.1531 -0.0724  0.2358
13871W        W31395  15.186  10.916   2.763 -0.2318  0.0826  0.0667
13872W        W31396   7.871   8.377  14.155  0.1103  0.0107 -0.2579
13873W        W31397   0.351  11.238  14.956 -0.2018  0.1718 -0.1559
13874W        W31398  14.863  18.124  11.832  0.2354 -0.3531 -0.0925
13875W        W31399  12.595   7.330  11.658 -0.0784  0.0509 -0.1346
13876W        W31400  12.410  16.617  13.145 -0.0353 -0.3111 -0.0066
13877W        W31401  11.279   4.908  14.316  0.2590  0.0943 -0.0684
13878W        W31402   7.792  16.775  12.769  0.0423 -0.5841 -0.1145
13879W        W31403  12.542  10.055   1.864  0.2136 -0.1382 -0.1016
13880W        W31404  17.515   2.917   0.612  0.2846  0.0257 -0.0230
13881W        W31405   4.804   7.033  11.532 -0.0344  0.0059  0.1823
13882W        W31406  10.931   7.532   3.358  0.1541  0.3219  0.1570
13883W        W31407  13.767  16.446   3.598  0.0345 -0.0178  0.2296
13884W        W31408  17.169  13.915  13.235 -0.2257 -0.0602  0.0463
13885W        W31409  11.574   7.792  11.027  0.3968  0.2182  0.1251
13886W        W31410  12.094  10.079  12.900  0.0738 -0.0725 -0.1372
13887W        W31411  14.209   9.309   1.349 -0.0473 -0.2460  0.0434
13888W        W31412   5.874   6.949   2.408  0.0877  0.2246 -0.2048
13889W        W31413   1.348  11.955  10.909  0.1437 -0.0509 -0.2731
13890W        W31414   6.327   4.561   0.461 -0.1637  0.1595  0.1411
13891W        W31415  17.261  16.409  12.762  0.3212 -0.3094  0.0206
13892W        W31416   1.649   1.915   4.839  0.1954  0.0105  0.0059
13893W        W31417   3.913  16.649  15.689 -0.2556  0.0292  0.3433
13894W        W31418   2.143  10.921   0.187 -0.0978 -0.0359 -0.0207
13895W        W31419   2.255  12.387  14.945  0.3906 -0.0401 -0.0247
13896W        W31420   9.920   6.505  11.370 -0.0954  0.2476 -0.2899
13897W        W31421  12.252   5.460  12.791  0.0047  0.1432  0.1154
13898W        W31422   7.817   2.946  14.803  0.0018 -0.1032 -0.1708
13899W        W31423   6.895   3.482   4.053 -0.2284  0.0225  0.3509
13900W        W31424   3.461  17.070  11.120 -0.1950  0.1017 -0.2409
13901W        W31425   0.588   5.154  12.398 -0.1386 -0.1941  0.0299
13902W        W31426  15.181   6.117   0.928  0.0587 -0.1271  0.4020
13903W        W31427   5.192  10.988  13.019 -0.1671  0.2886  0.1380
13904W        W31428  10.545  11.856  14.727 -0.1685  0.1247 -0.0187
13905W        W31429  18.225  15.774  10.103 -0.2889 -0.3744 -0.0535
13906W        W31430   6.033   8.922  15.652 -0.1711 -0.0319 -0.3147
13907W        W31431   7.128  10.517   2.275 -0.1526 -0.0650 -0.1130
13908W        W31432   1.119  17.482  13.590  0.6014  0.1374 -0.1499
13909W        W31433  14.704  11.753  12.323  0.1327 -0.3275  0.1039
13910W        W31434   2.621   6.731   3.774 -0.0840  0.1087  0.1040
13911W        W31435   1.786  12.113   2.791 -0.0944  0.0990  0.1179
13912W        W31436   1.260  15.771   2.317  0.0246 -0.1087  0.1922
13913W        W31437   6.004  15.682   4.045 -0.1020  0.1152 -0.1392
13914W        W31438   1.830  10.930  12.068  0.0281  0.0899 -0.2166
13915W        W31439  15.338  11.598  15.269 -0.2571 -0.0961  0.0562
13916W        W31440  18.407   5.272  14.140 -0.2448  0.2544 -0.0043
13917W        W31441  14.712  16.098  12.884 -0.0826 -0.1083  0.0759
13918W        W31442   8.554  18.349   4.212  0.2006  0.2264 -0.4904
13919W        W31443   6.264   9.084   5.155 -0.2208 -0.0262  0.0794
13920W        W31444   5.276  17.674  13.225  0.2583 -0.0645  0.0994
13921W        W31445   5.078  16.714  10.917  0.1968 -0.2965 -0.0682
13922W        W31446  11.292   0.201  11.856 -0.2619 -0.0275 -0.0773
13923W        W31447  15.073  17.384   2.083 -0.0290  0.1474 -0.0680
13924W        W31448   3.416   4.474  12.542  0.0079 -0.1753 -0.0229
13925W        W31449   1.948  17.068   3.149  0.2636  0.0443  0.2902
13926W        W31450   6.525   5.710  12.778  0.1654  0.2938  0.1447
13927W        W31451   2.708  13.467  14.955  0.3302  0.0587  0.0346
13928W        W31452   9.130  15.763  12.737  0.0509  0.1464  0.1098
13929W        W31453  11.700   5.610  13.632  0.0669 -0.4355 -0.1092
13930W        W31454   9.371  15.654  14.389 -0.0709  0.1504  0.1733
13931W        W31455   3.794   8.932   0.029 -0.0092  0.0727 -0.2059
13932W        W31456  18.084   3.915  11.609  0.2731  0.1718 -0.1712
13933W        W31457  14.856  11.378  13.877  0.0061  0.0793 -0.0572
13934W        W31458  17.807  13.724  12.743  0.1347 -0.0294  0.3560
13935W        W31459  10.989  17.202   3.355  0.2555  0.2249 -0.1207
13936W        W31460   3.534   2.444   0.619  0.3448 -0.0185  0.2540
13937W        W31461  12.478  15.725  12.218  0.3487  0.1785 -0.0116
13938W        W31462   4.850   7.140  12.753  0.1753  0.2705 -0.1364
13939W        W31463   4.326   6.009  11.598  0.0320 -0.1995  0.1233
13940W        W31464  15.110  15.449   0.561  0.0811 -0.1638 -0.0130
13941W        W31465  11.621  14.293  13.414 -0.5117 -0.1195  0.0048
13942W        W31466  16.800  13.306  12.163  0.1872 -0.0602 -0.1913
13943W        W31467   9.524   6.437  13.988  0.3242 -0.0301 -0.1676
13944W        W31468   5.277   8.380   0.132  0.3440  0.0856 -0.1775
13945W        W31469  14.899  15.858  13.244 -0.0605 -0.0733  0.3946
13946W        W31470  11.198  10.350   2.669 -0.0710  0.0351  0.1381
13947W        W31471  13.131   8.306  13.806  0.3961  0.2202  0.3960
13948W        W31472   9.196  17.227   2.025  0.0883 -0.0528  0.2434
13949W        W31473  15.712  11.209  12.516  0.3519 -0.0143  0.1899
13950W        W31474  11.150   9.823   4.302 -0.4339 -0.2297 -0.1426
13951W        W31475   9.211  12.366  15.070  0.0683  0.0649 -0.2072
13952W        W31476   2.279   9.534   2.424  0.1197 -0.1206 -0.1815
13953W        W31477   3.607  10.319  11.586 -0.1017  0.0603 -0.2563
13954W        W31478   3.698   0.692  14.095 -0.0331 -0.3928  0.1058
13955W        W31479   0.639  10.842  11.250  0.0385  0.0015  0.3740
13956W        W31480  12.127  17.647   2.981 -0.2877  0.0401  0.3443
13957W        W31481   4.271  15.665   4.617 -0.0537  0.0273 -0.1142
13958W        W31482  14.812   6.216  15.283  0.1052  0.0302 -0.0819
13959W        W31483   8.454  17.824  13.433 -0.4563  0.1055  0.1531
13960W        W31484  11.717   5.988   3.116 -0.0261 -0.1409 -0.2720
13961W        W31485   1.735  11.727   1.242 -0.1463  0.1099 -0.0408
13962W        W31486   1.717   4.741   1.546  0.1576 -0.0263 -0.0156
13963W        W31487   0.984  12.440   1.559 -0.4554 -0.0614 -0.1138
13964W        W31488   3.689  13.283   0.987 -0.2293 -0.0564 -0.1091
13965W        W31489   1.588  11.044   1.323  0.0639 -0.1936 -0.0362
13966W        W31490  14.938  12.121  11.232 -0.1163 -0.0144  0.2395
13967W        W31491   6.923  14.745   4.429  0.3892 -0.0269  0.0839
13968W        W31492  17.831  10.909  10.843  0.2138 -0.0040  0.2876
13969W        W31493  13.122  15.548   1.182 -0.1711  0.0673 -0.0739
13970W        W31494   1.018  17.978   1.184  0.1905  0.2822 -0.1214
13971W        W31495  17.999   0.305   5.604 -0.1335 -0.0305  0.1782
13972W        W31496  13.788  12.852   3.660  0.2662 -0.1359 -0.1798
13973W        W31497  18.075   5.868   3.276 -0.0533  0.1798  0.0079
13974W        W31498   9.066   4.613  12.154  0.0402  0.1180  0.0219
13975W        W31499  11.752  13.194  11.847  0.0206 -0.0142 -0.1255
13976W        W31500  13.134   6.670   2.713 -0.2941  0.0119  0.0459
13977W        W31501   1.463   7.860   2.049 -0.2634  0.0290 -0.0978
13978W        W31502   6.523  15.168  14.770  0.0895 -0.0337  0.0067
13979W        W31503   9.149  16.774  12.485  0.0057  0.0124 -0.0012
13980W        W31504   8.798   0.347  13.029 -0.1054 -0.2574  0.1220
13981W        W31505  14.581  12.540   0.695 -0.0966  0.2473 -0.1644
13982W        W31506   3.529  16.111  13.534 -0.2724 -0.3060 -0.0129
13983W        W31507  17.139  11.937   0.275 -0.1593  0.1461  0.1071
13984W        W31508  15.522  17.659  12.277  0.3007  0.0808  0.2080
13985W        W31509  12.985  10.469  11.235  0.0970 -0.2302 -0.1009
13986W        W31510   4.987   8.392  14.930 -0.1825 -0.1782 -0.0773
13987W        W31511  10.965   2.477  11.650 -0.1762 -0.1431  0.2256
13988W        W31512   4.867   8.361  13.511  0.0196  0.1200  0.0019
13989W        W31513   4.112   0.726  14.505  0.2798 -0.2715 -0.1378
13990W        W31514  10.738  17.969  12.755 -0.1560 -0.1637 -0.1296
13991W        W31515  17.503  13.250   2.485 -0.1679 -0.1551  0.3668
13992W        W31516  13.011  15.281   1.535  0.3273 -0.0797  0.5150
13993W        W31517  12.424   0.680   0.894 -0.1760  0.0814  0.1994
13994W        W31518  10.677  17.329  13.616 -0.3181  0.0768 -0.1377
13995W        W31519   7.281   9.566   1.788  0.1027 -0.1029  0.0486
13996W        W31520   1.290   6.982   0.584 -0.0891 -0.0789 -0.0422
13997W        W31521   3.992   0.233   3.841  0.3989  0.0857  0.3895
13998W        W31522   7.655  16.255   1.368  0.0696  0.0490  0.3940
13999W        W31523  17.277   8.798  12.001 -0.2782 -0.0440  0.2401
14000W        W31524  16.700  14.505  12.700 -0.0681  0.2789  0.0665
14001W        W31525  14.406   8.432  13.310 -0.0981 -0.4336  0.0625
14002W        W31526   3.349   4.338  14.146  0.1649  0.2253 -0.1401
14003W        W31527  16.121   5.724   3.846 -0.1038  0.1814 -0.0253
14004W        W31528   6.475   4.722   1.148 -0.0857 -0.2759  0.2727
14005W        W31529   1.190   0.128   0.769 -0.1375  0.1221  0.1522
14006W        W31530   3.767  14.998  15.314 -0.1561 -0.1431  0.1415
14007W        W31531  16.893  11.928  13.514 -0.0241  0.1569 -0.0004
14008W        W31532   8.594   6.057  12.171  0.0867  0.1250 -0.0465
14009W        W31533  14.299  10.397   3.429 -0.0238 -0.1213 -0.1969
14010W        W31534  14.076  16.653  14.741 -0.1483 -0.2213  0.1012
14011W        W31535   7.315   0.153   1.677 -0.3703  0.0479 -0.0060
14012W        W31536  17.778   1.369   4.918 -0.2731 -0.0000  0.2519
14013W        W31537  10.510   5.039  14.789  0.1267  0.1778 -0.1172
14014W        W31538  17.717   1.974  13.417  0.1575  0.2212 -0.1794
14015W        W31539   9.356   8.945  10.841 -0.0225  0.0987  0.2492
14016W        W31540  14.068  13.611  13.957 -0.0211  0.1974 -0.0051
14017W        W31541   9.801  12.483  11.320 -0.3336  0.0576 -0.1524
14018W        W31542   8.560   2.243   1.697  0.0993  0.0478 -0.0978
14019W        W31543  13.149   5.490   4.165 -0.1728  0.1874  0.0127
14020W        W31544  18.314  11.304   2.335 -0.0739  0.0295 -0.1062
14021W        W31545   0.288  14.751  14.403  0.5798 -0.1267  0.3675
14022W        W31546   7.659   6.349   4.427  0.1666 -0.0002  0.0896
14023W        W31547  18.166   6.483  13.373  0.1527  0.1733  0.3690
14024W        W31548   8.091  16.510  13.027 -0.0526  0.2674  0.2392
14025W        W31549   9.661  14.032  13.828 -0.1336  0.1719  0.1113
14026W        W31550   6.286   1.047   1.037  0.1516 -0.0406  0.1384
14027W        W31551  12.652  13.407   5.220  0.0031 -0.0753 -0.2667
14028W        W31552   1.110  17.425   4.269  0.1651  0.1674  0.1517
14029W        W31553   2.033   8.242  11.281 -0.0755  0.1140 -0.0763
14030W        W31554   0.208  17.717  13.630  0.0511 -0.2728 -0.0188
14031W        W31555  10.890   8.776   1.118  0.2262 -0.3211 -0.2844
14032W        W31556   3.293   2.207  14.853 -0.0639 -0.0360 -0.0361
14033W        W31557  18.148   3.216  13.818 -0.0966 -0.0949  0.2000
14034W        W31558   1.216  15.769  12.381 -0.2105  0.0748  0.0169
14035W        W31559  14.191  11.979   3.280  0.2532  0.0755  0.0177
14036W        W31560  16.383  13.698  14.853  0.3320 -0.0856 -0.0694
14037W        W31561   9.288  10.367   4.447  0.2567 -0.2694 -0.1255
14038W        W31562   4.518   8.694  11.569  0.1890  0.2812 -0.3044
14039W        W31563   6.264   7.792   1.654 -0.0390  0.1771  0.0072
14040W        W31564   2.441  10.650  14.682 -0.1806 -0.0426 -0.1787
14041W        W31565  15.509   4.928  13.566  0.4635  0.1019  0.0642
14042W        W31566   9.314   0.664  13.233  0.1190 -0.0134 -0.1362
14043W        W31567   0.852  14.872  13.236  0.0242  0.4038  0.3491
14044W        W31568   3.786  13.247   2.373 -0.4162 -0.4021  0.0817
14045W        W31569  13.303   4.755   1.799 -0.1219  0.1213  0.0642
14046W        W31570   3.002  13.991   3.382 -0.3095 -0.3413  0.1346
14047W        W31571   5.906   8.716  11.374  0.2012  0.2311  0.3134
14048W        W31572   9.799   3.263  14.413 -0.1029  0.2143  0.0458
14049W        W31573  15.039   3.428  13.170  0.2400 -0.1709  0.0242
14050W        W31574  12.773  16.405   1.456  0.1445 -0.2132  0.0666
14051W        W31575   2.931   9.447  14.811 -0.1880  0.2245  0.1421
14052W        W31576  15.691  16.621   0.994  0.1275 -0.0465 -0.0270
14053W        W31577  13.901   6.454   3.098 -0.2779 -0.2082  0.0189
14054W        W31578  10.684   7.161  13.307  0.2165 -0.0492  0.0964
14055W        W31579   4.342  15.783  14.298  0.0925  0.1498  0.0970
14056W        W31580   8.230   0.270   2.417 -0.1103 -0.3621 -0.0468
14057W        W31581   7.635   1.295   1.104 -0.0077 -0.3654  0.5292
14058W        W31582  11.185  12.044   3.484 -0.1158 -0.2015  0.2591
14059W        W31583  17.879  17.104  15.034  0.0834 -0.1850 -0.1567
14060W        W31584   5.216   6.938  14.518  0.0292 -0.0290 -0.2154
14061W        W31585   1.455  11.436  11.345  0.0564  0.1713  0.1971
14062W        W31586   6.839   7.398   3.996  0.1931  0.2966 -0.2077
14063W        W31587  15.044   9.673  14.640  0.3205  0.3230 -0.1072
14064W        W31588  16.664  13.065  13.016  0.0381 -0.1076  0.1937
14065W        W31589   1.150  11.375  10.898  0.0990  0.0579 -0.0979
14066W        W31590   8.585   3.095  10.613 -0.0461  0.2954  0.0088
14067W        W31591   1.098  14.882  14.366 -0.0886 -0.3321 -0.3846
14068W        W31592  14.554   4.851  10.794  0.0177  0.0658 -0.2564
14069W        W31593  10.782  10.135  13.514 -0.0744 -0.1757  0.1848
14070W        W31594   2.519   5.830  15.692 -0.2728 -0.3795  0.1061
14071W        W31595   6.515  12.056   0.252  0.1134 -0.2580 -0.2211
14072W        W31596   3.062  10.078  12.080  0.2064  0.1177 -0.0313
14073W        W31597   4.466   2.253  11.911  0.2491 -0.0439 -0.0420
14074W        W31598   7.583   5.458  14.675  0.3313  0.1357  0.3888
14075W        W31599   5.038   6.631  11.333  0.0172 -0.2097  0.0684
14076W        W31600   6.689   2.930   2.908  0.1245  0.1729  0.0916
14077W        W31601   4.959   3.866  14.641 -0.0763  0.0375 -0.1890
14078W        W31602  15.400  13.549   1.744  0.0383  0.5218 -0.1246
14079W        W31603  15.268   6.933   3.666 -0.1144 -0.0843  0.1611
14080W        W31604   8.724  17.353   0.822  0.2286 -0.3479  0.3688
14081W        W31605  13.668   6.752   0.953 -0.0246  0.0558 -0.0743
14082W        W31606  16.641   6.175   1.799 -0.0704  0.0763 -0.0946
14083W        W31607   1.661   3.855   9.767 -0.0211  0.0573  0.0367
14084W        W31608  13.559   1.948   4.319 -0.0518  0.0217  0.0763
14085W        W31609   2.037   1.778   2.916 -0.0507  0.3464  0.0672
14086W        W31610  17.108  16.285  15.624  0.0191 -0.0545 -0.4287
14087W        W31611   4.633   7.733   0.678 -0.2991 -0.1142 -0.0795
14088W        W31612  17.566   8.819  14.730 -0.3631  0.2740 -0.0731
14089W        W31613  10.603   0.567   2.780 -0.1791 -0.0715 -0.1210
14090W        W31614   9.945   9.642  15.633  0.1954 -0.4878 -0.1004
14091W        W31615  13.971   8.308   4.391 -0.0124  0.0148  0.2392
14092W        W31616  13.012  11.586  15.650  0.1171 -0.1413 -0.0928
14093W        W31617   8.029  17.230   2.989 -0.1121 -0.3481  0.1105
14094W        W31618  10.479  13.681  13.490 -0.0682  0.3516 -0.1044
14095W        W31619   5.181  10.091  12.244  0.1235 -0.0612  0.1732
14096W        W31620   7.024  11.691   2.945  0.3239 -0.1608  0.2912
14097W        W31621  16.617  12.496  15.367 -0.1445  0.0960  0.0443
14098W        W31622   3.646   1.640  10.861 -0.0075 -0.0707 -0.0348
14099W        W31623   7.016   0.258  14.663  0.2117  0.1063 -0.0039
14100W        W31624  18.331  17.603  15.423 -0.0220  0.1427  0.1486
14101W        W31625   7.712   1.016  12.075  0.1215 -0.0097  0.0981
14102W        W31626   7.210  18.243   4.221  0.0559  0.0597  0.0572
14103W        W31627   3.934   9.592  10.877 -0.1473 -0.2342  0.2679
14104W        W31628  15.128  10.294   1.862 -0.1685  0.0071 -0.1181
14105W        W31629  11.730  13.272  14.805 -0.1234  0.0044  0.1888
14106W        W31630   2.584   9.622  13.227  0.1012 -0.1866  0.1468
14107W        W31631  12.407  12.487  11.937 -0.2290  0.1389  0.2110
14108W        W31632   7.970  10.399   3.990 -0.2312  0.2251  0.3007
14109W        W31633  10.489   1.518  11.931 -0.3896  0.0481 -0.0227
14110W        W31634  17.849  15.007  14.938 -0.1166 -0.0425 -0.4353
14111W        W31635  17.240   3.269   3.244 -0.0238 -0.2367  0.1646
14112W        W31636  11.536   4.434  14.312 -0.0276  0.0399 -0.0925
14113W        W31637   7.494   8.431  11.569 -0.1295  0.1549  0.1479
14114W        W31638  11.221   0.709  13.357 -0.0053 -0.2017 -0.1095
14115W        W31639   4.988   9.077  13.724  0.0933 -0.3920 -0.0474
14116W        W31640   8.304   3.060  14.692 -0.0022 -0.2443 -0.0354
14117W        W31641   7.204  16.864  11.604 -0.0017 -0.2236 -0.2964
14118W        W31642   9.053   5.756  13.754  0.1614 -0.2634 -0.0797
14119W        W31643   0.210   0.006   4.387  0.1838 -0.0057  0.0578
14120W        W31644   2.005   9.172  14.803 -0.3512  0.0989 -0.0609
14121W        W31645  18.366   5.950  11.482  0.1602 -0.1815 -0.0000
14122W        W31646   0.461   7.645  11.082 -0.0822  0.0928  0.1728
14123W        W31647  18.102   2.234  15.060 -0.2808 -0.1626  0.2198
14124W        W31648  10.513   9.503  11.208 -0.2491 -0.2610 -0.1266
14125W        W31649   3.180   4.403   0.658  0.2613  0.1806  0.1305
14126W        W31650   7.206  16.132  14.661  0.0992  0.1330 -0.1228
14127W        W31651  13.690  17.749  14.513 -0.1228 -0.0849 -0.4299
14128W        W31652   4.612  14.889  14.183 -0.1525 -0.0530  0.0722
14129W        W31653  11.782  10.348   1.743  0.4019 -0.0460 -0.2956
14130W        W31654  10.877   3.591   3.511 -0.0441 -0.1193  0.0296
14131W        W31655  15.889  12.887   1.394  0.0863  0.3635 -0.2445
14132W        W31656  13.710  18.058   3.792 -0.0961  0.5374  0.3593
14133W        W31657   7.053   1.501   3.461  0.1485  0.0111 -0.2225
14134W        W31658   2.441   7.882   4.827  0.2319 -0.0418  0.0196
14135W        W31659   2.896   3.343   5.110 -0.1140 -0.3367 -0.1166
14136W        W31660   9.700  16.546   1.543 -0.0570 -0.3014 -0.0926
14137W        W31661   1.194  14.147   1.592 -0.2434 -0.1281 -0.3186
14138W        W31662  13.354   6.916   2.309  0.1395  0.1514 -0.0455
14139W        W31663  18.258  15.394   2.999 -0.0290  0.2697  0.2377
14140W        W31664   8.403   3.381  14.009  0.0641 -0.0347 -0.1246
14141W        W31665   8.410   8.686   3.536 -0.0877 -0.1838  0.1643
14142W        W31666  12.554  10.035  12.463 -0.1939  0.0720  0.2717
14143W        W31667  11.579   3.909   4.021 -0.4729 -0.1113 -0.2088
14144W        W31668   1.358  15.184  15.219  0.0470  0.1710 -0.1466
14145W        W31669   4.420  11.453  14.011 -0.0247  0.0880  0.1441
14146W        W31670  13.065   9.911   9.993  0.4034  0.2665  0.2634
14147W        W31671   8.925   2.388  12.059 -0.3201 -0.3061 -0.0932
14148W        W31672   3.525  11.853   0.709  0.0425 -0.0785  0.0765
14149W        W31673  18.054  18.295   3.785  0.2183 -0.2234 -0.0484
14150W        W31674  13.361  14.033   0.371  0.1173 -0.1000  0.0313
14151W        W31675  12.095   8.750  11.949 -0.0495 -0.1036  0.0405
14152W        W31676   3.743   1.815  13.403  0.0975  0.0708 -0.2114
14153W        W31677   5.150  13.387   3.903 -0.0019 -0.1110 -0.3622
14154W        W31678   1.892  11.049   1.681  0.4121  0.2438 -0.0774
14155W        W31679   0.748   2.179  15.215 -0.0968  0.0046  0.1523
14156W        W31680   1.176   9.721  14.406 -0.0026  0.2876  0.2980
14157W        W31681  16.103   5.398   2.828  0.0513 -0.3598  0.1502
14158W        W31682   9.832   5.731   2.666  0.1711 -0.1479  0.0949
14159W        W31683   6.232  17.035   3.850 -0.1132 -0.2059 -0.1158
14160W        W31684  17.296   4.473  14.135 -0.3506 -0.0769  0.2499
14161W        W31685   1.832   9.852   3.667  0.0793  0.3271  0.1089
14162W        W31686  15.290  17.464  15.182 -0.0274  0.0555  0.0842
14163W        W31687  14.012  15.322  12.259 -0.0161  0.1126 -0.2701
14164W        W31688   2.543   2.122  11.079  0.1532 -0.0478  0.1545
14165W        W31689  16.864  15.321  14.396  0.1539 -0.1047 -0.1460
14166W        W31690   3.646   9.697   2.371 -0.1285  0.1046 -0.0731
14167W        W31691   5.734   6.686   4.558  0.2460 -0.0967  0.2469
14168W        W31692   1.067   1.019   3.145 -0.0345 -0.0917 -0.2518
14169W        W31693  15.022  11.790  14.122  0.1227  0.1295  0.1498
14170W        W31694  10.094  17.293  10.835  0.1484 -0.1068  0.1927
14171W        W31695   1.876  13.074  10.789  0.0927  0.1706 -0.3664
14172W        W31696   0.753   2.459  13.869 -0.0500  0.2483  0.0693
14173W        W31697   1.964   6.829  11.177 -0.1850  0.1156 -0.1065
14174W        W31698  15.103   5.253   3.150 -0.0928 -0.0436  0.1040
14175W        W31699  16.690  15.398  11.896 -0.2102  0.0204  0.3132
14176W        W31700  11.706  17.463   2.879  0.0374  0.1990  0.3956
14177W        W31701  11.055  11.023   3.739 -0.0853  0.1312  0.3709
14178W        W31702   0.705   6.924   5.118  0.0613  0.3634  0.1938
14179W        W31703  16.220  14.890   1.630 -0.5377  0.2154 -0.1658
14180W        W31704   0.336   1.039   2.066  0.1071  0.1996 -0.1616
14181W        W31705   2.407   2.812  13.960  0.1596 -0.0164  0.0315
14182W        W31706  18.197   5.997   1.691  0.1218  0.2246 -0.0461
14183W        W31707   5.756   9.389  14.130  0.1895 -0.1816 -0.0299
14184W        W31708  12.158   1.417  11.362 -0.1790 -0.1646  0.3480
14185W        W31709  11.742  16.419   3.833  0.0098 -0.0561  0.0264
14186W        W31710  11.390   9.729   2.710 -0.1430 -0.1305 -0.4912
14187W        W31711   4.641  14.389   4.655  0.1760 -0.2115  0.0935
14188W        W31712   7.953   0.088  11.138 -0.1963 -0.1413  0.5267
14189W        W31713   0.690   7.420   4.347  0.2438 -0.0047  0.3944
14190W        W31714   6.354   8.843  13.013 -0.0934 -0.2021  0.1466
14191W        W31715  10.450  16.157   0.172  0.0246  0.1110 -0.3488
14192W        W31716   3.000   1.481   3.001 -0.1455  0.2332  0.1946
14193W        W31717  11.104   0.536   0.965 -0.0640  0.1741  0.1461
14194W        W31718  13.455   2.327   4.842 -0.2474  0.0441 -0.1327
14195W        W31719   0.783  15.883  13.686  0.0025  0.1692  0.1010
14196W        W31720   6.209  15.872   1.413  0.1932  0.0264  0.0654
14197W        W31721   9.987   9.799  12.007 -0.1720  0.1378  0.4029
14198W        W31722   1.131   8.238  11.055 -0.0660 -0.0334  0.2716
14199W        W31723  17.951  17.369  14.608  0.2208 -0.3040 -0.2815
14200W        W31724  10.076   6.188  15.317  0.5188 -0.0237  0.0412
14201W        W31725   2.602   1.479   2.070  0.1987  0.1495 -0.1048
14202W        W31726  10.199  10.724   0.300 -0.0192  0.3030  0.1529
14203W        W31727  11.862  14.793   2.652 -0.3353 -0.1135  0.4041
14204W        W31728   6.462  17.565   3.795  0.1960 -0.1267  0.2412
14205W        W31729   1.320   6.648  12.553 -0.0759 -0.1426 -0.1685
14206W        W31730   3.866  17.796   1.277  0.1582 -0.1111  0.0137
14207W        W31731   4.009   8.956   4.597  0.2327  0.0326 -0.0657
14208W        W31732  10.382   3.738   1.868 -0.1186 -0.4077 -0.0109
14209W        W31733   0.940  17.271   5.191  0.0768  0.3064 -0.3458
14210W        W31734  16.930   5.351   4.386 -0.1362 -0.0562  0.4283
14211W        W31735   8.014   9.541  14.624 -0.1838 -0.1607  0.1605
14212W        W31736  15.039  17.777   5.280  0.3681  0.2473  0.0424
14213W        W31737  13.122  13.706   1.511  0.0039 -0.2429  0.0736
14214W        W31738   8.200   8.187  13.175  0.0481  0.0592 -0.1518
14215W        W31739  17.536  18.259   4.013 -0.0618  0.0919 -0.1398
14216W        W31740  16.923   3.921  14.612 -0.1298  0.1166  0.2910
14217W        W31741   1.724   7.264   3.740  0.0794  0.3664 -0.2855
14218W        W31742   6.807   9.165   2.795 -0.1831 -0.0587 -0.0187
14219W        W31743  15.877  13.870   1.720 -0.0341  0.0817 -0.1846
14220W        W31744  14.882   5.673  11.132 -0.0346  0.2121 -0.2146
14221W        W31745  15.566   9.775  12.042  0.3701 -0.2037  0.2203
14222W        W31746   8.487   9.522  11.309  0.0811 -0.0350 -0.2612
14223W        W31747   9.606   5.486  10.111 -0.6890 -0.0080  0.1257
14224W        W31748   5.657   2.739   3.713  0.0396  0.0270  0.2095
14225W        W31749   1.068  17.402   0.771  0.1379  0.3447 -0.1501
14226W        W31750  12.635  13.527   4.727 -0.0451  0.1176  0.1754
14227W        W31751  17.139  10.530   1.238  0.2060 -0.0258 -0.1244
14228W        W31752  15.920  17.464   3.527  0.2364 -0.2084  0.2329
14229W        W31753  10.494   6.761  12.044  0.0733  0.4140 -0.1030
14230W        W31754  11.905  13.827  14.514  0.2268  0.1165  0.4873
14231W        W31755   2.470   9.433  11.947  0.1962 -0.0584 -0.1112
14232W        W31756  11.836  13.335   3.810 -0.1144 -0.0694  0.5409
14233W        W31757   2.238   4.040   1.321  0.4754 -0.0970  0.0632
14234W        W31758   3.001  13.748  11.606 -0.0578  0.0524  0.2622
14235W        W31759  16.278   7.843   0.844  0.0246  0.2566 -0.1749
14236W        W31760   1.712   4.134   3.007  0.1292 -0.0244  0.1345
14237W        W31761  16.133   6.187  12.186  0.0514 -0.1261 -0.1562
14238W        W31762  14.366  11.715   0.816 -0.0983  0.3484 -0.1698
14239W        W31763  11.211   4.292  11.493  0.1326  0.0935 -0.0281
14240W        W31764   5.270  13.663  12.647 -0.1507  0.1694 -0.1481
14241W        W31765   4.434   5.233  15.393  0.2618  0.1542 -0.1688
14242W        W31766  17.674  10.121  11.296 -0.1603 -0.1918 -0.2877
14243W        W31767  14.219   1.543   3.938  0.0919 -0.1131  0.0049
14244W        W31768   0.635   8.067  14.131 -0.2532 -0.0164  0.0057
14245W        W31769  12.338   8.613   2.877  0.2783  0.0348  0.2787
14246W        W31770   6.501  15.865  10.565 -0.3987  0.1899  0.0001
14247W        W31771  14.744   0.019  13.915  0.5331  0.0499 -0.0218
14248W        W31772  12.781  12.019   4.222  0.1290 -0.0058 -0.0227
14249W        W31773   9.513  15.779   2.732  0.2232 -0.2799 -0.2508
14250W        W31774  11.099  18.109  13.579 -0.4264 -0.0060  0.1975
14251W        W31775  14.079  11.896   0.359  0.0992 -0.0749  0.2002
14252W        W31776   5.980  17.666  15.612  0.0807 -0.0849 -0.1799
14253W        W31777   5.168   0.250  15.099 -0.3679 -0.2083  0.0557
14254W        W31778   4.313   0.558   3.693 -0.0808 -0.1097  0.2947
14255W        W31779  14.552   3.436  11.374 -0.2457  0.0735  0.4935
14256W        W31780   0.866   0.655  13.889  0.3451 -0.1624 -0.1477
14257W        W31781  15.877   8.411  12.494 -0.0585  0.1324 -0.1847
14258W        W31782  15.606   1.522  10.649  0.0280 -0.1633 -0.1290
14259W        W31783   5.742  15.150  14.873 -0.2751  0.1907  0.1813
14260W        W31784  15.546   6.136  13.026  0.0614  0.1258 -0.1929
14261W        W31785  16.000   7.086   4.743 -0.2400 -0.0795  0.2722
14262W        W31786   1.979  14.525  15.090  0.0944 -0.2079 -0.0214
14263W        W31787  13.883  16.900   1.065 -0.1017  0.1303  0.2684
14264W        W31788  14.722  13.531   0.134  0.0552 -0.1818  0.3621
14265W        W31789  17.059   7.533  15.429  0.0028  0.1856  0.0989
14266W        W31790   0.468   1.590   1.387  0.2312  0.2063 -0.0978
14267W        W31791  18.437   2.820   2.784 -0.1118 -0.0635  0.0636
14268W        W31792   9.487  17.446  12.574  0.2715 -0.1718 -0.0047
14269W        W31793   9.417   0.143   4.456  0.0698 -0.0616  0.3821
14270W        W31794  15.748   0.740  11.972  0.2569 -0.1240  0.1272
14271W        W31795   6.152   3.724  14.949 -0.1066  0.2188  0.0949
14272W        W31796  10.904  16.569  12.063 -0.0905  0.2095  0.4016
14273W        W31797   5.097   7.124  13.657 -0.4279  0.0912 -0.4310
14274W        W31798   2.649  13.785   1.125  0.2297  0.0828 -0.3164
14275W        W31799   3.546  13.519   2.668 -0.0307  0.0291 -0.0458
14276W        W31800  12.588  12.094  13.411  0.1427 -0.0512 -0.0906
14277W        W31801   9.173  10.531   1.752  0.2241 -0.1019 -0.0063
14278W        W31802  10.246   8.455  11.997  0.2641  0.0194 -0.0569
14279W        W31803   4.802   3.928   1.179  0.1459  0.0970  0.1274
14280W        W31804   8.827   9.118   4.426  0.2871  0.2917  0.5331
14281W        W31805  11.086   8.272   1.156  0.1176 -0.3275  0.0939
14282W        W31806  18.427   0.634  15.241  0.0642 -0.1816 -0.0229
14283W        W31807  17.258  11.397  12.279  0.2743  0.1810  0.2477
14284W        W31808  17.497  10.580  11.567  0.0733  0.1545 -0.0567
14285W        W31809   7.701  12.611  15.571  0.1625 -0.0568  0.2220
14286W        W31810  11.948  15.609   3.706 -0.0654  0.1119 -0.3698
14287W        W31811  13.148  16.639   4.352 -0.1211  0.0248 -0.1927
14288W        W31812   9.337  12.009  13.193 -0.0194 -0.1560  0.0565
14289W        W31813   2.568  16.011   0.533 -0.0712  0.2461 -0.1321
14290W        W31814   3.550   8.595  14.116  0.4875  0.2653 -0.0681
14291W        W31815  10.798  15.003  11.246  0.0770 -0.0508  0.0519
14292W        W31816   7.982   1.817   3.022  0.1979 -0.2462  0.1454
14293W        W31817   0.371   2.545   2.777 -0.1991 -0.3185 -0.1682
14294W        W31818   0.342  11.247  15.585 -0.1008 -0.4924 -0.0723
14295W        W31819  16.320   9.465   0.271 -0.0286 -0.2169 -0.0749
14296W        W31820  15.544  14.311  15.712  0.1564  0.1252  0.0490
14297W        W31821  14.727   8.730  11.423 -0.2068  0.0843 -0.2758
14298W        W31822   1.702   3.190   4.234 -0.0842 -0.0481  0.1566
14299W        W31823   1.575  15.553   2.591  0.3932 -0.5645 -0.1522
14300W        W31824   5.160  13.266  12.458  0.0292  0.0972 -0.2793
14301W        W31825   8.281  10.308  11.948  0.0887 -0.0712 -0.0484
14302W        W31826  11.465   7.672   1.579  0.0016  0.1932  0.0687
14303W        W31827   9.054   4.640   1.206  0.1473 -0.3504 -0.2547
14304W        W31828  12.966  14.892   0.181 -0.0425  0.0181 -0.0185
14305W        W31829   0.782  17.005   4.331 -0.0350 -0.2665 -0.0942
14306W        W31830   3.150  15.733  13.809  0.1028  0.0221 -0.0927
14307W        W31831   4.038  15.054  14.911  0.0057 -0.0723  0.0424
14308W        W31832   5.495  16.507   2.748  0.1791 -0.1096 -0.0456
14309W        W31833  10.179   9.331   3.270  0.3702  0.2312 -0.0756
14310W        W31834   7.052   9.577  11.168  0.0186  0.4451 -0.0281
14311W        W31835   8.719   3.189   2.632 -0.1826  0.0097 -0.0719
14312W        W31836   6.267   7.150   4.606  0.1572  0.2271 -0.0952
14313W        W31837   2.379  14.470  12.017  0.2267  0.4558  0.2117
14314W        W31838   3.372  12.774  12.624  0.0459 -0.0171  0.0080
14315W        W31839   1.426  15.320   0.522  0.1522  0.0731 -0.1849
14316W        W31840   0.391   1.176   0.701 -0.0774  0.1574 -0.0099
14317W        W31841   0.244   1.271   0.240  0.4200  0.1185 -0.1093
14318W        W31842  15.702   7.226   0.278 -0.1735  0.0326 -0.2132
14319W        W31843   8.504  18.033  11.388  0.0396  0.2911 -0.2468
14320W        W31844   4.235   8.223   0.407  0.1465 -0.0058 -0.3847
14321W        W31845   1.063  10.341  13.558 -0.1760 -0.1149  0.1045
14322W        W31846   3.498   4.681   2.185 -0.0334 -0.0718  0.1978
14323W        W31847   2.695   6.819   2.682  0.1525  0.2107  0.3173
14324W        W31848   1.125  15.437  11.908 -0.1549 -0.4534 -0.2707
14325W        W31849   8.061  12.100   2.484 -0.0883  0.1873  0.0059
14326W        W31850   2.253   4.318   2.766 -0.3344  0.1484 -0.2467
14327W        W31851  15.488   7.521   0.642 -0.2929 -0.4189  0.1120
14328W        W31852   7.742   2.650  15.453 -0.0772 -0.0907  0.1615
14329W        W31853   7.320  15.150  14.624 -0.0572 -0.1452  0.0413
14330W        W31854   1.995  15.673   5.931 -0.1380  0.5420 -0.2973
14331W        W31855   0.253  10.579  13.233 -0.0352 -0.0281  0.0446
14332W        W31856   1.547   3.019  13.827  0.1197 -0.1270 -0.0111
14333W        W31857  15.684  13.602   2.175 -0.1010  0.1803  0.1378
14334W        W31858  15.030  16.010  14.548 -0.2600 -0.0951  0.0723
14335W        W31859   1.111  17.108  14.410  0.0723  0.1855  0.3516
14336W        W31860  10.093   2.701  15.160  0.1298  0.0667  0.3747
14337W        W31861   9.183   8.402  11.832  0.3499  0.5271 -0.3405
14338W        W31862   2.027   0.758   2.571 -0.3146  0.1291  0.3991
14339W        W31863  13.051   7.958   2.894  0.0053  0.2811 -0.1048
14340W        W31864   8.058  15.811   1.971  0.1177  0.1350  0.0885
14341W        W31865   4.438   7.244  15.562 -0.1533  0.2104  0.1453
14342W        W31866   8.599   8.203   0.900  0.3859  0.1791 -0.0170
14343W        W31867  11.928   7.264  13.837  0.0085 -0.1828  0.2479
14344W        W31868   6.927  13.580  14.519 -0.0656 -0.1986  0.1036
14345W        W31869   1.688   1.599  12.614 -0.1434  0.3648  0.3623
14346W        W31870   9.192  10.291  15.175 -0.0268 -0.0885 -0.1060
14347W        W31871   1.580  13.549  13.598  0.0097  0.0216  0.0279
14348W        W31872   3.316  14.760  13.510  0.3708  0.0327  0.0482
14349W        W31873  15.108  14.131   2.191 -0.0619  0.3079 -0.0708
14350W        W31874   6.786  17.768   1.714 -0.1146  0.2474  0.1833
14351W        W31875   0.575   7.761   2.921  0.1651  0.1586 -0.0324
14352W        W31876   7.834   4.975  11.813 -0.0987 -0.2456 -0.1694
14353W        W31877  14.817   9.161   4.490  0.0703  0.0211  0.0339
14354W        W31878   8.006   9.507   2.042  0.1791  0.2293  0.2057
14355W        W31879   9.150   0.774  15.130  0.0176 -0.0650  0.0094
14356W        W31880   6.725  14.209  15.663  0.0046 -0.2255  0.1695
14357W        W31881   2.919   1.102  13.020 -0.0906 -0.0489  0.0712
14358W        W31882  16.079   7.562   1.764  0.0857 -0.0105  0.4310
14359W        W31883   8.371   7.086   0.041  0.0485  0.0564 -0.1324
14360W        W31884  16.682  10.046  14.107 -0.0126  0.1069  0.0411
14361W        W31885   6.058  10.670   0.680  0.0891  0.0071 -0.1296
14362W        W31886   7.726  13.793  12.451  0.4624 -0.4041  0.0239
14363W        W31887  13.309   5.939   4.090 -0.3513 -0.1274 -0.3075
14364W        W31888  17.415  11.591  14.096  0.0389 -0.1573 -0.0701
14365W        W31889   3.688   1.593   0.390 -0.2360  0.2071  0.0506
14366W        W31890  11.266   8.853   0.303 -0.2527 -0.0715 -0.0464
14367W        W31891  15.930   0.004  14.393 -0.2267 -0.1253 -0.0116
14368W        W31892  10.063  14.964   3.023 -0.1431  0.1001  0.1509
14369W        W31893   2.844  10.842   1.555  0.0312 -0.0029 -0.0511
14370W        W31894  10.908   9.626  12.209  0.0613 -0.0661  0.3153
14371W        W31895  16.057   9.195  15.700  0.0213  0.1782 -0.1090
14372W        W31896   7.500  10.404  14.103  0.1984  0.0195 -0.0671
14373W        W31897   6.673   6.343  11.544 -0.1000 -0.1038  0.5464
14374W        W31898  15.415  16.764   3.770  0.0146 -0.2082 -0.1521
14375W        W31899  14.005   4.716  13.954 -0.2427 -0.0965 -0.1066
14376W        W31900   8.299   3.479   2.494  0.2265 -0.0642 -0.0492
14377W        W31901   7.795   3.474  12.691  0.0084  0.0231  0.0904
14378W        W31902   9.502   8.300  12.729 -0.2199 -0.1436 -0.2711
14379W        W31903  15.750  10.728   0.556 -0.4481  0.1719  0.1711
14380W        W31904   6.190  17.275  14.722  0.3020  0.2084 -0.0136
14381W        W31905  10.422  17.607  15.232  0.2282 -0.4958  0.0446
14382W        W31906  11.453   1.107   3.295  0.0790 -0.3091 -0.2067
14383W        W31907   0.743  13.920  11.731  0.2145 -0.1480  0.2435
14384W        W31908  13.897  15.792  12.404 -0.1185  0.1211  0.0116
14385W        W31909  15.905   9.473  14.626 -0.0714 -0.0756  0.1261
14386W        W31910   0.970  13.159  15.275  0.0370  0.2204 -0.0361
14387W        W31911   6.383   2.012  13.029 -0.1199  0.0557  0.0143
14388W        W31912   7.856  17.462  11.808  0.3409 -0.1615  0.4002
14389W        W31913   9.053   8.927  14.773 -0.1194  0.5226 -0.1328
14390W        W31914   6.867   7.112  12.427  0.0847  0.0507  0.0819
14391W        W31915   1.175   8.036  15.262  0.1837  0.0357  0.1062
14392W        W31916  16.057   3.228   2.286 -0.0691  0.2382  0.1292
14393W        W31917   1.329   3.533  14.578  0.1126 -0.0604 -0.1255
14394W        W31918  16.973   9.718  13.836 -0.2288 -0.2071  0.0698
14395W        W31919   0.850   9.908  11.174 -0.0481  0.3428 -0.2090
14396W        W31920   6.917  15.888   4.384 -0.1165 -0.1650  0.0555
14397W        W31921  13.519   3.426   2.083 -0.0086  0.0129 -0.2062
14398W        W31922   6.032   7.711  11.016 -0.2966  0.2623 -0.1164
14399W        W31923  15.251  17.959  15.361  0.1166  0.3496 -0.1694
14400W        W31924   3.650  14.198  14.557  0.2669 -0.0393  0.1301
14401W        W31925   5.467  14.221   1.909 -0.0894 -0.0631 -0.3147
14402W        W31926   9.080  12.826   3.396  0.1502 -0.4207 -0.0124
14403W        W31927   3.937   3.806  13.330 -0.3296  0.1754 -0.2363
14404W        W31928   4.554  14.188   2.339 -0.1497  0.2374  0.0390
14405W        W31929  12.087   8.905  13.184 -0.1632  0.3417 -0.1695
14406W        W31930   9.033   0.277   4.182  0.0768 -0.2734 -0.1160
14407W        W31931  12.709   4.221   2.995  0.0817 -0.2433 -0.0889
14408W        W31932  14.616   9.169  13.736  0.2996  0.0980  0.1078
14409W        W31933  13.447   4.226   1.103 -0.0030  0.1723 -0.0320
14410W        W31934   5.658  13.978  12.818 -0.4178 -0.0091 -0.1323
14411W        W31935   7.256   7.165   4.137  0.0027 -0.2045 -0.1326
14412W        W31936   0.671  15.171  14.326 -0.0341  0.0105  0.2737
14413W        W31937  13.184   9.685  13.693  0.2235  0.0915 -0.1782
14414W        W31938   5.709   6.016  13.964  0.2405  0.3296  0.0595
14415W        W31939  14.701   1.610   3.802  0.0484 -0.2177  0.1531
14416W        W31940  14.737  13.154   3.696 -0.0639 -0.1758  0.2219
14417W        W31941  11.127  16.716   3.323 -0.1553  0.1800 -0.0073
14418W        W31942   3.945  11.356  13.764 -0.1457  0.0295  0.0251
14419W        W31943   6.025  16.329   4.440 -0.0359 -0.0418 -0.1131
14420W        W31944   7.484   6.981   3.380 -0.1486  0.2136 -0.0182
14421W        W31945   0.111  17.739  11.644  0.1146  0.0327  0.2455
14422W        W31946   8.987  15.768  13.324 -0.1077  0.2805  0.0405
14423W        W31947  17.884   7.266  13.880 -0.1573 -0.2141 -0.1942
14424W        W31948  13.596   1.660   1.793 -0.3652 -0.0586 -0.2398
14425W        W31949   1.705  14.003  12.887 -0.0790  0.0674 -0.0027
14426W        W31950   3.388   8.020   3.772  0.1867 -0.2101  0.0940
14427W        W31951   9.648   5.760  10.515 -0.1890 -0.2241  0.2173
14428W        W31952   9.406   0.212  13.839 -0.1776 -0.2249  0.2043
14429W        W31953   5.526  12.709   0.098 -0.2145  0.1699  0.2693
14430W        W31954   0.982   9.957  13.993 -0.1644  0.2002 -0.2164
14431W        W31955   4.279  12.055   4.283  0.4909 -0.0266 -0.1032
14432W        W31956   6.812   2.691   4.809  0.0081  0.2333  0.1669
14433W        W31957  17.712   3.080   3.714 -0.4468  0.0974 -0.1916
14434W        W31958   4.591  15.753  12.592 -0.0555  0.2807  0.0674
14435W        W31959  16.393   9.487  11.165 -0.1078  0.1523  0.1914
14436W        W31960   5.373   6.266  14.298 -0.0887 -0.2808  0.0542
14437W        W31961  16.708  16.388   4.217 -0.0174 -0.1919 -0.0471
14438W        W31962  15.069  12.672   0.854 -0.1462  0.1437  0.3303
14439W        W31963  11.320   9.675  11.408 -0.1335 -0.2142 -0.1391
14440W        W31964   2.947  11.450  11.832  0.3268  0.0328  0.2784
14441W        W31965  16.105   9.362   1.705  0.1238  0.3153  0.1403
14442W        W31966   0.908   3.729   1.853 -0.1431  0.0250  0.1021
14443W        W31967   6.509   6.304  12.992 -0.0663  0.0828 -0.2117
14444W        W31968   9.720   0.439   1.058 -0.0245 -0.2325 -0.0098
14445W        W31969  10.017   3.101  12.667 -0.2487  0.1890  0.1994
14446W        W31970  11.635  12.868  14.510 -0.0419 -0.0636 -0.1152
14447W        W31971  16.125  11.877   0.879 -0.1295  0.1446 -0.0397
14448W        W31972  16.979  15.428   1.689  0.3998 -0.0638 -0.0781
14449W        W31973   2.610   7.243   2.310  0.4328 -0.4458 -0.3278
14450W        W31974  18.118   7.722   1.049  0.1826  0.1884  0.1902
14451W        W31975   1.371   4.948   0.765  0.1775 -0.1628 -0.1129
14452W        W31976   8.376   0.209   4.712  0.0402 -0.1384 -0.3896
14453W        W31977   2.550  12.109   3.807 -0.3998  0.2061  0.0021
14454W        W31978  11.318  11.631  12.239 -0.3032 -0.0867 -0.1976
14455W        W31979  14.433  10.138   9.855 -0.2105 -0.3973  0.0489
14456W        W31980  10.935   2.838  13.499  0.0847 -0.1166 -0.0685
14457W        W31981   0.747   4.491  15.190  0.0254 -0.1502  0.0428
14458W        W31982  16.582   9.592   1.595 -0.1454  0.0972 -0.0820
14459W        W31983   1.278  15.747  10.683  0.2258 -0.0030  0.1397
14460W        W31984   1.985   2.285  11.783 -0.0377  0.2446 -0.2461
14461W        W31985  14.110   7.702   0.813 -0.0872  0.0117 -0.1622
14462W        W31986   5.754   4.848   0.460 -0.2979 -0.1340 -0.3487
14463W        W31987  15.179  11.102  11.908  0.2248 -0.2021  0.2987
14464W        W31988  10.594  10.290  14.012  0.0642  0.1936 -0.3524
14465W        W31989   8.832   4.176  14.886  0.2269 -0.1111  0.4469
14466W        W31990  12.909  10.923   5.053  0.4011  0.0587 -0.0396
14467W        W31991  10.549   9.802  13.952  0.0790  0.1983 -0.0642
14468W        W31992   3.700   6.074   0.973  0.2422 -0.2082 -0.1120
14469W        W31993   8.013  11.912   3.218  0.0965 -0.1759 -0.0279
14470W        W31994   5.850  13.215  12.527  0.1700  0.0024 -0.2232
14471W        W31995  11.229   9.124  14.239  0.0445  0.1519  0.0490
14472W        W31996  14.513   4.062  14.248  0.0770 -0.2824 -0.2316
14473W        W31997   6.801  13.673  13.426  0.0784  0.0498  0.0656
14474W        W31998  10.596  15.334   4.799  0.0212  0.1655 -0.0410
14475W        W31999  15.453   4.653   3.179  0.0541 -0.1186 -0.1047
14476W        W32000   8.535  15.047   0.358  0.0711  0.1394  0.0172
14477W        W32001  11.241  17.923  12.557 -0.3393 -0.0616 -0.3277
14478W        W32002   0.843  16.919  13.615 -0.1379  0.1400  0.3947
14479W        W32003   4.352  11.619  12.425  0.2111 -0.0404  0.0642
14480W        W32004  13.867   4.077  15.636 -0.1846 -0.0427  0.2216
14481W        W32005   8.475  12.630  12.520 -0.1752  0.1032 -0.3574
14482W        W32006   1.601  13.875   4.502 -0.1423  0.0163  0.0100
14483W        W32007  14.334  11.513  11.462 -0.0478 -0.1888 -0.4193
14484W        W32008   9.675  16.454  15.398 -0.0668 -0.0171  0.1680
14485W        W32009   4.854  10.774   1.035 -0.1689  0.2064  0.5408
14486W        W32010  15.284  17.262   2.567 -0.0890  0.0012  0.0688
14487W        W32011   1.786   8.108   2.444 -0.1865  0.0772 -0.2179
14488W        W32012   8.192   5.533  10.491 -0.0336 -0.0672  0.0765
14489W        W32013  11.659  11.256   1.110  0.0591 -0.4065 -0.1475
14490W        W32014  11.100   6.684  11.184 -0.1636  0.1441  0.1337
14491W        W32015  17.250   4.381  15.250 -0.0674 -0.0003 -0.1836
14492W        W32016  18.083   0.700  11.741 -0.0776 -0.0339  0.2267
14493W        W32017  15.050  10.703  13.217  0.2416 -0.0989 -0.1195
14494W        W32018   5.092  11.554  11.075  0.0184  0.0685 -0.0155
14495W        W32019   7.210  14.839   1.657  0.2914  0.2484  0.2584
14496W        W32020   2.968  12.597   2.029  0.1568 -0.2088 -0.0327
14497W        W32021  16.281   8.454   0.985 -0.2797 -0.2549  0.2165
14498W        W32022  11.383   0.502   3.253  0.0760 -0.1716  0.0071
14499W        W32023   8.510   7.437   1.345 -0.0272  0.1362  0.1913
14500W        W32024   3.788  16.369   2.892 -0.2061 -0.2079  0.3230
14501W        W32025   9.286   4.683   5.316 -0.1251 -0.4427  0.0966
14502W        W32026  13.864  11.476  11.305 -0.3259 -0.0282  0.0423
14503W        W32027  17.030  12.102   2.438 -0.3038 -0.0638  0.2008
14504W        W32028   1.815  16.347  15.110  0.0224 -0.1063  0.1193
14505W        W32029  10.927  15.670   4.500 -0.1927  0.4133 -0.1005
14506W        W32030  10.916   5.065   3.565  0.1336 -0.0210  0.1462
14507W        W32031   3.885  10.996   9.785  0.1157  0.2150  0.1911
14508W        W32032  12.710  15.801   1.182 -0.0809 -0.1107 -0.5883
14509W        W32033  10.669  16.345  15.432  0.1325  0.0964 -0.0108
14510W        W32034   1.468   8.594   1.183  0.1057  0.1886 -0.1202
14511W        W32035   5.317   8.678   3.475 -0.2195  0.1210  0.2638
14512W        W32036  17.647  15.004  15.460 -0.2632 -0.0301  0.1924
14513W        W32037   3.547  10.507   3.034  0.0127 -0.0806 -0.3293
14514W        W32038  16.396   1.462   3.250  0.2136 -0.0473 -0.1433
14515W        W32039  18.053   8.222  12.113  0.1215 -0.1518 -0.1611
14516W        W32040  17.322   5.989   4.854  0.3186 -0.1510 -0.4722
14517W        W32041   8.530   6.926   1.573  0.0338  0.0329  0.1596
14518W        W32042   4.829   6.167   1.283  0.2267  0.2783  0.0772
14519W        W32043   1.297   5.401  12.036 -0.0971  0.0249 -0.1910
14520W        W32044  16.980   4.747  11.845  0.1436 -0.2806  0.3333
14521W        W32045  16.712   6.932   3.550 -0.2245  0.0844  0.1728
14522W        W32046  10.815   4.095  13.908 -0.3013  0.0647 -0.4041
14523W        W32047   2.383   5.899  13.899  0.3598  0.1536 -0.1568
14524W        W32048  10.576  10.934   1.358  0.0681  0.0897 -0.0236
14525W        W32049   1.787  13.372   4.127 -0.1285  0.2288  0.0394
14526W        W32050   8.004  11.878  10.838 -0.2501  0.1677  0.2014
14527W        W32051   6.112   2.786  14.508 -0.0012 -0.2138  0.0821
14528W        W32052  12.744   4.821  13.728  0.1285 -0.0518  0.0538
14529W        W32053   0.355   8.987  13.117 -0.1567  0.0130 -0.0309
14530W        W32054  14.302   1.223   5.144  0.1106  0.1097 -0.1080
14531W        W32055  13.496  14.019  14.394  0.2406  0.0151  0.1907
14532W        W32056  15.148   1.067   0.191  0.1632 -0.0729 -0.2737
14533W        W32057   8.842  11.648  12.029 -0.1230  0.0553  0.1409
14534W        W32058   2.444   4.778   3.107  0.1130  0.2432  0.1479
14535W        W32059   7.418   3.678  11.613 -0.2848 -0.1042 -0.0088
14536W        W32060  13.569   9.498   4.681 -0.1075  0.0596 -0.0234
14537W        W32061   5.760  18.470  14.535 -0.0503  0.0960 -0.5816
14538W        W32062  10.592   5.870  11.565  0.0650 -0.1327  0.4652
14539W        W32063   2.752   0.940   0.721  0.5194  0.0443 -0.1147
14540W        W32064   2.765  16.407   1.697  0.2225 -0.2985  0.0158
14541W        W32065  14.041   1.525  13.720 -0.3496 -0.2326 -0.2757
14542W        W32066   2.873   1.343  15.144 -0.2788  0.0354 -0.4063
14543W        W32067   9.840  13.789  14.269  0.1557 -0.0027 -0.2438
14544W        W32068   4.142  18.193  14.072 -0.0369  0.2286 -0.3695
14545W        W32069   4.805  11.409  12.685  0.1175 -0.0035  0.3421
14546W        W32070   1.981  15.168  13.798 -0.1209 -0.1739 -0.3189
14547W        W32071  12.664  16.905   2.585 -0.2358 -0.3065 -0.0486
14548W        W32072   6.310  13.634   0.934  0.0453 -0.3320  0.3884
14549W        W32073   6.603  15.103   0.419 -0.0462  0.0583 -0.2269
14550W        W32074  15.245   2.905  11.737 -0.0262  0.3391  0.1828
14551W        W32075   1.919  12.501   5.031  0.2216  0.1880 -0.2115
14552W        W32076   7.125   9.090   0.000  0.2372  0.1551 -0.2724
14553W        W32077   4.898   5.312  15.398  0.1477  0.0840  0.0935
14554W        W32078   0.807  17.471  12.123 -0.0764 -0.0757  0.1025
14555W        W32079  16.833  10.438  14.541 -0.3307  0.0561  0.1943
14556W        W32080   5.436   9.172   3.748 -0.2928  0.1761 -0.2246
14557W        W32081  16.428   5.932  12.594  0.1387 -0.0054  0.0998
14558W        W32082   8.857   1.289   4.177 -0.0509  0.1214 -0.0950
14559W        W32083   7.349  16.117   4.064  0.1897 -0.3340 -0.4190
14560W        W32084  11.478  18.014   5.212 -0.1214  0.0613 -0.1181
14561W        W32085   2.917   7.660  12.443 -0.2279 -0.1716  0.0613
14562W        W32086  13.225   2.036   2.160  0.0648  0.3173 -0.1044
14563W        W32087   6.708   0.162  14.266  0.0932 -0.0275  0.3360
14564W        W32088  14.970  12.471  12.734  0.1688 -0.2889  0.0679
14565W        W32089   1.834   6.773   0.252 -0.0708 -0.0219  0.3310
14566W        W32090   8.720   4.232  12.260  0.2605  0.0401  0.0974
14567W        W32091  12.237  18.036   3.336 -0.0572  0.1971  0.0134
14568W        W32092  13.962   3.368   0.883 -0.1820 -0.4439  0.1044
14569W        W32093  17.837  15.575   0.136  0.0603  0.0407  0.2198
14570W        W32094  13.493   8.930   3.362 -0.0153  0.1904 -0.3116
14571W        W32095   6.249  14.476  10.748 -0.2521 -0.1137  0.4205
14572W        W32096   8.130   5.982   4.056 -0.1027  0.1588  0.2078
14573W        W32097  11.034   7.587  13.439 -0.1593 -0.0922 -0.1118
14574W        W32098  13.008   9.322  15.002  0.0764  0.0215  0.0473
14575W        W32099   2.770  12.478   1.608 -0.2799 -0.2820 -0.2258
14576W        W32100  11.004  16.318   2.148  0.1088  0.1192 -0.1842
14577W        W32101   7.546   0.385  11.357  0.0263  0.1909  0.0199
14578W        W32102   1.729  14.257  14.308  0.0154  0.1276 -0.1550
14579W        W32103  17.578   3.988  15.338  0.0453 -0.1713 -0.0328
14580W        W32104   4.942  15.528   1.328 -0.2385 -0.3718 -0.1409
14581W        W32105   8.815  17.942  13.081  0.0362  0.0488 -0.1027
14582W        W32106   3.562  11.025   4.307 -0.1823 -0.1428 -0.1115
14583W        W32107   5.579   3.943  13.167 -0.0221 -0.0307 -0.0719
14584W        W32108  15.338   2.100  15.688  0.1481 -0.1452 -0.0206
14585W        W32109  17.494   3.545  15.171  0.0502  0.2061  0.1158
14586W        W32110  16.586   7.537   3.168  0.1113  0.2246 -0.4278
14587W        W32111  18.401   9.094   1.109  0.0886  0.0500  0.0556
14588W        W32112   8.792   6.259   0.679  0.3706  0.0193  0.0075
14589W        W32113   9.201  14.935   5.009  0.2762  0.1967 -0.1256
14590W        W32114   0.800  13.423  11.472  0.1010 -0.0228  0.0264
14591W        W32115  11.809  16.216   3.354 -0.0611 -0.1099  0.1105
14592W        W32116  13.791   0.010  14.966  0.0260 -0.3264 -0.0123
14593W        W32117   1.442  11.039   2.563 -0.1127  0.0407  0.0172
14594W        W32118  10.912   7.989   3.689 -0.0793 -0.2166  0.2057
14595W        W32119   3.000  11.745   1.942  0.0005  0.0528 -0.2303
14596W        W32120   8.595   3.753   3.975  0.0620 -0.0699 -0.0568
14597W        W32121   5.787   3.894   0.959 -0.1164  0.4441 -0.2226
14598W        W32122   5.899   4.877  13.127  0.0246  0.1976 -0.1236
14599W        W32123  15.123  16.324   4.598 -0.1364 -0.1735 -0.4392
14600W        W32124   6.557   3.801   3.189 -0.0226  0.2381  0.1131
14601W        W32125  17.581   2.441   4.351 -0.1030  0.2290 -0.0288
14602W        W32126   1.442   0.196   1.497  0.0369  0.0415 -0.0624
14603W        W32127  11.518   1.874   1.101  0.1266  0.0229 -0.4080
14604W        W32128  17.192   2.637  14.006  0.0073  0.0546  0.5680
14605W        W32129  17.612   4.204   0.679 -0.2792 -0.0867  0.0818
14606W        W32130   2.203   4.686  11.745 -0.0196 -0.1029  0.3170
14607W        W32131   6.995   5.927  14.829  0.2215  0.3027 -0.1376
14608W        W32132  13.413   3.487  13.205 -0.1240 -0.1166  0.3428
14609W        W32133  10.414  15.190  13.719  0.0721  0.2777 -0.2202
14610W        W32134   8.087   3.537  15.095 -0.1114 -0.2806 -0.1253
14611W        W32135   3.435   5.558  10.771  0.0366 -0.1009 -0.1949
14612W        W32136   9.328   9.524  15.131 -0.2383  0.2211 -0.3513
14613W        W32137  15.295  12.952   1.811  0.2287  0.0077  0.0748
14614W        W32138   8.687  15.840   1.596  0.1348  0.2448  0.2310
14615W        W32139  17.563   6.400   2.096 -0.0531  0.0528 -0.4325
14616W        W32140  14.661   9.904  12.764 -0.0216  0.0442 -0.0058
14617W        W32141  16.099  11.570   1.906 -0.1423 -0.2979  0.0847
14618W        W32142   0.845  10.661  12.212  0.1277 -0.1439 -0.2670
14619W        W32143   3.900  13.932   0.024  0.2709 -0.1587  0.2207
14620W        W32144   6.698  13.960   1.743  0.0532 -0.0648 -0.0189
14621W        W32145   9.797   2.030  13.625 -0.2403 -0.0737 -0.0586
14622W        W32146   7.847   7.906  12.933 -0.0194 -0.0282  0.2662
14623W        W32147   2.012  17.503   1.086 -0.1753  0.0581  0.0154
14624W        W32148   6.871  14.080  14.669  0.0745 -0.1293 -0.2262
14625W        W32149   6.357   1.283   0.079  0.1872  0.0989  0.0597
14626W        W32150  18.429   8.177  14.726  0.0406  0.0545 -0.1587
14627W        W32151  17.986  13.388  10.942 -0.0741 -0.0333  0.0245
14628W        W32152   6.168   9.762  13.008  0.0630 -0.2372 -0.1101
14629W        W32153  17.270  14.401  11.917  0.3185 -0.2228 -0.0582
14630W        W32154   9.171   8.415   4.144  0.1229  0.1000  0.0534
14631W        W32155  18.162  16.340  11.456  0.1559  0.3397 -0.1451
14632W        W32156   8.306   3.402   2.000  0.0464  0.2320 -0.1092
14633W        W32157   6.347   9.470   3.513  0.1194 -0.0667  0.0112
14634W        W32158   2.204   3.017  11.363 -0.2809 -0.1009  0.0126
14635W        W32159   6.248  16.047  11.353  0.1057  0.0308  0.0891
14636W        W32160   3.221   6.923  13.929  0.0056 -0.0728 -0.4858
14637W        W32161   2.627  13.365   1.802  0.0499 -0.0438 -0.1201
14638W        W32162  11.979   3.648   0.392 -0.0027  0.1121 -0.1580
14639W        W32163  17.122   0.032  14.806  0.0355 -0.0670  0.2794
14640W        W32164   2.870   1.117   3.630  0.2296  0.0744 -0.0857
14641W        W32165  17.772  12.261   2.939 -0.0575  0.0284 -0.2602
14642W        W32166   8.649   0.676   3.365 -0.2057 -0.1915 -0.0060
14643W        W32167   2.180  17.526   3.334  0.2516  0.1648  0.2540
14644W        W32168  15.778   8.258  14.866 -0.0655  0.2988 -0.0330
14645W        W32169  17.473   0.033   3.374 -0.2542 -0.0975  0.0181
14646W        W32170   6.525  18.128  15.178  0.0911  0.2494  0.0766
14647W        W32171   9.359  12.408  13.998  0.3117 -0.1754  0.0621
14648W        W32172  15.301   7.123   5.213 -0.1487  0.1313  0.2076
14649W        W32173  12.784   0.852  14.617 -0.1219  0.0422 -0.0168
14650W        W32174   3.655  16.804  11.952 -0.2698 -0.2041 -0.0152
14651W        W32175  11.018   5.829  15.261 -0.3267 -0.3347  0.3578
14652W        W32176   3.647   3.376  12.151  0.2392 -0.0295  0.0727
14653W        W32177   1.185   2.423  12.434 -0.0647  0.1276 -0.0549
14654W        W32178   3.278  10.825   0.726 -0.1649 -0.0304  0.0643
14655W        W32179   8.138   4.560  10.356  0.3866  0.2885  0.0875
14656W        W32180   6.966   7.800   2.964  0.3003 -0.2482 -0.0248
14657W        W32181   3.786  17.189  15.590  0.2154 -0.0736  0.1250
14658W        W32182   4.359  15.166   2.039 -0.1210  0.0594  0.1528
14659W        W32183   9.663  13.148  15.522 -0.0932 -0.1191  0.1038
14660W        W32184  10.017  17.999   1.095  0.2220  0.0713 -0.3518
14661W        W32185   7.696  17.449  11.021  0.0046  0.0845 -0.0322
14662W        W32186   9.065   8.131  11.186 -0.2495  0.2800 -0.1830
14663W        W32187  18.212   4.296  13.708 -0.1274  0.1834  0.0833
14664W        W32188  15.822   2.682  15.145 -0.3155 -0.1807  0.0693
14665W        W32189   8.352   4.938   3.283  0.3653  0.0604 -0.2925
14666W        W32190   5.110  11.654  13.821 -0.0370 -0.2024  0.0712
14667W        W32191  11.505   1.160   1.886 -0.2285  0.0068  0.1040
14668W        W32192  11.339  14.233   4.325 -0.1594  0.1813 -0.0054
14669W        W32193   6.461   7.420   0.719  0.1842 -0.2096  0.3970
14670W        W32194  10.713  14.825   1.974 -0.4079 -0.3834 -0.0281
14671W        W32195   8.102   4.556  15.424 -0.0508 -0.0930 -0.1146
14672W        W32196  11.903  17.606  12.490  0.2611  0.0842 -0.0455
14673W        W32197   9.342   4.037  11.456 -0.2114 -0.1349  0.1363
14674W        W32198   2.863   9.433  14.288 -0.1327  0.1314  0.0194
14675W        W32199   6.128   3.993  12.119  0.0628  0.0597  0.2088
14676W        W32200  17.960  13.200   1.607 -0.2447 -0.0962 -0.0751
14677W        W32201   2.938  15.453   4.310 -0.3034 -0.3438 -0.0967
14678W        W32202  14.424   5.602   3.431 -0.1005  0.4271  0.0243
14679W        W32203  11.122   1.153  14.122 -0.1909  0.1570  0.3009
14680W        W32204   4.674   1.754  11.133 -0.1676 -0.1925  0.2051
14681W        W32205   3.854  11.520  12.371  0.1070  0.0274 -0.2801
14682W        W32206   2.679  15.371  15.556  0.2654  0.1594  0.4471
14683W        W32207  13.778   7.988  12.468 -0.2538  0.0821  0.0130
14684W        W32208   0.365   7.840  12.430 -0.0088 -0.0377  0.2947
14685W        W32209   6.189  11.566   2.064  0.0666 -0.0314  0.4398
14686W        W32210   8.841   9.819  11.066 -0.1792  0.0928 -0.1403
14687W        W32211   9.837  11.101   0.577  0.0639  0.1183  0.2690
14688W        W32212   9.545  13.592   4.988 -0.2247 -0.3407 -0.1228
14689W        W32213  14.168  10.929   0.730  0.0449 -0.2769  0.1206
14690W        W32214  10.508   2.396  15.414  0.0824 -0.1063 -0.0166
14691W        W32215  13.980   3.872   2.158  0.1808  0.1345  0.2521
14692W        W32216   2.502   0.900   2.819 -0.0602 -0.2146  0.2424
14693W        W32217   1.104   0.041  14.494  0.0191 -0.2911  0.0412
14694W        W32218  11.990  11.201  11.015 -0.0708 -0.3445  0.0143
14695W        W32219  16.668   7.189   4.540  0.1458 -0.3550  0.0070
14696W        W32220   2.291   6.131  14.399 -0.1464 -0.3508  0.0074
14697W        W32221  10.882   1.890  14.695  0.1767  0.4693  0.1487
14698W        W32222  11.348  17.318  11.329  0.0186 -0.0896  0.1517
14699W        W32223   1.080  12.691   4.521  0.4284 -0.4091  0.0056
14700W        W32224  18.135   1.735   2.330 -0.2505 -0.4657 -0.0400
14701W        W32225   7.554  14.636  11.598  0.0295 -0.0322 -0.1947
14702W        W32226  11.054  18.345   3.711  0.1887  0.0315  0.0888
14703W        W32227   0.335  13.008  11.014 -0.2441  0.1395  0.3174
14704W        W32228   2.354   9.638   1.937 -0.0053 -0.1619 -0.3058
14705W        W32229  10.745   1.281   1.124  0.2347  0.1176  0.1623
14706W        W32230   9.476   2.328   0.718 -0.1237  0.3925  0.0915
14707W        W32231  16.539  11.172  11.115 -0.1600 -0.2211 -0.0645
14708W        W32232   7.937  15.724   1.484  0.1892 -0.1628  0.1756
14709W        W32233  13.488   0.368  12.448  0.1363 -0.0098  0.1897
14710W        W32234  13.637  13.591  14.784  0.2835 -0.0450  0.2723
14711W        W32235   9.356  10.834   3.083  0.2595 -0.3176 -0.4972
14712W        W32236   4.630  15.472   3.579  0.0008 -0.1981  0.1124
14713W        W32237   9.929  16.169   2.783  0.1147 -0.0352  0.1130
14714W        W32238   2.949   2.140   5.330 -0.0840  0.0229  0.0320
14715W        W32239  10.676   6.876   0.664  0.2443  0.0534  0.0581
14716W        W32240  17.188   9.730   4.219 -0.1350  0.3945  0.0545
14717W        W32241   2.607   7.166   3.427 -0.2442  0.0982 -0.0132
14718W        W32242   9.301  10.134  12.434 -0.0073  0.0406 -0.2436
14719W        W32243   2.293   8.008   2.591  0.0967 -0.3704 -0.2048
14720W        W32244   5.665   9.799   1.594  0.0096  0.1813 -0.2233
14721W        W32245  11.088   4.046   2.360  0.2025 -0.0143 -0.3131
14722W        W32246   3.824   6.099   1.726  0.4569 -0.0180  0.2370
14723W        W32247  13.506   1.860   1.393 -0.0588  0.2424 -0.1648
14724W        W32248  11.344   1.772  12.518  0.0757 -0.0525  0.1374
14725W        W32249   2.200   1.910   1.236  0.2708  0.0215 -0.2525
14726W        W32250   6.524   1.447   4.612  0.1751 -0.0726 -0.0167
14727W        W32251  16.506  10.339  13.759  0.4638  0.0074  0.3209
14728W        W32252   6.513   1.416   0.707  0.0489 -0.0315 -0.1277
14729W        W32253   7.136   7.636  11.135  0.1233 -0.3476  0.0051
14730W        W32254  17.387   6.074  10.779  0.0386 -0.0357 -0.2417
14731W        W32255  16.870   7.213   5.316  0.0697  0.0871  0.2745
14732W        W32256   8.654  17.427  14.801  0.3188 -0.0203  0.3592
14733W        W32257   2.117  13.742  11.656 -0.0580  0.1064  0.0868
14734W        W32258  13.940   5.276  14.239 -0.3731  0.0112 -0.0091
14735W        W32259   1.290  14.622  12.430  0.1726 -0.3856 -0.0685
14736W        W32260   7.732  12.749   3.664 -0.0817  0.0292  0.2028
14737W        W32261  17.354  17.091   4.128 -0.0777  0.1812 -0.3919
14738W        W32262   7.234  13.588  11.705 -0.3606 -0.0382  0.2173
14739W        W32263   2.312   7.638  12.571  0.0874 -0.1887  0.1264
14740W        W32264  15.146  10.683   1.205 -0.0860  0.2880  0.1517
14741W        W32265   8.909  10.659  11.711  0.0432  0.5556  0.2211
14742W        W32266  10.526   1.501   0.708 -0.1578 -0.0757 -0.1402
14743W        W32267  15.336   8.299   0.762 -0.0811 -0.2884  0.4281
14744W        W32268  15.222   6.678  11.876  0.1451 -0.0520  0.3577
14745W        W32269   3.653  10.510   0.747 -0.1617  0.1518 -0.0772
14746W        W32270   2.515  15.226   3.179 -0.0984 -0.1058 -0.5298
14747W        W32271   0.828   5.970   4.099 -0.1269  0.1417 -0.1426
14748W        W32272   3.246   3.046   3.413  0.1004  0.0758 -0.4260
14749W        W32273   8.042   5.801   3.071  0.1039  0.0891 -0.1979
14750W        W32274   6.327  14.199  14.685  0.1329 -0.0153 -0.0222
14751W        W32275   4.815  12.746   3.621 -0.1114  0.1219 -0.0178
14752W        W32276   4.186  11.777   0.123  0.1067 -0.0326  0.2164
14753W        W32277  18.013   8.478  13.187 -0.0173  0.0402  0.3154
14754W        W32278  13.830  11.070  12.216 -0.3977 -0.1912  0.2031
14755W        W32279   3.345   7.602  12.697  0.0134 -0.3427  0.1569
14756W        W32280  18.453   8.841   1.559 -0.1970 -0.2263  0.0491
14757W        W32281  11.396   7.647   3.130  0.0911 -0.1607 -0.3221
14758W        W32282  13.438   1.147  13.145  0.0004 -0.0669 -0.3100
14759W        W32283   9.541  14.042   1.617 -0.1020 -0.0100  0.0656
14760W        W32284  12.423   2.951  11.837  0.1877 -0.3002  0.1276
14761W        W32285   7.105  10.810   1.379  0.3445 -0.0929  0.3008
14762W        W32286  14.088  14.732   1.389  0.1402  0.0788 -0.1308
14763W        W32287  17.408   0.459   1.696 -0.0481  0.0272 -0.1497
14764W        W32288   6.483  15.066   4.318 -0.0021  0.0706  0.3574
14765W        W32289   3.315   2.674  15.184 -0.0706  0.1662 -0.0107
14766W        W32290  14.702   4.079  12.495  0.1391 -0.0594 -0.0744
14767W        W32291  12.922   8.121  15.235  0.0844  0.3903 -0.0038
14768W        W32292   4.398   5.618  10.816 -0.1792  0.0733 -0.3153
14769W        W32293   2.706   0.838   5.800  0.2741  0.1254  0.1818
14770W        W32294   9.608   8.741   1.175 -0.0981  0.2743  0.0346
14771W        W32295  12.669  11.236   3.820  0.1686  0.2444  0.0900
14772W        W32296  15.083   1.264   4.151 -0.1060 -0.0234  0.0993
14773W        W32297   1.646  14.552  12.790  0.1499 -0.2064 -0.0996
14774W        W32298  16.942   9.538  11.088 -0.1221 -0.0537  0.0670
14775W        W32299   7.614   2.461  11.371 -0.0485  0.2576 -0.0891
14776W        W32300  13.905  11.573  13.895 -0.2114 -0.1859 -0.0830
14777W        W32301   9.304  10.725  14.961 -0.0245  0.2883  0.0183
14778W        W32302   6.648   3.240   3.265 -0.4082  0.4168  0.2654
14779W        W32303   5.709   5.694   2.185  0.1159 -0.0054 -0.1781
14780W        W32304   3.936   6.709  13.188 -0.1763 -0.2016  0.1284
14781W        W32305  10.536   7.061  15.429  0.3221  0.2036  0.2516
14782W        W32306  12.935  17.294  15.064  0.1118  0.2661  0.3151
14783W        W32307  11.309   8.940   0.848  0.1112 -0.3090 -0.2795
14784W        W32308   2.310   1.737   3.355 -0.0787  0.1047  0.4931
14785W        W32309  14.832   0.348   4.266 -0.2069 -0.1228  0.0971
14786W        W32310   8.644  13.162   0.860  0.1317  0.0476  0.0219
14787W        W32311   5.905  12.203   3.682 -0.0835 -0.1520 -0.0894
14788W        W32312   0.358   1.505  11.333  0.1471 -0.1902  0.0237
14789W        W32313   0.928   5.069  11.044 -0.1177  0.2775  0.3480
14790W        W32314  16.889  18.063   1.741  0.1682  0.2666 -0.0840
14791W        W32315   9.353   7.998  14.998 -0.0009 -0.3673  0.1633
14792W        W32316   4.831  16.081   0.581  0.0940 -0.2163  0.0408
14793W        W32317   9.418  18.380   4.019  0.2888  0.3766 -0.2558
14794W        W32318   1.600   7.316   5.115 -0.0647 -0.0935 -0.1518
14795W        W32319  15.646   8.804   3.615 -0.0596  0.3005 -0.3706
14796W        W32320  11.445   9.588  13.315 -0.1383 -0.2189 -0.0349
14797W        W32321  11.564  11.905  13.280  0.2748 -0.2276 -0.2039
14798W        W32322   5.150  11.619   0.794  0.1722  0.2666 -0.2336
14799W        W32323  16.812  18.035  14.907  0.1315  0.0721  0.1166
14800W        W32324  15.016  14.103   2.754  0.0277 -0.2954 -0.2615
14801W        W32325   7.508   8.264  15.600 -0.1450 -0.1229 -0.0304
14802W        W32326   0.195   2.499   3.356  0.0120  0.1367 -0.0323
14803W        W32327   0.553   0.965   3.117  0.0841 -0.0192  0.0119
14804W        W32328  10.942   3.202  14.822 -0.2207  0.3434 -0.3832
14805W        W32329  10.458  13.551   2.337 -0.1062 -0.1684  0.1999
14806W        W32330  16.794  15.107  11.502 -0.0507 -0.0758  0.2681
14807W        W32331  13.237  14.234   1.580 -0.6042 -0.2910 -0.0182
14808W        W32332   3.054   2.863   1.267  0.0941  0.1840 -0.2172
14809W        W32333   5.577   5.303  13.087 -0.1412  0.3052  0.0805
14810W        W32334   8.927   6.098   1.212  0.1777 -0.0797  0.0982
14811W        W32335   9.618   5.031  11.614 -0.0105  0.0525 -0.3204
14812W        W32336  13.354  18.088   3.446  0.0192  0.1400 -0.0101
14813W        W32337   0.545  10.019   2.257  0.0814  0.1059 -0.0929
14814W        W32338  16.270   5.311  11.339  0.0701 -0.0808  0.1147
14815W        W32339  14.891   1.895  12.125 -0.3601  0.0557  0.1541
14816W        W32340   9.284   9.406   4.525  0.0458  0.1899  0.1570
14817W        W32341  14.932  14.504  12.808 -0.2528 -0.1289 -0.2092
14818W        W32342  10.163   4.500  12.230  0.0331 -0.1937  0.2459
14819W        W32343  10.310   7.494   3.333  0.0524 -0.0971  0.2770
14820W        W32344   0.029  13.472  13.958 -0.1553 -0.0485  0.1871
14821W        W32345  11.379   9.227  15.400  0.1139  0.0056  0.0825
14822W        W32346  17.705   3.845  13.057 -0.0545 -0.0003 -0.0460
14823W        W32347  14.497   6.506   4.525 -0.2847 -0.1980 -0.0642
14824W        W32348  12.303   4.572  11.390 -0.0643  0.1248  0.4657
14825W        W32349  14.551   2.215  15.505  0.0391  0.0340 -0.1152
14826W        W32350   0.396   0.178   3.910  0.2676 -0.3339  0.1715
14827W        W32351   3.322   4.784   1.603 -0.0303 -0.3047 -0.0517
14828W        W32352   1.784   3.363  11.491 -0.0394  0.2927  0.1088
14829W        W32353   0.429   2.342   0.690 -0.1061  0.2467 -0.1517
14830W        W32354  14.577   1.139   3.664  0.0609  0.0126 -0.1059
14831W        W32355   0.260   6.247   0.928 -0.2873  0.3129 -0.0580
14832W        W32356  14.111   8.551  14.092  0.0724  0.2351 -0.0633
14833W        W32357   5.070  14.387   4.971 -0.2393 -0.0638 -0.0629
14834W        W32358   5.014  18.252  11.931 -0.1320 -0.1032  0.0942
14835W        W32359   6.632  15.961   0.477 -0.1827 -0.1446 -0.0809
14836W        W32360   5.152  16.719   2.445 -0.5133 -0.0200 -0.0343
14837W        W32361  18.346  16.289  15.334 -0.0395 -0.2602  0.0121
14838W        W32362  13.528  15.914   0.776 -0.1845  0.1403  0.2303
14839W        W32363   7.881  10.450  13.741  0.0685 -0.0397 -0.1545
14840W        W32364  15.324  10.266  13.234  0.1015 -0.1344 -0.0148
14841W        W32365   3.810  15.695  13.703  0.0840 -0.0664 -0.1252
14842W        W32366   9.783   4.072  12.958 -0.1751 -0.1706  0.1104
14843W        W32367   9.130  15.091  14.242 -0.1288  0.1966  0.2038
14844W        W32368   2.781   8.414   4.247 -0.0547  0.0867  0.1808
14845W        W32369   8.722  15.698  13.741  0.0487 -0.1754  0.0934
14846W        W32370   4.254  14.000   0.383 -0.1313  0.0771  0.0135
14847W        W32371   1.199   2.900  14.689 -0.1249  0.0100  0.2100
14848W        W32372   4.513  15.906   0.952  0.0833 -0.1597  0.1694
14849W        W32373  16.052  14.189  11.482  0.0892 -0.2482 -0.4413
14850W        W32374  13.882   8.193  11.930 -0.4802  0.2874  0.4007
14851W        W32375  14.870   2.002   1.269  0.3747  0.3504 -0.1902
14852W        W32376   7.645   7.151  12.344  0.2290  0.1822 -0.4453
14853W        W32377   0.219   7.591  10.349  0.0568  0.0800  0.2506
14854W        W32378   8.835   1.927  14.245  0.2232  0.0881  0.1087
14855W        W32379  10.662  10.629   0.520 -0.2568  0.2183 -0.1490
14856W        W32380   1.010   8.549  13.871  0.0018 -0.0484  0.1550
14857W        W32381  15.368  11.433   4.208  0.0685 -0.3060 -0.0421
14858W        W32382   1.746  13.980  11.282 -0.6051  0.3312 -0.1128
14859W        W32383   9.646  15.158  12.718 -0.1119  0.0448 -0.1729
14860W        W32384   9.621   0.083  14.334 -0.0802  0.2674  0.0448
14861W        W32385   5.892   1.919   0.469  0.0670 -0.1229  0.1885
14862W        W32386   0.987  16.557   1.561 -0.2671 -0.0055  0.1113
14863W        W32387  17.986  10.909  12.634  0.1467  0.4779  0.0084
14864W        W32388   7.297   3.528   1.663 -0.0157 -0.0769 -0.1120
14865W        W32389   8.834  13.058  10.856  0.1761  0.2567 -0.4308
14866W        W32390  14.029   5.794  10.906 -0.2620  0.0521 -0.1481
14867W        W32391   1.209   2.653  13.712  0.6088 -0.0120 -0.0471
14868W        W32392  17.802   6.370  11.599 -0.0420 -0.0884 -0.0637
14869W        W32393   4.051  13.074   1.918 -0.0490  0.3335 -0.2902
14870W        W32394  15.747   2.438   4.647  0.0559 -0.1846  0.2159
14871W        W32395   9.368  17.453  15.307 -0.5241 -0.0070  0.0336
14872W        W32396  10.791   8.090   0.168 -0.2484  0.1923 -0.0917
14873W        W32397   4.114  13.889   3.333  0.2782  0.0924 -0.0874
14874W        W32398  13.601   0.591   1.209 -0.0725  0.0390  0.3188
14875W        W32399  16.549   2.497  11.747  0.2437  0.0476 -0.0156
14876W        W32400   8.358   6.135  15.376 -0.2963  0.2932  0.1196
14877W        W32401  14.983   7.927   2.396 -0.2733  0.0480 -0.0990
14878W        W32402   4.510  12.352  14.641 -0.1466  0.0735  0.2979
14879W        W32403   9.072  13.794  13.720  0.0101 -0.0397  0.2320
14880W        W32404   3.020  16.189  15.498  0.1512 -0.0623  0.3281
14881W        W32405  16.032   6.707   3.676  0.1061  0.4154 -0.0704
14882W        W32406   8.832   3.635   2.377  0.1888  0.0214  0.0037
14883W        W32407  11.773  12.684  11.592  0.0959 -0.1121  0.0419
14884W        W32408  12.110   1.092   0.828  0.0973  0.1976  0.2000
14885W        W32409  14.975   1.200  14.196 -0.3266  0.1399  0.2072
14886W        W32410   5.714  14.717  13.634  0.0337  0.0707 -0.0555
14887W        W32411  14.801   0.096   2.850 -0.1061  0.0823  0.1064
14888W        W32412   4.981   4.768   3.797  0.2122  0.3783  0.0470
14889W        W32413  17.948  15.402  12.761 -0.2467 -0.0262 -0.3905
14890W        W32414  12.845  16.454   0.334 -0.3308 -0.3042 -0.0588
14891W        W32415   5.984   7.049  10.515 -0.0296 -0.0397 -0.0384
14892W        W32416  15.494   2.313  15.261  0.1430  0.1779 -0.0622
14893W        W32417  18.254   0.283  11.503 -0.0067 -0.1096 -0.2657
14894W        W32418   3.779   9.493  14.390 -0.0041  0.3105  0.1887
14895W        W32419  13.263   0.792   1.564 -0.1619 -0.0247 -0.0647
14896W        W32420   3.540  12.058   3.779  0.3636 -0.0212 -0.0654
14897W        W32421  11.819  10.675   3.775  0.0576 -0.3306  0.1831
14898W        W32422  11.764   4.303  12.761  0.1145  0.2429 -0.0604
14899W        W32423  12.931  10.299  15.151  0.1157 -0.4052  0.2138
14900W        W32424   9.024  13.827  10.614 -0.2403  0.0441 -0.1002
14901W        W32425   0.567  16.669  12.721 -0.4091 -0.3022  0.0268
14902W        W32426  10.586   5.318   3.944  0.0183 -0.0898  0.1068
14903W        W32427  13.514   5.359   0.491  0.1519  0.2518  0.1246
14904W        W32428  14.490   5.808   0.758 -0.0722  0.2257 -0.2178
14905W        W32429   8.341   1.021   0.048 -0.0415 -0.1959  0.0227
14906W        W32430   6.907   7.596   5.516 -0.2330  0.2566  0.1408
14907W        W32431   8.403  16.532   2.328 -0.0988 -0.1752 -0.0916
14908W        W32432   1.397  14.696  11.918  0.2144 -0.1789  0.1100
14909W        W32433   3.802  11.782   2.403  0.0203 -0.1088  0.1856
14910W        W32434   1.179  13.931  13.014  0.2517 -0.3631  0.2615
14911W        W32435   1.198  10.297  14.360 -0.2217  0.0482 -0.1804
14912W        W32436   6.176   4.025   3.519 -0.0877  0.0798  0.1470
14913W        W32437   4.491  16.795  13.951  0.1648  0.1260 -0.4238
14914W        W32438   0.868   9.402  12.438 -0.2719 -0.1020 -0.1242
14915W        W32439  10.183   0.532   4.621  0.1289  0.0659 -0.1799
14916W        W32440  12.304   9.735   2.763 -0.0469  0.1933  0.0902
14917W        W32441  15.266   0.737   2.272 -0.1057  0.2744  0.0072
14918W        W32442   0.216  11.987   1.841 -0.3108  0.0548  0.0154
14919W        W32443   8.214   5.161  13.124 -0.2250  0.2292 -0.0665
14920W        W32444   8.416   8.222  14.583 -0.0929  0.0877  0.0243
14921W        W32445  12.018   5.584   4.863  0.1532 -0.2747  0.0736
14922W        W32446  16.103   7.366  14.402  0.3560 -0.1290 -0.0087
14923W        W32447  17.115  16.960   1.581 -0.0766 -0.1740 -0.0163
14924W        W32448  11.169  12.180  13.422 -0.2054  0.1204 -0.4229
14925W        W32449  16.361   0.240  12.214  0.1382  0.3961 -0.2647
14926W        W32450   6.928  16.382   0.620 -0.1453 -0.2497 -0.0536
14927W        W32451  11.305   5.943   4.085  0.0214  0.2102  0.1094
14928W        W32452  15.557  12.195   3.621 -0.0581  0.0729  0.4036
14929W        W32453   3.313  10.224  14.292  0.3331  0.0153  0.1267
14930W        W32454   6.761   8.388  14.956 -0.0325  0.1281  0.0674
14931W        W32455  16.567  11.233   1.684 -0.0404 -0.0267 -0.0098
14932W        W32456   9.974  13.173   0.293  0.1878 -0.0908 -0.1839
14933W        W32457  12.602   5.368   9.707  0.0714 -0.1330 -0.2387
14934W        W32458   5.827  11.426   0.252  0.0308 -0.0500  0.0035
14935W        W32459   0.444   1.174  13.370 -0.0727 -0.2707  0.5455
14936W        W32460   7.186   1.950   3.655 -0.1430 -0.1121 -0.1259
14937W        W32461  14.111  15.725  14.365  0.2675  0.4537  0.1234
14938W        W32462  14.422   3.646  12.370 -0.1371 -0.0249 -0.0693
14939W        W32463   3.925   8.179  14.091 -0.0175 -0.0474 -0.1306
14940W        W32464   4.245   3.686  11.572 -0.1701 -0.1344  0.1386
14941W        W32465   9.488  15.980   0.069 -0.0578 -0.0120 -0.1702
14942W        W32466  17.420   9.279   4.053  0.2373  0.2432 -0.1300
14943W        W32467  11.151  15.451   5.581  0.0348 -0.0292  0.1608
14944W        W32468  16.960   0.775   4.963 -0.4885 -0.0094 -0.0293
14945W        W32469   8.996   4.180   0.064 -0.2116 -0.1749 -0.1321
14946W        W32470  15.778  13.497   3.604  0.0184  0.0990 -0.2238
14947W        W32471  17.011  13.201  13.784 -0.0139  0.0473 -0.3616
14948W        W32472  16.990  13.653  11.567  0.0641  0.0097 -0.4564
14949W        W32473   8.336  16.078  15.379  0.2285  0.0216  0.0766
14950W        W32474   8.341   6.022  13.535  0.0705  0.2539  0.1805
14951W        W32475  16.362  14.051  11.861  0.0042  0.0452  0.0147
14952W        W32476   2.493  11.794  14.356  0.0055  0.2551  0.0703
14953W        W32477   0.751   5.167   4.301  0.1733 -0.2368  0.1231
14954W        W32478  14.323   5.692   0.299 -0.0413  0.0691 -0.1096
14955W        W32479   6.773   8.759   3.105 -0.1042  0.1265  0.2527
14956W        W32480   8.220   6.372  12.246  0.2341 -0.0456 -0.3177
14957W        W32481  10.605  16.108   2.463 -0.3567  0.2450  0.5416
14958W        W32482  11.693   0.445  11.789 -0.0165  0.0772  0.0425
14959W        W32483   9.204  13.428   2.730  0.0616 -0.1511 -0.0700
14960W        W32484  13.630  15.555  14.393 -0.4388 -0.1888  0.3270
14961W        W32485  17.047   8.894  13.362 -0.0835 -0.0243 -0.2820
14962W        W32486  12.913   1.286   1.173  0.2843 -0.1296  0.0045
14963W        W32487   5.605  12.262  15.598 -0.0456  0.2412 -0.1458
14964W        W32488  14.252   4.244   3.784  0.3731  0.1218  0.2350
14965W        W32489  15.030  17.859   1.895  0.1692 -0.0547  0.0713
14966W        W32490  11.508  17.103   1.070 -0.0999  0.0649 -0.1934
14967W        W32491  10.823  17.787  13.814  0.3826 -0.1784 -0.3191
14968W        W32492   5.775   7.502  11.370 -0.0315 -0.0899  0.3933
14969W        W32493   9.267   3.826  12.907  0.2644 -0.0432 -0.2384
14970W        W32494  11.827  14.276   4.470  0.1436  0.2979 -0.1180
14971W        W32495   0.615   6.301   1.302 -0.1678 -0.1548  0.0554
14972W        W32496  17.042  11.359   0.072  0.0161 -0.1272 -0.1501
14973W        W32497   6.685  14.974   1.389 -0.0438  0.6530 -0.1695
14974W        W32498   7.475   5.577   3.192  0.0745  0.0128 -0.0640
14975W        W32499   6.522   4.257  11.917  0.2797 -0.1304 -0.0145
14976W        W32500  14.633   7.579   2.371 -0.1978  0.0303 -0.1866
14977W        W32501   8.781  11.610  10.664  0.1463 -0.3528 -0.4194
14978W        W32502   2.201   0.371  12.109 -0.1079 -0.1274 -0.0851
14979W        W32503  13.911  12.061   2.460 -0.1114 -0.2529 -0.3564
14980W        W32504   6.472   6.147  14.809 -0.2532 -0.0479 -0.0528
14981W        W32505  17.698  15.498  15.381  0.1528 -0.3179  0.1011
14982W        W32506   5.789   9.798   1.105  0.0298 -0.2617  0.0184
14983W        W32507   0.076   7.434   2.313  0.2015  0.1038  0.1299
14984W        W32508  18.328  15.119   4.197 -0.2248  0.0701  0.0033
14985W        W32509  17.286   1.950  12.910  0.2090  0.0890 -0.1192
14986W        W32510   4.263  14.090   4.550  0.1540 -0.0208 -0.0570
14987W        W32511  13.083  14.151   2.591 -0.0434 -0.0865  0.2993
14988W        W32512   7.494   0.648   3.992 -0.1782  0.2016  0.0847
14989W        W32513   3.554  11.107  13.454 -0.1327 -0.0140 -0.0519
14990W        W32514  16.082   9.888  13.544  0.2139  0.3723 -0.1178
14991W        W32515  17.557   4.929   3.717  0.2744  0.2136 -0.0218
14992W        W32516  16.340   3.906  11.155  0.1516  0.4468 -0.3262
14993W        W32517   3.213   7.969   0.451  0.0909  0.1042 -0.0565
14994W        W32518   8.757   1.740   1.886 -0.0596  0.3607  0.1441
14995W        W32519   2.031   4.129  11.818  0.0669 -0.1249  0.1379
14996W        W32520  15.241  12.539   3.739  0.0598 -0.2855 -0.0025
14997W        W32521   6.007   2.630   2.353  0.3021  0.1810  0.0799
14998W        W32522   5.011  15.280  11.759  0.1029 -0.2535 -0.5102
14999W        W32523   3.047  13.026   3.697  0.1504  0.3121 -0.2201
15000W        W32524  12.211  12.545   3.896 -0.2328 -0.0252  0.0687
15001W        W32525   8.436   6.657  13.943 -0.0636  0.0691 -0.0155
15002W        W32526  13.152  13.629  13.796  0.0353  0.2425  0.0777
15003W        W32527  13.999  15.195   0.086  0.0407 -0.0275 -0.2831
15004W        W32528   8.231   7.053  11.520 -0.1238 -0.2085  0.3727
15005W        W32529  13.952   5.630   1.477  0.3968  0.0158  0.1977
15006W        W32530   6.805   2.232  15.715  0.0703  0.1820 -0.0339
15007W        W32531   0.179  17.323   4.579 -0.2097 -0.3642 -0.1911
15008W        W32532   1.980   4.613  15.194 -0.0644 -0.0013 -0.3995
15009W        W32533  13.712   0.685  13.715  0.2859 -0.0424  0.2382
15010W        W32534  10.031  11.929  14.542 -0.2976 -0.2462 -0.1617
15011W        W32535  13.926   9.593   0.947  0.0672  0.1029  0.0896
15012W        W32536   9.114   2.041   1.968 -0.0320  0.1515  0.1597
15013W        W32537   1.653  12.809   3.553  0.0173 -0.1950  0.2140
15014W        W32538   6.777   8.443  11.425  0.1156 -0.0550  0.2234
15015W        W32539  12.013   0.038  11.132 -0.1521  0.3103  0.1009
15016W        W32540   1.149  18.031   5.911 -0.1334 -0.1484  0.0375
15017W        W32541   3.444  11.241  15.559 -0.0665 -0.0399 -0.1771
15018W        W32542   3.259   7.292  11.416 -0.2481 -0.4173 -0.5132
15019W        W32543  16.423  15.928   2.744  0.1030  0.0473 -0.3762
15020W        W32544  17.025   4.647  15.623  0.0796 -0.3645 -0.0831
15021W        W32545  11.424   6.952  11.742 -0.0673 -0.0984 -0.2951
15022W        W32546   4.062  11.863   0.631 -0.0176  0.1700 -0.0076
15023W        W32547   5.356  14.007   4.864 -0.0685 -0.0591 -0.3747
15024W        W32548   4.321  15.870  15.287  0.1647 -0.0522  0.0752
15025W        W32549  12.807   9.439  13.341  0.2601  0.1151 -0.2625
15026W        W32550   9.053   3.336   3.017 -0.1465 -0.0994 -0.0464
15027W        W32551   9.071   4.671   3.005  0.2289 -0.1821 -0.0642
15028W        W32552  14.235  15.233   1.651  0.0155 -0.0492  0.2916
15029W        W32553   4.119   6.328   0.905 -0.0234 -0.1729  0.3608
15030W        W32554  17.924   0.479   1.190 -0.1042 -0.0902 -0.0324
15031W        W32555  10.075   9.795   3.335 -0.2174 -0.1162 -0.1429
15032W        W32556   4.543   8.732  13.837  0.2033 -0.0063 -0.0435
15033W        W32557  16.918   6.865  13.458  0.4080 -0.0067 -0.3316
15034W        W32558   2.181   8.448   0.162  0.2699  0.0441  0.0098
15035W        W32559   5.399  11.690  14.252 -0.1905 -0.2372  0.0794
15036W        W32560   8.673   8.779   2.676  0.0015  0.0592 -0.2472
15037W        W32561   8.259   5.107   4.135 -0.2043 -0.0182 -0.1776
15038W        W32562   5.640  15.850  12.461 -0.0080 -0.1804 -0.1653
15039W        W32563  10.317  12.725  14.864 -0.1287  0.2118  0.2479
15040W        W32564   2.661  10.937   0.146 -0.0859  0.1172 -0.1513
15041W        W32565  17.918   8.598   0.212  0.1062  0.1768 -0.1551
15042W        W32566  15.139   3.887  15.489 -0.1716  0.0913 -0.0962
15043W        W32567   3.197   1.654   3.785  0.1838  0.0143  0.0246
15044W        W32568   0.924  10.440   4.818  0.3919  0.0405  0.1746
15045W        W32569  15.208   2.728  14.048  0.1654  0.1970  0.3000
15046W        W32570   9.208   3.360   2.492 -0.2628  0.4632  0.0015
15047W        W32571   1.720  10.562  14.337 -0.1356  0.0025 -0.0899
15048W        W32572   5.170  17.113   1.719  0.3198  0.2624  0.1969
15049W        W32573  11.595  15.739   0.271 -0.0969  0.2547  0.2031
15050W        W32574  13.211   2.540  12.382 -0.0967  0.0824 -0.0244
15051W        W32575   0.546  10.790  12.657 -0.0422  0.1162  0.0952
15052W        W32576   2.799   1.601   3.490  0.0282 -0.1406  0.0855
15053W        W32577   9.795   6.396   2.804 -0.0161 -0.3421  0.1016
15054W        W32578  10.193   9.619  13.255  0.0926  0.0548 -0.4289
15055W        W32579  10.082   6.998   3.406 -0.3674 -0.1320 -0.2225
15056W        W32580  17.071  10.947   2.940 -0.1138 -0.0401  0.1001
15057W        W32581   4.077   2.341  11.559  0.0951  0.0215  0.2653
15058W        W32582  10.852  16.548  11.541 -0.0102 -0.0052 -0.1817
15059W        W32583   9.070   2.045  11.728 -0.1877 -0.2572 -0.1383
15060W        W32584  16.626   8.734   3.809 -0.0468 -0.0299 -0.0678
15061W        W32585  18.213  11.811  11.566 -0.0987 -0.1624 -0.3023
15062W        W32586  18.064  15.937  14.533  0.2530  0.0240 -0.0239
15063W        W32587   0.360  14.286   2.256 -0.1162  0.0682  0.0439
15064W        W32588   3.359  12.774  14.668 -0.1241  0.1716  0.1478
15065W        W32589   7.553   7.908  11.250 -0.2550  0.0396  0.0390
15066W        W32590   4.006  10.764   2.872 -0.2307 -0.0693 -0.2860
15067W        W32591   2.995   8.178   3.026 -0.2736  0.0001  0.0535
15068W        W32592  12.485  11.647  10.487  0.2747  0.0996 -0.1315
15069W        W32593   4.868   5.024  13.985  0.0763  0.3496 -0.1395
15070W        W32594  15.914  13.817   0.226 -0.1052  0.1914  0.2322
15071W        W32595   0.458  12.252  11.002  0.1502  0.0726  0.1715
15072W        W32596  11.785  15.629  12.756 -0.0916 -0.4511  0.3392
15073W        W32597  16.166   0.091   5.120  0.0165 -0.3722  0.4457
15074W        W32598   6.545  16.191   1.341 -0.0197 -0.0693 -0.3439
15075W        W32599   9.514   8.230  12.182  0.3162 -0.0437 -0.2618
15076W        W32600   3.302   5.299   3.349  0.1288  0.0730  0.3170
15077W        W32601  14.618  12.243  12.413  0.0976 -0.0497 -0.0067
15078W        W32602   6.938   9.938  12.417 -0.1514  0.0625 -0.1933
15079W        W32603  13.204   4.937  12.226  0.1368  0.3307  0.3066
15080W        W32604  16.186  15.067   1.055  0.1821  0.0706 -0.1262
15081W        W32605   6.362  11.270   1.524 -0.2406  0.1956  0.2018
15082W        W32606  10.244   4.030   3.102  0.0606  0.0463 -0.0585
15083W        W32607   4.544   4.227  10.876  0.0429  0.2048 -0.1306
15084W        W32608   5.672   3.973  15.640  0.1468  0.3101  0.1881
15085W        W32609   1.156   0.429  14.758  0.1454 -0.2185  0.2693
15086W        W32610  18.330   0.553   5.168 -0.1469 -0.2444  0.0717
15087W        W32611   8.700   5.435  14.475 -0.1150 -0.0035 -0.2451
15088W        W32612  14.102  18.123   1.634 -0.1452  0.0811  0.0766
15089W        W32613   0.688   4.897   1.633 -0.1682 -0.0631  0.1210
15090W        W32614  18.279   2.025   1.075 -0.1070 -0.1737 -0.3382
15091W        W32615  14.581  14.749   2.682  0.0355  0.0557 -0.0542
15092W        W32616  12.316   3.041   2.543  0.3132  0.3469 -0.1075
15093W        W32617  12.615  14.698   5.496  0.2035 -0.1678 -0.2280
15094W        W32618   3.253   8.766   3.744  0.0241 -0.1543  0.0788
15095W        W32619   2.908  18.140   4.964  0.1126  0.1849  0.0637
15096W        W32620   1.150   2.197  13.880 -0.0389 -0.2380 -0.2295
15097W        W32621   4.426   3.598   0.463 -0.0095 -0.2990 -0.1835
15098W        W32622   9.019   7.826   2.615  0.3817 -0.2114  0.0249
15099W        W32623   3.987   0.426   1.875  0.2449  0.1776 -0.0493
15100W        W32624   0.412   8.153  14.557 -0.1083  0.0914  0.1049
15101W        W32625   0.048   1.478  13.265  0.0449 -0.0459 -0.3226
15102W        W32626   1.662   6.108   0.611 -0.0292 -0.0723  0.2081
15103W        W32627  11.123  15.602   0.365 -0.0774 -0.2833 -0.1202
15104W        W32628  15.777  17.088   3.805 -0.1110  0.1920 -0.2041
15105W        W32629   2.225   0.296   1.384 -0.2313 -0.1482  0.0302
15106W        W32630   9.366   6.364   4.379  0.0220  0.0839 -0.1475
15107W        W32631  12.661   5.953  11.651  0.0451 -0.1877  0.1357
15108W        W32632   0.889   3.826   2.402 -0.0767  0.0691 -0.0224
15109W        W32633   7.734  12.192   4.787 -0.1011  0.2564  0.0728
15110W        W32634   8.789   6.622   5.085  0.1016 -0.0676 -0.2241
15111W        W32635   2.732   8.456  12.463 -0.1733  0.0873  0.1048
15112W        W32636   0.474  17.942  15.022 -0.0495  0.0525 -0.0902
15113W        W32637  12.432  16.233  13.727 -0.1292 -0.2078  0.2261
15114W        W32638  10.052  13.157   3.508  0.0542 -0.0455  0.2328
15115W        W32639  11.129  11.598  10.889  0.2263 -0.1982 -0.2189
15116W        W32640   0.218   6.741  10.526  0.0590 -0.3121  0.1197
15117W        W32641   0.186  12.898   1.507  0.0718 -0.0912 -0.1142
15118W        W32642   4.081  16.944   0.781  0.0602 -0.1548  0.2676
15119W        W32643   4.197  16.091   4.313  0.2698  0.0484 -0.1111
15120W        W32644  17.198   1.028  15.339  0.0659  0.1555 -0.3022
15121W        W32645  14.656   7.192   0.468  0.2935 -0.1727  0.0689
15122W        W32646  14.767   7.166   4.872  0.1945  0.0794 -0.1923
15123W        W32647   8.372   0.091  14.207  0.0421  0.0968 -0.0323
15124W        W32648   6.187   0.199   0.881  0.0961  0.1334 -0.1695
15125W        W32649  16.330  18.139  13.308 -0.1933 -0.2827  0.1587
15126W        W32650  14.640  17.563   2.823 -0.3363  0.0732  0.1266
15127W        W32651   9.419   4.438   4.868  0.5310  0.1487 -0.1394
15128W        W32652   2.437   3.584   1.066 -0.1693  0.2080  0.0307
15129W        W32653  13.209  17.051  14.754  0.1408 -0.2157  0.3616
15130W        W32654   9.754   4.892   2.808  0.0865 -0.1730  0.0988
15131W        W32655   0.099  13.406   3.347 -0.1640 -0.3364  0.0601
15132W        W32656  17.359   7.223   1.449  0.2066  0.1345 -0.1113
15133W        W32657   0.777   7.478   0.513 -0.0649 -0.3773 -0.0862
15134W        W32658   6.368   9.164  11.300 -0.1964 -0.0864  0.4268
15135W        W32659   5.689  10.879   3.137  0.1070  0.0299 -0.0852
15136W        W32660   9.362  13.722   0.316 -0.1902  0.2919  0.1054
15137W        W32661   5.924   7.022  13.110  0.3853  0.2829 -0.1123
15138W        W32662  10.245   7.240  13.034  0.0742  0.1823  0.3164
15139W        W32663   3.885  14.563   1.093  0.0075  0.0124 -0.0809
15140W        W32664   5.726   2.947   1.494 -0.0306  0.2196 -0.1749
15141W        W32665   0.765   8.575   2.361 -0.2745 -0.1561  0.0680
15142W        W32666  10.074   7.023  14.529 -0.2955 -0.3148 -0.3591
15143W        W32667  15.814   2.746  10.375 -0.0713 -0.1145  0.2229
15144W        W32668  12.892   3.182   4.004 -0.0805 -0.0381 -0.0973
15145W        W32669   8.098   2.300   0.143  0.0272  0.0343  0.1609
15146W        W32670  13.027  17.936  11.900  0.3296 -0.0990 -0.1547
15147W        W32671   2.679   5.069  15.198  0.2308  0.0458 -0.2328
15148W        W32672  12.314   9.734   0.516 -0.4533 -0.2495 -0.1545
15149W        W32673  14.565   7.270   1.506 -0.2361 -0.1074 -0.1407
15150W        W32674   4.363  16.933   4.303  0.0636  0.0970  0.2011
15151W        W32675   8.539  11.494   2.084  0.1261  0.3489 -0.1257
15152W        W32676  10.681  13.999   1.352 -0.0043 -0.5297  0.0217
15153W        W32677  16.023   7.151  15.638  0.0396  0.2553  0.1294
15154W        W32678   7.614   3.576  12.174  0.4831  0.1905  0.2893
15155W        W32679  12.694   5.875  12.682 -0.2357 -0.1718 -0.0695
15156W        W32680  14.173  13.630  12.502 -0.0401  0.0181  0.0482
15157W        W32681   0.190   5.365   2.042  0.1422  0.1354  0.0582
15158W        W32682   5.271   2.614   1.158  0.1145 -0.0312 -0.1128
15159W        W32683  10.462  15.770   1.392  0.2708  0.2713 -0.0292
15160W        W32684  17.874   4.272   2.118 -0.0703  0.1104 -0.0776
15161W        W32685  11.795  14.193  14.939  0.2438 -0.1878 -0.0398
15162W        W32686   1.369   1.889  14.624 -0.2623  0.1198  0.0809
15163W        W32687   7.944  18.239   2.359  0.0074 -0.1159  0.0247
15164W        W32688   8.148  15.856   3.041  0.0215  0.1755 -0.1148
15165W        W32689   8.676  11.019   3.530 -0.0529 -0.0975 -0.3560
15166W        W32690   3.025  10.272   3.533 -0.2069  0.0239  0.4031
15167W        W32691  11.342   7.301  14.120 -0.0885 -0.2863  0.0609
15168W        W32692  12.994  14.504  14.966 -0.0235 -0.2154  0.1579
15169W        W32693   6.740   1.684   1.695  0.0848 -0.0334  0.2162
15170W        W32694   3.030   5.521  13.972  0.0591  0.1339 -0.1164
15171W        W32695   1.594   3.741  13.524 -0.3673 -0.0761 -0.2484
15172W        W32696   3.145   5.758  14.512 -0.2846 -0.2099 -0.1026
15173W        W32697  14.495   4.235  15.558 -0.0689 -0.0393  0.0386
15174W        W32698   7.145   3.977   1.942  0.0581 -0.2708 -0.1011
15175W        W32699   3.609   4.820  13.487 -0.2493 -0.1466  0.1872
15176W        W32700   5.164   3.536  13.144 -0.1065 -0.1863  0.1028
15177W        W32701  14.306  14.701   0.912 -0.1072  0.1263 -0.0902
15178W        W32702   4.850   0.964  12.741  0.3569 -0.0749  0.2488
15179W        W32703  16.251  10.290  10.898 -0.3926 -0.2384 -0.1914
15180W        W32704   1.579  14.114   1.910 -0.1230 -0.0091 -0.1572
15181W        W32705   0.488   7.786   2.375  0.0176  0.0351  0.1204
15182W        W32706   0.841   8.814  12.475 -0.3245  0.0258  0.0898
15183W        W32707  12.316  11.802   1.949 -0.1489  0.1285  0.0054
15184W        W32708  15.650   0.901   1.771  0.1437  0.1406 -0.0505
15185W        W32709   6.334   5.834  14.398 -0.3143  0.1685 -0.0259
15186W        W32710   9.856   8.961  12.336 -0.3163  0.1240 -0.0694
15187W        W32711   6.736   4.345   1.888 -0.2080 -0.0662 -0.1517
15188W        W32712  14.544  10.918   4.189  0.5044 -0.1988  0.2235
15189W        W32713  16.693  18.023   2.303  0.2988 -0.0325  0.1356
15190W        W32714   0.079   5.405  11.419 -0.0807  0.0462 -0.1192
15191W        W32715   7.688  15.420  11.248  0.1103  0.1707  0.1708
15192W        W32716  13.986   9.786  13.276  0.2446  0.1436 -0.1760
15193W        W32717  18.338   7.517  13.883  0.0114 -0.2606 -0.0684
15194W        W32718  15.244   9.114   2.577 -0.1814 -0.0872 -0.1983
15195W        W32719   3.165   4.211  11.048 -0.0639  0.2029 -0.2602
15196W        W32720   8.639  12.830   4.045 -0.3344  0.2756 -0.0175
15197W        W32721  16.371   1.155  15.334  0.1010 -0.0939 -0.0222
15198W        W32722   9.445   8.416  10.976 -0.1705  0.0762  0.3683
15199W        W32723   7.386  12.382  12.299 -0.0221 -0.0257 -0.0072
15200W        W32724   3.036   4.035  13.915  0.1451 -0.3854  0.0711
15201W        W32725  18.281   0.924  12.678 -0.0880 -0.1910  0.2050
15202W        W32726   5.827  17.530  14.391  0.1382 -0.1035  0.2690
15203W        W32727   5.650  12.716  14.747 -0.2195 -0.1314 -0.0615
15204W        W32728  10.904   7.493   2.462  0.1626 -0.2009  0.0534
15205W        W32729  13.690   7.876  13.042  0.2083  0.1595  0.1806
15206W        W32730   9.693  17.654   4.444  0.1792  0.2136 -0.1113
15207W        W32731  15.885  15.961   2.569 -0.4586  0.1171 -0.0111
15208W        W32732  16.572   3.460  12.068  0.1458 -0.0639  0.1063
15209W        W32733  16.619  14.755  11.204  0.2940  0.1724  0.1096
15210W        W32734  17.803  17.558   4.673  0.0963  0.2637  0.0098
15211W        W32735  13.908  10.910   1.395  0.1308  0.1043  0.3095
15212W        W32736  14.832   3.544   1.935 -0.0681  0.0890  0.3541
15213W        W32737  11.830   9.695   2.443 -0.1600  0.0395 -0.2188
15214W        W32738  13.509  17.157  11.266  0.0013  0.1703  0.2390
15215W        W32739   1.893   6.563   5.469 -0.2030 -0.0187  0.1090
15216W        W32740  16.684   8.417   3.234  0.1727 -0.0244 -0.1024
15217W        W32741   5.315   1.798  13.348 -0.0709 -0.1618  0.1339
15218W        W32742  17.930  13.145  13.820 -0.1332  0.0353  0.0705
15219W        W32743   1.049  11.736   4.246  0.1908  0.0818  0.0410
15220W        W32744   6.625   6.665   2.066  0.0363  0.2530 -0.1683
15221W        W32745  12.241   7.109   4.235 -0.1395 -0.0824  0.1620
15222W        W32746  15.635  15.521  11.626  0.0828 -0.1654 -0.2551
15223W        W32747  15.833   4.400   1.632  0.0353 -0.0959 -0.2027
15224W        W32748   8.623   9.286  12.928 -0.2668 -0.0581 -0.1204
15225W        W32749  18.140   7.373  12.692 -0.3068  0.1067  0.2566
15226W        W32750  11.766  13.300   2.571  0.1757  0.1629 -0.1520
15227W        W32751  12.491  12.829   1.966  0.0294  0.2536  0.0796
15228W        W32752  17.638  12.296  12.329 -0.0862 -0.1540 -0.0913
15229W        W32753   8.471  15.009  13.227  0.2429  0.0956 -0.1563
15230W        W32754   4.583   4.889   1.959 -0.0997 -0.0851 -0.3571
15231W        W32755  16.046  15.325  11.841 -0.2205 -0.2914 -0.0011
15232W        W32756   8.074  16.498  12.034 -0.2567 -0.1203 -0.2254
15233W        W32757  15.556  15.056  11.840 -0.1179  0.0469 -0.2976
15234W        W32758  17.054   9.068  12.491  0.1254  0.1218 -0.1606
15235W        W32759  12.690  13.806   1.088  0.0665 -0.2672  0.4953
15236W        W32760  12.347   0.665  13.051 -0.1457 -0.1084 -0.0817
15237W        W32761   3.759   6.683   2.586 -0.2123  0.0451 -0.2458
15238W        W32762   6.062  11.189   0.702  0.1250  0.1689 -0.5171
15239W        W32763   0.827   8.525  12.913  0.1275  0.0927 -0.0800
15240W        W32764  11.967  12.532   2.632  0.3455 -0.1979  0.0817
15241W        W32765   5.689   5.557  13.742 -0.1017  0.1502 -0.1543
15242W        W32766   9.959  15.136  14.544  0.2382  0.1864  0.1019
15243W        W32767   7.373   3.520   4.800  0.0185 -0.0550 -0.0994
15244W        W32768   6.941  11.868  11.796  0.0579 -0.3424 -0.0054
15245W        W32769   2.991  17.829  10.339 -0.1382  0.0773  0.3189
15246W        W32770   4.373  16.208  12.446  0.3132  0.0494 -0.2442
15247W        W32771  10.234  15.231  15.425 -0.4734 -0.1514 -0.0137
15248W        W32772   4.563   7.494  10.888 -0.1472 -0.0841 -0.1448
15249W        W32773  17.739  12.777   1.502 -0.0340 -0.0632 -0.1367
15250W        W32774  10.768   4.878   3.054 -0.2349 -0.3846  0.2822
15251W        W32775  14.736  11.078  12.528  0.0177 -0.2343 -0.1299
15252W        W32776   0.202   9.163   3.837  0.2298  0.0880 -0.4131
15253W        W32777  13.559  13.287  11.766 -0.1752  0.0444 -0.0166
15254W        W32778  12.676  12.016   1.529  0.1594 -0.0077 -0.0558
15255W        W32779   2.285   1.494  11.866 -0.0532  0.0601  0.1339
15256W        W32780   9.893   8.928  13.944 -0.2194  0.2079 -0.0513
15257W        W32781   0.605   6.021  10.900 -0.2733 -0.3805  0.2103
15258W        W32782   4.942  10.684   0.412  0.3189  0.0983 -0.0163
15259W        W32783   9.686  18.317   4.968  0.0224 -0.0293  0.2454
15260W        W32784   5.795   4.997   4.434 -0.0959 -0.0270 -0.1855
15261W        W32785   2.554  11.210  14.360 -0.2512  0.1499 -0.0128
15262W        W32786   7.938   2.360  11.889  0.2240 -0.0554  0.2431
15263W        W32787   3.057   4.142  11.837  0.2363  0.2397  0.0004
15264W        W32788   7.066  16.032  11.867 -0.2512  0.0499  0.1004
15265W        W32789   8.902   3.518   4.483  0.0928  0.2055 -0.0419
15266W        W32790   3.392  16.628   5.315  0.0975 -0.2281  0.1043
15267W        W32791   3.589  15.132  11.862 -0.3503 -0.1728 -0.2692
15268W        W32792   2.156   0.428  15.245  0.1069 -0.3264 -0.2948
15269W        W32793   8.669  10.678   1.344  0.0065 -0.2950 -0.2019
15270W        W32794  10.093  10.162   2.109 -0.2895 -0.1025  0.1202
15271W        W32795  13.546  18.032   0.212 -0.1456  0.1041 -0.3045
15272W        W32796   5.728  11.611  12.969  0.4204 -0.1469  0.2447
15273W        W32797   3.215   6.679  12.572 -0.2325  0.0790 -0.0372
15274W        W32798   7.889  13.777  10.714  0.2358 -0.0268  0.3123
15275W        W32799   2.777   9.067   3.034  0.0591 -0.1038  0.0338
15276W        W32800  13.263   1.774   4.688  0.2305  0.3032  0.3012
15277W        W32801  12.060  18.032  13.534  0.2128  0.1567  0.1740
15278W        W32802  15.435  13.996   0.985 -0.1126 -0.1781  0.0412
15279W        W32803  10.509   4.224  15.603 -0.1819 -0.5114  0.3439
15280W        W32804  10.382  10.631  15.054 -0.1317 -0.0396  0.1909
15281W        W32805  12.961   2.168  14.830  0.2786 -0.0746  0.3396
15282W        W32806   4.240   6.891   3.420  0.1787 -0.0577 -0.1050
15283W        W32807   4.361   1.604   2.848 -0.3620  0.0538 -0.0889
15284W        W32808   7.891   2.181   2.656 -0.3586 -0.1310 -0.1023
15285W        W32809   6.584   9.243   0.695  0.1265  0.0996 -0.0546
15286W        W32810   1.688  10.929   2.145  0.2227 -0.3302  0.1252
15287W        W32811   9.238  17.892   2.617 -0.1014 -0.2899 -0.0738
15288W        W32812   2.630  14.393  15.299 -0.0942  0.0458 -0.0328
15289W        W32813   8.700  12.838   4.579  0.4924  0.1329 -0.1205
15290W        W32814   3.298  16.035   0.145 -0.0769 -0.1172  0.0249
15291W        W32815   2.713  16.465   4.837 -0.2006  0.0214  0.1831
15292W        W32816  13.845  13.029  14.945  0.0246  0.1323 -0.1594
15293W        W32817  14.428  13.025  12.124 -0.1795  0.3773 -0.2510
15294W        W32818  15.584   5.496   3.261  0.0943 -0.1979  0.1336
15295W        W32819  11.147  10.213  15.624 -0.0798 -0.0627  0.1812
15296W        W32820   6.519  17.261   4.565  0.0372 -0.0701 -0.0043
15297W        W32821   3.119  16.061   3.374 -0.1564 -0.1219 -0.2772
15298W        W32822   2.817  14.212   0.877  0.2080 -0.0614  0.1964
15299W        W32823   3.321  14.044   3.756  0.4903 -0.0677  0.0289
15300W        W32824   8.425   7.834   4.060  0.0065 -0.1502  0.0084
15301W        W32825   1.272  13.949  13.527 -0.0084  0.0470 -0.0211
15302W        W32826  17.474  18.447   0.374 -0.1415  0.2126 -0.0390
15303W        W32827  12.576  13.889  13.820 -0.2565 -0.0167 -0.2349
15304W        W32828  14.906  16.952  13.499  0.0098  0.1028  0.2456
15305W        W32829   1.231  11.115   1.939 -0.1074  0.3524  0.1586
15306W        W32830  17.513  14.967   3.946  0.2806  0.1360 -0.2272
15307W        W32831   1.692  13.152  13.848  0.0127 -0.1851 -0.0421
15308W        W32832   4.416   6.998  10.773 -0.0751 -0.1577 -0.0504
15309W        W32833   0.110   9.470  14.177  0.0957  0.2897  0.0314
15310W        W32834  15.574   4.356  11.970 -0.0586 -0.1269  0.5148
15311W        W32835   3.719  15.730  11.086 -0.0382 -0.1948  0.1383
15312W        W32836   0.193   6.391  10.955  0.0828 -0.0587  0.0576
15313W        W32837   5.566  12.097   0.899  0.0367 -0.0431  0.1734
15314W        W32838   9.569   4.721  15.691 -0.1428  0.0824 -0.0021
15315W        W32839  16.640   9.036   0.465  0.0422 -0.0504 -0.2820
15316W        W32840   3.861  16.745   1.174  0.0955  0.2596  0.3109
15317W        W32841   7.926  13.996  14.548  0.2142 -0.0431  0.1076
15318W        W32842   9.987  17.506   2.180 -0.2502 -0.0975 -0.0022
15319W        W32843  16.647   6.521   5.409 -0.0089 -0.0644  0.3627
15320W        W32844   5.024   3.886   4.162  0.1691 -0.1812  0.4017
15321W        W32845   2.384   6.894  10.810  0.0792 -0.1524 -0.2031
15322W        W32846   9.647   6.751  14.608  0.0083 -0.2265 -0.4819
15323W        W32847   6.517  17.140   1.135  0.1176 -0.4465 -0.2737
15324W        W32848  12.469  13.539   1.447 -0.0082 -0.1294  0.0107
15325W        W32849   7.181  10.605   3.414 -0.3569  0.1284  0.3424
15326W        W32850   2.283   2.209   4.298  0.1359 -0.0546  0.2840
15327W        W32851  14.961  12.418   0.414  0.0957 -0.0266  0.2932
15328W        W32852  11.343   2.401  15.470 -0.1979 -0.1776  0.2090
15329W        W32853   4.172   3.709   4.417  0.1184 -0.0106 -0.2202
15330W        W32854   5.160   7.492  12.963  0.2539  0.1407 -0.1096
15331W        W32855   5.834   2.908   2.835  0.0832 -0.4287  0.0658
15332W        W32856   3.760  11.479  12.854  0.1406  0.1565  0.5313
15333W        W32857   8.992   8.571  12.338  0.1459 -0.0987 -0.1513
15334W        W32858  10.554   1.476   2.953 -0.1258  0.1082 -0.4822
15335W        W32859   8.941   2.049  12.936  0.0183  0.0385 -0.1299
15336W        W32860  14.251  13.315   0.854 -0.0119 -0.0626 -0.1569
15337W        W32861  13.606  15.786  12.925 -0.2669 -0.1431 -0.1873
15338W        W32862  15.149   1.721  12.854  0.2201  0.0240 -0.1278
15339W        W32863  16.362  11.525  15.531  0.5327 -0.3081  0.2650
15340W        W32864  14.480   7.224   2.025  0.0456 -0.3624  0.2904
15341W        W32865  17.218   1.713   4.200  0.1573  0.0566 -0.0055
15342W        W32866   9.220  13.639  13.268 -0.1034  0.0302 -0.3538
15343W        W32867   8.363   2.196  13.020 -0.0356 -0.0804  0.1048
15344W        W32868  13.394   4.948  13.134  0.3095 -0.0449 -0.4014
15345W        W32869   5.431   8.811  11.751 -0.2375  0.0280  0.0928
15346W        W32870   2.975  16.464  13.564 -0.2496  0.1541  0.0203
15347W        W32871  17.876  12.807   0.947  0.1574 -0.1633  0.5195
15348W        W32872   6.738   6.969   9.729  0.0959 -0.2432 -0.0215
15349W        W32873   6.165  15.751   1.883 -0.2098 -0.1397  0.1070
15350W        W32874  14.229  16.149  14.715 -0.0127 -0.2783 -0.1898
15351W        W32875   8.821  13.188   2.551  0.2262 -0.0301  0.2318
15352W        W32876   0.020  13.560  12.234  0.2805  0.0138  0.2217
15353W        W32877  18.358   4.374   0.450  0.0118  0.0911  0.3235
15354W        W32878  17.216   0.202  12.707 -0.1150 -0.3722  0.1989
15355W        W32879  16.401   0.012  15.693 -0.1835  0.1015 -0.1486
15356W        W32880   5.964   3.629  13.102  0.1693 -0.4651 -0.1080
15357W        W32881   0.983  17.849  14.831 -0.1003 -0.3459  0.2697
15358W        W32882   9.179  17.814  15.678  0.0550  0.1602 -0.0063
15359W        W32883  12.291   1.203   1.265  0.2796  0.0781 -0.1479
15360W        W32884  16.608  15.558   0.369 -0.3697  0.1002 -0.1828
15361W        W32885  17.552  16.423   0.034 -0.0990 -0.1137 -0.0108
15362W        W32886  11.584   0.896  14.217  0.0313  0.1527 -0.0922
15363W        W32887  14.263   2.244  11.009 -0.0106 -0.2595 -0.3505
15364W        W32888  15.860   6.828  14.257  0.1664 -0.0661 -0.3251
15365W        W32889   5.781   5.758  13.313 -0.1250  0.1902  0.1347
15366W        W32890  16.369   0.054   4.635  0.2331  0.0668  0.3039
15367W        W32891   4.998   3.603  13.627 -0.2553  0.0261  0.1827
15368W        W32892  15.062   3.930  13.165 -0.4134 -0.3706  0.0453
15369W        W32893   2.069  16.413   2.469 -0.0568  0.0565  0.1168
15370W        W32894  16.843  14.952   1.005 -0.1563  0.0175 -0.1150
15371W        W32895  17.474   9.129   2.035 -0.0705 -0.1319  0.2080
15372W        W32896   4.627  12.477   0.793  0.1220  0.1279  0.0620
15373W        W32897   7.866   7.585  14.790  0.0521  0.1963 -0.1799
15374W        W32898  16.956   6.207  11.076 -0.2120  0.5368 -0.3779
15375W        W32899  13.015   9.855   2.582  0.1136  0.2951  0.1702
15376W        W32900   5.472  16.038  11.659 -0.0854 -0.0851 -0.1813
15377W        W32901   4.806   0.757  13.882  0.0260 -0.0979 -0.4192
15378W        W32902   6.786  16.596  13.573 -0.2186 -0.3135 -0.3702
15379W        W32903  10.745  11.402  13.710 -0.0933  0.0263  0.2065
15380W        W32904  14.951   0.028   0.517 -0.1919  0.0073 -0.0017
15381W        W32905   1.358   7.440   2.641  0.1026 -0.3541 -0.2087
15382W        W32906   2.788   9.574   2.277  0.0253 -0.0739  0.2596
15383W        W32907   7.016   3.004   5.576  0.0205  0.1743  0.1449
15384W        W32908   2.010  12.515   4.368 -0.0623  0.0463  0.0612
15385W        W32909  11.179  13.121  11.971 -0.1516 -0.1699  0.0152
15386W        W32910   0.614   0.717   1.172 -0.0291 -0.0880 -0.2460
15387W        W32911   6.390  13.492   4.406 -0.2271  0.0256 -0.1965
15388W        W32912   6.406   1.278  14.956  0.1297 -0.0653 -0.0720
15389W        W32913   2.724   6.884  13.944  0.0107 -0.4747 -0.1592
15390W        W32914   4.277  15.407   3.111  0.0306 -0.1151  0.3636
15391W        W32915   8.785   2.600  15.246 -0.0265 -0.0370  0.0232
15392W        W32916  14.027  13.021   2.412 -0.0276  0.0896  0.1786
15393W        W32917  15.192   0.217  13.850  0.1015 -0.1758 -0.1722
15394W        W32918   7.732   2.121  11.045 -0.4395  0.0455  0.1942
15395W        W32919   3.077   8.283  15.710 -0.3179  0.4218  0.0531
15396W        W32920   9.058   3.406   1.443  0.3593  0.0671  0.1933
15397W        W32921  17.281   7.060   0.405 -0.1199 -0.5245 -0.2933
15398W        W32922  10.676  11.955  11.579  0.1376  0.0837  0.1769
15399W        W32923  14.391   9.629  14.235  0.0159  0.2270  0.2413
15400W        W32924   1.412   7.065  11.295  0.0802  0.4175  0.2409
15401W        W32925  14.836  17.098   2.927 -0.1815  0.1470  0.3605
15402W        W32926  13.496  15.826  14.785  0.2224 -0.2477  0.1608
15403W        W32927  10.773   1.150   0.295  0.0306  0.2002 -0.0635
15404W        W32928  18.442  16.782  14.008 -0.2252  0.0893  0.4010
15405W        W32929  10.404   8.485  10.995 -0.1186  0.2368 -0.3559
15406W        W32930  17.012   9.288  12.926  0.0313  0.1407  0.1476
15407W        W32931   0.128   5.011   3.617  0.0695 -0.3237  0.0108
15408W        W32932   9.385  11.267   0.274  0.0713 -0.0861 -0.1522
15409W        W32933  17.461  14.478  11.456  0.0100  0.0658 -0.4553
15410W        W32934  10.309   3.448  12.044  0.1853 -0.0528 -0.0398
15411W        W32935   5.869  10.542  13.604 -0.0759  0.2082 -0.1400
15412W        W32936  11.076   7.905   2.721  0.0227 -0.0391 -0.3016
15413W        W32937   0.576   3.419   0.683  0.2013  0.2523 -0.0504
15414W        W32938  13.348  14.524  14.056  0.0430  0.0703 -0.2709
15415W        W32939   1.902   8.550   0.621 -0.0130  0.0272  0.0666
15416W        W32940  15.065  12.799  10.317  0.3671  0.2533 -0.0626
15417W        W32941  10.820  13.111  14.017 -0.2075  0.3529  0.1402
15418W        W32942   2.851  13.097  15.311  0.1044  0.0328 -0.0472
15419W        W32943  11.220  11.463   2.011 -0.1727 -0.0640 -0.1305
15420W        W32944   6.795   5.497  11.280 -0.2128 -0.3382 -0.1353
15421W        W32945  11.792  16.962   4.158  0.2690  0.0166  0.2718
15422W        W32946  14.052   0.733   1.227  0.2253 -0.1217 -0.2264
15423W        W32947  16.118  10.250  12.690  0.1633  0.0406  0.1941
15424W        W32948  16.299   8.658   0.484  0.2327 -0.2677  0.0492
15425W        W32949  13.340   9.964   3.523 -0.0063  0.2875  0.0476
15426W        W32950   9.053   6.479  14.223 -0.2612 -0.0367  0.1471
15427W        W32951  17.311   4.227  13.638  0.0693 -0.0417  0.2848
15428W        W32952   3.155   3.263  14.367  0.1767  0.2532 -0.2705
15429W        W32953  12.273   8.419   3.700  0.0600  0.2031 -0.1550
15430W        W32954   9.484  11.815   1.102 -0.0192 -0.2832  0.2893
15431W        W32955  10.442  18.091   4.445  0.1302  0.1155 -0.1708
15432W        W32956   8.707   8.989  12.374  0.2758 -0.2041  0.0558
15433W        W32957  14.101   2.819  12.769  0.0215 -0.2408 -0.0938
15434W        W32958   4.936  18.111   3.120  0.0597  0.2734 -0.2237
15435W        W32959   3.684   0.805   1.632  0.1562 -0.4022  0.1190
15436W        W32960   4.832   3.302  14.625 -0.0222 -0.1989 -0.0414
15437W        W32961  15.933  14.841   3.401 -0.2203 -0.0621 -0.2708
15438W        W32962   1.021   9.107  12.843 -0.4772 -0.1737 -0.0669
15439W        W32963   3.550  12.745  15.688 -0.3239 -0.1656 -0.1910
15440W        W32964  12.813  14.372  13.158 -0.1591  0.1324  0.0686
15441W        W32965  15.649  14.931  12.599  0.3312  0.0610  0.1994
15442W        W32966  11.526   2.867  11.827 -0.3584  0.0366 -0.2830
15443W        W32967  15.929   9.628   2.092 -0.1106  0.0513  0.0520
15444W        W32968   8.044  11.794  15.702  0.0257  0.1968  0.0098
15445W        W32969   2.156   5.811   2.281 -0.0172  0.3037 -0.0030
15446W        W32970  14.566   9.998   0.080  0.0601  0.0363 -0.4628
15447W        W32971  15.937   3.165  13.312  0.1880 -0.0553 -0.0314
15448W        W32972  15.499  12.579  14.404  0.0136 -0.0905 -0.2765
15449W        W32973  11.807   7.334   1.768  0.0215  0.3764 -0.2957
15450W        W32974   2.167  13.722  15.627  0.1579  0.1018 -0.1475
15451W        W32975   6.112  10.207  12.083 -0.1942  0.0583 -0.0502
15452W        W32976  10.679   0.082  10.731  0.0220 -0.5441 -0.2498
15453W        W32977   1.734   2.282  15.213  0.0491 -0.2018 -0.0292
15454W        W32978   9.366   8.617  14.393 -0.0074 -0.3599  0.1105
15455W        W32979   7.050   8.816   4.056 -0.2061 -0.1843 -0.0383
15456W        W32980  13.288  16.735  12.793 -0.1886  0.1694 -0.1493
15457W        W32981   3.067  12.544  10.357 -0.4620  0.2006 -0.2306
15458W        W32982  12.040   4.989   0.504 -0.0227  0.0507 -0.2826
15459W        W32983  10.062  13.223   4.007  0.1349  0.1638  0.1718
15460W        W32984  11.184   0.435  12.594  0.2692  0.0006  0.1663
15461W        W32985   4.611   7.870  13.472 -0.0901 -0.0205  0.0004
15462W        W32986   5.237  14.536   2.814  0.0501  0.0882  0.0674
15463W        W32987   9.521  17.487   2.457  0.1696  0.3858  0.0129
15464W        W32988   0.878  10.774   5.295 -0.5394  0.0027  0.1249
15465W        W32989   9.691   0.508  10.046 -0.1989 -0.1176  0.0217
15466W        W32990   2.454  12.461  11.994  0.3968 -0.0890  0.0269
15467W        W32991  16.586   9.929  13.464  0.1856 -0.0492 -0.2929
15468W        W32992  10.731   8.820   2.011 -0.1700 -0.4086 -0.1630
15469W        W32993  15.703   8.232   3.665 -0.0248  0.1292 -0.0408
15470W        W32994   9.366   5.532   3.192 -0.2459  0.0245  0.0651
15471W        W32995  16.219  17.936   5.184 -0.1945 -0.1748  0.3276
15472W        W32996  15.852  12.523  12.780 -0.2581 -0.0440 -0.2800
15473W        W32997   1.640   7.039   2.384  0.2963 -0.3278 -0.1279
15474W        W32998  14.576  17.203   1.849 -0.1081 -0.0606  0.2158
15475W        W32999  13.292   0.755  11.966 -0.1186  0.1974  0.1302
15476W        W33000   4.105   1.416   1.325  0.1976  0.1044 -0.0440
15477W        W33001  14.984   6.871  14.326  0.0977  0.0338  0.1600
15478W        W33002   7.467   5.910  11.226  0.1363 -0.2484  0.1684
15479W        W33003   3.660  11.817  14.705 -0.1900 -0.0921  0.1879
15480W        W33004  17.415  15.206   4.731  0.0951 -0.0692 -0.0567
15481W        W33005  15.939  11.193  14.152  0.2087  0.1869  0.3914
15482W        W33006   9.818   9.059   4.161 -0.0463 -0.3174  0.2915
15483W        W33007   1.871  16.996   1.380  0.1839  0.0325 -0.0903
15484W        W33008  12.225  13.437  13.664  0.0081  0.0898  0.3437
15485W        W33009   8.318   5.015  14.498 -0.1117  0.2046  0.0677
15486W        W33010   7.755   7.442   3.629  0.0537 -0.1715  0.1115
15487W        W33011  10.251   9.706  12.802  0.2300  0.1723  0.2076
15488W        W33012  11.344  16.961   4.308 -0.1015  0.0139 -0.1735
15489W        W33013   1.613   2.986  12.876  0.1578  0.1941  0.1035
15490W        W33014  17.581  15.497   3.950 -0.0667 -0.2518  0.3691
15491W        W33015  15.274  16.363  15.536 -0.1105 -0.0025  0.0565
15492W        W33016  10.956   3.415   2.545 -0.0987 -0.0216  0.1513
15493W        W33017  13.613  15.779   4.165 -0.0490  0.0597 -0.1010
15494W        W33018   1.001  13.475   3.826 -0.0293  0.3575 -0.0655
15495W        W33019  11.555   8.029   3.433  0.1790  0.1335 -0.2475
15496W        W33020  18.212   9.361   1.496 -0.0895 -0.2936 -0.1709
15497W        W33021  14.066   3.234  11.011  0.2122  0.1702 -0.0831
15498W        W33022  12.988   8.778   0.475 -0.0874  0.2461  0.0348
15499W        W33023   4.711   8.931   0.766  0.0858 -0.1343 -0.1288
15500W        W33024   3.985  16.239   3.708 -0.0018  0.0949 -0.0352
15501W        W33025  16.575  11.240   3.535  0.1092 -0.1571  0.0333
15502W        W33026  17.744  15.549  11.302  0.1096 -0.1955  0.0162
15503W        W33027   6.903   4.160  12.176  0.0902 -0.0204  0.0314
15504W        W33028   7.175  17.277  11.303 -0.0315 -0.1833 -0.2228
15505W        W33029   2.014  10.241   4.650  0.0590  0.5117  0.0774
15506W        W33030   1.856   5.961  12.429  0.0221  0.1303  0.2766
15507W        W33031   0.010  17.370   3.281 -0.2760  0.1878  0.3796
15508W        W33032  13.180  16.922  14.253 -0.1033 -0.0611 -0.3904
15509W        W33033  17.773  16.535  14.006  0.0550 -0.1861  0.0136
15510W        W33034   4.832  17.473  13.257  0.1622 -0.2115  0.2515
15511W        W33035   8.039   1.787   3.571  0.1235 -0.2148  0.0441
15512W        W33036   5.875   0.588   2.886  0.1795 -0.1934 -0.2526
15513W        W33037   2.566  13.336  13.105  0.2469 -0.2337  0.3539
15514W        W33038  18.089  12.019   3.209  0.2058 -0.1143 -0.0129
15515W        W33039   6.287  14.849   2.856 -0.3102 -0.4464 -0.2203
15516W        W33040  12.141   6.475  15.715  0.3173  0.2066  0.2873
15517W        W33041  10.516   7.227  14.543 -0.1843 -0.1574  0.1132
15518W        W33042   7.113   2.619  11.550 -0.2570 -0.3124 -0.2300
15519W        W33043  17.636  11.500  13.120  0.2317  0.0224 -0.1303
15520W        W33044   2.032   1.819   2.240  0.1556  0.2814 -0.0063
15521W        W33045  11.971  11.559  14.025 -0.0134 -0.2170 -0.4715
15522W        W33046   5.390   1.200   3.195 -0.1993 -0.0229  0.0046
15523W        W33047  10.155  17.011   1.375 -0.1855 -0.0603  0.1863
15524W        W33048   5.190   7.918  12.190  0.0157 -0.0229 -0.0322
15525W        W33049   0.867  16.830   4.950 -0.0545  0.0456  0.1788
15526W        W33050   2.938  11.321  15.605  0.2103 -0.5256  0.2644
15527W        W33051  11.241  13.445   4.544 -0.0653  0.0076  0.0122
15528W        W33052   1.676  14.051   0.318 -0.0215 -0.2719 -0.1996
15529W        W33053   0.131   6.727   2.970  0.1238 -0.0801  0.1529
15530W        W33054   6.148   8.001  12.546 -0.0278  0.1385  0.1508
15531W        W33055   0.963  16.783   5.427  0.2597  0.0756 -0.0629
15532W        W33056   4.239   3.437  12.736  0.3921 -0.2879  0.0725
15533W        W33057   2.660  16.402   4.355 -0.1703  0.1079  0.0432
15534W        W33058   5.092  17.007  11.362  0.1893  0.1289 -0.0298
15535W        W33059   1.891   1.194   5.267  0.0190 -0.2759  0.1966
15536W        W33060   1.143   5.275  10.612  0.0714 -0.0176 -0.3128
15537W        W33061   7.944  11.799  14.963 -0.1226  0.0067 -0.0290
15538W        W33062   5.014  13.752   4.286 -0.0353  0.0597  0.2911
15539W        W33063   9.992  14.902   4.333 -0.0069 -0.1159  0.3024
15540W        W33064  14.652   0.163   1.596 -0.3501  0.0807  0.0950
15541W        W33065  15.871  13.951  11.069 -0.0587 -0.1609  0.1497
15542W        W33066  10.192   7.157  11.902 -0.0473 -0.2138 -0.0999
15543W        W33067   6.959  14.026   5.546 -0.0662 -0.0774 -0.0719
15544W        W33068  15.504  13.770  14.711 -0.1010  0.0376 -0.1227
15545W        W33069  16.108  18.095   1.680 -0.3396  0.2024 -0.2596
15546W        W33070   9.622   8.241  14.240  0.0841 -0.0962  0.3808
15547W        W33071   4.364  13.119  10.037  0.2476 -0.1524 -0.0912
15548W        W33072   8.823  10.159   2.573 -0.1927 -0.0000  0.0299
15549W        W33073   9.705   4.437   5.561 -0.2963  0.1635  0.2031
15550W        W33074  11.508   9.788  10.211  0.1117  0.0067 -0.0968
15551W        W33075  14.889  12.440  11.671 -0.0239 -0.1441  0.1609
15552W        W33076   1.789   5.498   2.710  0.3693 -0.1237  0.0313
15553W        W33077   3.448   5.486  11.506 -0.0849  0.1659 -0.2665
15554W        W33078   1.970   3.329   1.863  0.2693  0.2203 -0.1097
15555W        W33079  18.407   4.290   4.091 -0.0916  0.2871  0.1656
15556W        W33080  14.326   0.411   4.313  0.0617  0.0146 -0.1067
15557W        W33081   0.657   4.542   1.927 -0.1438  0.0666 -0.2840
15558W        W33082   9.443   1.568  11.722  0.2250 -0.3145  0.1852
15559W        W33083  16.129   0.807   1.869  0.0800  0.2445  0.2479
15560W        W33084   7.466   5.611  13.677  0.2571  0.2752  0.0074
15561W        W33085  17.759   0.263   6.187  0.1233  0.0562  0.0215
15562W        W33086   1.069  15.130  14.811 -0.2385 -0.1204 -0.1120
15563W        W33087   2.361   2.227   2.246  0.1318 -0.0516 -0.0065
15564W        W33088  18.250   2.315   3.120  0.1539 -0.0608  0.0952
15565W        W33089  10.543   4.944   2.257 -0.0149 -0.3314 -0.2463
15566W        W33090   3.931   7.011   4.918 -0.2617 -0.0565  0.0459
15567W        W33091   3.128  11.886  12.206 -0.0905  0.0237  0.0369
15568W        W33092   0.054  13.020   3.009  0.1209 -0.1470  0.0516
15569W        W33093   1.346   1.195   1.066 -0.4976  0.1235 -0.3057
15570W        W33094   1.418  18.228  13.250 -0.1583 -0.1823 -0.0355
15571W        W33095   5.909   6.582   3.358  0.1731  0.1753  0.0434
15572W        W33096  17.972   7.243   0.894 -0.2747  0.1056  0.1891
15573W        W33097  12.213   1.937   1.519 -0.0345 -0.0092 -0.0864
15574W        W33098  12.041   5.648   4.078 -0.1504 -0.0536 -0.2777
15575W        W33099  10.862   3.702   4.679 -0.2148 -0.2209 -0.0149
15576W        W33100   4.695  11.551  10.172 -0.1379  0.0481 -0.0557
15577W        W33101   9.516   6.068   4.819 -0.1824  0.0107  0.0459
15578W        W33102   8.214  10.589   1.093  0.3253  0.0193 -0.0026
15579W        W33103   1.413   3.466   1.745  0.1527 -0.1092 -0.0609
15580W        W33104  17.344  10.756   1.622  0.0253  0.0060 -0.1651
15581W        W33105  11.234  12.446   3.163  0.2826  0.0535  0.0320
15582W        W33106  15.558   7.416  11.505 -0.2344 -0.0064  0.1746
15583W        W33107  17.362   9.101   4.726  0.1719  0.2231  0.0337
15584W        W33108   8.874   7.481   2.990 -0.1316  0.1168  0.0802
15585W        W33109   7.827  13.881  15.520 -0.1366 -0.1528  0.0496
15586W        W33110   7.042   2.558  13.449 -0.0491 -0.1070 -0.0774
15587W        W33111   4.217  17.802  14.576 -0.1429  0.2398  0.0155
15588W        W33112  17.937   0.762   3.221  0.0392  0.3592 -0.2582
15589W        W33113   1.470  13.651  14.130  0.3763  0.1685  0.4295
15590W        W33114  16.196  12.394   3.170  0.0138  0.3613  0.1354
15591W        W33115   8.169   8.812  13.906 -0.0515 -0.0171 -0.2044
15592W        W33116   7.474   5.008  14.927  0.0740  0.3673  0.2202
15593W        W33117   4.440   4.495  14.615 -0.3807  0.0109  0.1776
15594W        W33118   9.772   8.265  15.278  0.0538  0.0195 -0.0010
15595W        W33119   5.335   1.327  11.582 -0.0048  0.0067 -0.0088
15596W        W33120  15.345  13.941  11.200 -0.0777 -0.1432  0.4566
15597W        W33121  16.794   6.436  13.139  0.1628  0.1611 -0.0094
15598W        W33122   5.199  15.527  13.993  0.3168  0.1367  0.0258
15599W        W33123   0.564   7.376   1.307 -0.0658 -0.2525  0.0630
15600W        W33124   8.555   9.523  12.462 -0.2432 -0.3818  0.0138
15601W        W33125  17.934   5.996   0.685  0.2553  0.0295 -0.1022
15602W        W33126   9.026  12.985   1.675  0.2417  0.1479  0.0387
15603W        W33127  13.238   9.818  11.002  0.3648 -0.1067  0.0138
15604W        W33128  14.068  17.331   0.236  0.0666 -0.1698 -0.2051
15605W        W33129   2.980   8.379  12.083 -0.1563 -0.1283  0.1331
15606W        W33130  13.436   1.658  13.314  0.1845  0.4138  0.0320
15607W        W33131   6.310   7.730  15.091  0.2205 -0.1729 -0.2400
15608W        W33132  18.265   6.262  11.110 -0.0790 -0.0947 -0.2379
15609W        W33133   1.256   2.288  15.319  0.2804 -0.0295  0.0986
15610W        W33134  14.897   8.265   2.010 -0.1944 -0.1614  0.2220
15611W        W33135   8.139  17.918   2.855 -0.3186  0.3698  0.0985
15612W        W33136  15.666  16.972   0.198  0.0036  0.1382 -0.1833
15613W        W33137   4.330  13.927  12.475 -0.0289 -0.0827  0.5022
15614W        W33138  15.508   3.838  14.756 -0.1419 -0.2350  0.0058
15615W        W33139  12.152   4.804  13.807 -0.2791 -0.0961  0.2534
15616W        W33140  12.236  14.380  12.808 -0.0220  0.1176  0.5619
15617W        W33141   8.832  17.481  15.262  0.1997  0.1543 -0.1239
15618W        W33142  15.831   9.505   0.248  0.3741  0.0798  0.2364
15619W        W33143  14.781   0.697   2.997  0.0251  0.0426  0.1215
15620W        W33144   5.733  10.684   3.577  0.3326  0.2077 -0.2655
15621W        W33145  15.559  10.211  12.587  0.1324  0.2289  0.3008
15622W        W33146  18.160  11.516  12.291 -0.1409 -0.2034  0.0365
15623W        W33147   7.320  14.788  14.189 -0.0780 -0.5262  0.0027
15624W        W33148   5.484  17.556   1.905  0.1187  0.2227  0.1663
15625W        W33149  15.846  11.854  10.497 -0.2676 -0.1273 -0.3965
15626W        W33150   1.031   9.557  13.600 -0.2853  0.0746  0.2093
15627W        W33151  10.073  11.998  15.053 -0.0382  0.3382  0.0868
15628W        W33152  10.215   5.002  14.428  0.2196 -0.0951  0.0825
15629W        W33153   6.306  10.325  14.395 -0.0175 -0.1647 -0.0901
15630W        W33154  18.094  17.579   2.960 -0.3216  0.1237  0.1934
15631W        W33155  15.377   0.208  11.887 -0.1314  0.0572 -0.0096
15632W        W33156   1.777   8.834   1.521 -0.0238 -0.0632  0.1073
15633W        W33157  17.219   6.174   2.726  0.3185 -0.2023 -0.0207
15634W        W33158  13.864  17.282   3.188  0.0353 -0.0763 -0.1382
15635W        W33159  16.193  13.394   3.058 -0.0707 -0.1734 -0.1195
15636W        W33160   5.044  10.930   1.563 -0.2369  0.1706  0.1217
15637W        W33161   7.994   5.941   2.202  0.0535  0.0577 -0.2812
15638W        W33162   9.425  10.155  11.470  0.3554  0.1558 -0.1541
15639W        W33163  11.806  14.860   3.596 -0.0586  0.1941 -0.3251
15640W        W33164   2.191   0.839  10.638  0.4211  0.3393 -0.0407
15641W        W33165  12.852  11.958   1.089  0.1516 -0.2590 -0.0326
15642W        W33166  10.213  10.660  15.500  0.1758  0.0486  0.0439
15643W        W33167   8.929   9.412  15.505  0.0279 -0.1119  0.0903
15644W        W33168   7.128   0.770  15.443  0.0336  0.3132  0.3828
15645W        W33169   0.163   8.066   2.903  0.3029 -0.0744 -0.2236
15646W        W33170   1.253  10.468   1.326  0.1787 -0.2993  0.1784
15647W        W33171   4.534  13.194  11.719 -0.2536 -0.0723 -0.3372
15648W        W33172   2.704  10.577  13.473  0.0581 -0.0340 -0.1317
15649W        W33173  14.218   6.518   5.362 -0.1487 -0.1667  0.2405
15650W        W33174   5.599  15.620   1.930 -0.0735  0.1127  0.0140
15651W        W33175   8.102  10.117  12.826  0.0035  0.0013  0.0233
15652W        W33176   0.024  16.772   0.001  0.1591 -0.0935 -0.0098
15653W        W33177   3.556   3.943  12.369  0.0003  0.1974 -0.0672
15654W        W33178   8.160   9.722   1.349 -0.0099  0.1212 -0.3400
15655W        W33179   7.654  13.636  14.761 -0.0785  0.1844 -0.0588
15656W        W33180   5.944  11.091  14.505  0.3937 -0.2800  0.0532
15657W        W33181  18.390  13.861  15.589  0.0634 -0.2924  0.1549
15658W        W33182  11.655   9.100   1.172 -0.3728  0.0749 -0.4129
15659W        W33183   9.281   9.880   4.318  0.1670  0.0762  0.0706
15660W        W33184   5.450  11.571   2.270  0.1643 -0.3965 -0.1063
15661W        W33185  16.065  14.611  15.014  0.1849  0.1426 -0.1046
15662W        W33186  15.773   1.760   1.443  0.1366  0.0876 -0.1383
15663W        W33187   5.601   9.538  11.530 -0.0234  0.1436  0.1921
15664W        W33188  15.094   1.257  12.749 -0.0676 -0.0209 -0.2215
15665W        W33189   9.005  12.329  11.383 -0.0098 -0.1482 -0.0016
15666W        W33190  17.680   4.990  14.055  0.0981 -0.2084 -0.1826
15667W        W33191  10.326   6.431  11.044  0.0881  0.0642  0.1697
15668W        W33192   0.371  11.043  13.162  0.1498 -0.2466  0.0160
15669W        W33193  11.639   5.190   2.899  0.0403 -0.2735  0.4985
15670W        W33194   8.510  15.624  14.684 -0.1130 -0.0154  0.0429
15671W        W33195  18.320   4.870  15.228 -0.1750  0.2917  0.0368
15672W        W33196  13.792  17.962  13.181 -0.4253  0.0002  0.0921
15673W        W33197   9.122   7.368  14.183 -0.0758 -0.1751  0.1828
15674W        W33198   5.819  17.563   1.498  0.3332 -0.3644  0.0323
15675W        W33199   5.730  15.882  11.218  0.1059 -0.2105 -0.0179
15676W        W33200  16.966   2.705  15.666  0.2734  0.1319  0.2559
15677W        W33201   4.080   9.347   3.451  0.2067  0.0724 -0.0722
15678W        W33202   7.545   3.081   2.632 -0.0538  0.2150  0.2868
15679W        W33203   2.013   9.317  13.992 -0.0296  0.2439  0.0438
15680W        W33204  12.445  17.440   2.196 -0.1673  0.0984  0.3850
15681W        W33205   5.038   5.775  14.786  0.0418 -0.0247  0.2578
15682W        W33206  11.805  17.295   6.164  0.0452 -0.4305  0.0764
15683W        W33207   5.758   0.445  12.570 -0.0989 -0.2350 -0.0824
15684W        W33208  14.000   7.888  15.180  0.0256 -0.0530 -0.0117
15685W        W33209   0.784   8.761   4.318 -0.1391 -0.1694  0.1709
15686W        W33210  10.070  12.581  14.399  0.2343  0.0135  0.0233
15687W        W33211  17.551   2.740  10.500  0.2113 -0.4365 -0.4421
15688W        W33212  17.326   6.160  13.247 -0.1120  0.1956  0.1629
15689W        W33213   8.055   2.126   1.476  0.0256  0.2326  0.0303
15690W        W33214   6.104  12.329  15.583 -0.1416  0.0327 -0.0750
15691W        W33215  12.085   0.941  11.233 -0.0402 -0.4056 -0.0975
15692W        W33216   1.734   9.578  14.423 -0.0952  0.3695  0.0395
15693W        W33217   4.601   2.603   3.789 -0.1936  0.1515 -0.3461
15694W        W33218  15.259  11.606  13.687  0.0797 -0.1798  0.1027
15695W        W33219   3.520   3.489  11.625 -0.0390  0.0321 -0.1292
15696W        W33220  11.813   3.600   2.908  0.0567 -0.1679 -0.2334
15697W        W33221  15.361   5.667  11.249 -0.2221 -0.2277 -0.1340
15698W        W33222  12.200   3.912   3.276  0.2095  0.2849 -0.3900
15699W        W33223  16.713  13.638   0.728 -0.2547 -0.0888  0.0906
15700W        W33224  18.048   5.814   1.237  0.2829  0.0376 -0.0314
15701W        W33225   6.504   2.545   2.546 -0.0443  0.1852  0.2492
15702W        W33226   1.642   3.776  11.738 -0.2615  0.0350 -0.0832
15703W        W33227  15.150  18.055   0.482 -0.1220 -0.1375  0.2746
15704W        W33228   5.651   8.667   2.419 -0.0112 -0.2826 -0.1398
15705W        W33229  16.589  17.367  11.513  0.1597 -0.0249 -0.0536
15706W        W33230  11.291   6.810  13.416  0.1063  0.0602 -0.0842
15707W        W33231  14.410   4.745  12.998 -0.1687 -0.2208 -0.1778
15708W        W33232   8.631   5.265  11.156  0.0837 -0.0089 -0.0476
15709W        W33233  10.161  12.734   0.638  0.0688 -0.0426  0.0878
15710W        W33234  15.940   9.592  11.731 -0.2761 -0.3180  0.1294
15711W        W33235   8.675   6.679   0.413 -0.0525 -0.0314 -0.0408
15712W        W33236   6.153  10.840  12.969  0.0319 -0.0616 -0.1717
15713W        W33237  11.925  11.650  11.184  0.3375  0.1549 -0.2072
15714W        W33238  10.599  16.153   4.138 -0.1090 -0.2541  0.1776
15715W        W33239   9.514  12.957   1.560  0.1389 -0.0094 -0.1069
15716W        W33240   6.717   9.585  13.138 -0.2299  0.2115 -0.2158
15717W        W33241   6.983   2.419   0.478 -0.2713  0.3222 -0.2194
15718W        W33242   4.713  17.283  10.966  0.2674  0.2428  0.0106
15719W        W33243   6.862  16.810   3.164  0.1657 -0.0037 -0.1855
15720W        W33244  11.168  12.340   4.822 -0.0699 -0.0117  0.0247
15721W        W33245  13.509  17.076  13.473 -0.1778  0.0951 -0.0666
15722W        W33246   9.810   7.262   1.154  0.0057  0.0574  0.1103
15723W        W33247   5.228   6.128  15.281  0.3253  0.3858  0.2610
15724W        W33248  11.730   9.270   2.729 -0.0943  0.1368 -0.0641
15725W        W33249  10.476   1.473   5.048  0.1443 -0.0400 -0.1504
15726W        W33250  15.126  13.406   0.371 -0.1030  0.2009  0.0836
15727W        W33251  17.901  11.829   4.125  0.1206  0.1541  0.1270
15728W        W33252  10.553  10.476  10.845  0.0351  0.1841  0.1710
15729W        W33253  13.081   4.371  12.855  0.0211 -0.2066  0.3422
15730W        W33254  13.749   2.100   5.169  0.1164 -0.3536  0.0094
15731W        W33255   5.684   4.221   3.799  0.0451  0.0101 -0.1474
15732W        W33256  13.753   4.979   3.113  0.0210 -0.1249 -0.1402
15733W        W33257   5.884  14.060  13.629 -0.0803  0.0105  0.0506
15734W        W33258  16.215  11.980   4.653 -0.0025 -0.0222  0.1502
15735W        W33259  16.645  16.295   1.151 -0.1682 -0.0366 -0.0799
15736W        W33260  18.325  15.448   0.177  0.3300  0.0073 -0.2789
15737W        W33261   0.355   6.493   3.319 -0.2526 -0.0651  0.0526
15738W        W33262  11.968   5.267  10.605  0.2049  0.0193  0.0054
15739W        W33263   4.777  17.972   0.040  0.0230  0.1243 -0.2549
15740W        W33264   3.466   7.902   3.086 -0.0530 -0.1002 -0.2386
15741W        W33265   6.515   8.256   1.894 -0.0500  0.0506  0.1740
15742W        W33266  17.845  10.271   1.597 -0.0599 -0.1620 -0.0316
15743W        W33267   2.489   1.498  11.375 -0.3142  0.1547 -0.1345
15744W        W33268  11.915  10.627  13.275 -0.0259  0.0519  0.0624
15745W        W33269   9.773   9.673   3.755  0.1229  0.3335 -0.0378
15746W        W33270   9.801   5.169  14.228  0.1659  0.0434 -0.1524
15747W        W33271  16.938   3.416  12.955  0.1268 -0.1419 -0.1291
15748W        W33272   0.287   7.818   4.237  0.0843 -0.0130  0.1450
15749W        W33273   1.636   3.262  15.076 -0.0169  0.1875  0.0820
15750W        W33274  16.571   7.637   5.222 -0.0288 -0.3490 -0.0009
15751W        W33275   6.063   8.253   3.166 -0.1372 -0.0304  0.3165
15752W        W33276  18.226   3.967  12.143 -0.1052 -0.2916 -0.1639
15753W        W33277   2.650   2.171   1.212  0.2116  0.0948  0.1692
15754W        W33278  15.908  13.332   0.982  0.1782  0.0642 -0.2933
15755W        W33279   3.864   0.695   0.108 -0.0233 -0.0224  0.2405
15756W        W33280   3.443   0.215  12.777 -0.0818  0.0768  0.1643
15757W        W33281   4.000   4.746   0.226 -0.0778 -0.1231  0.0094
15758W        W33282   1.209  15.628  14.976 -0.0329  0.0991  0.3678
15759W        W33283   4.705   1.373  12.446  0.2366  0.4297  0.0900
15760W        W33284   3.651   7.011  14.958  0.0695  0.2003 -0.0361
15761W        W33285   8.941   8.360   2.807 -0.0081 -0.0733 -0.0650
15762W        W33286  15.365  13.896   0.495  0.0112 -0.4400 -0.0753
15763W        W33287  15.004   2.497  15.574  0.1740  0.1328  0.1491
15764W        W33288  14.586   5.966  14.630 -0.1388 -0.0711  0.0603
15765W        W33289  17.585  13.084  11.066 -0.0614 -0.1555  0.0686
15766W        W33290   4.816   1.012  13.406  0.0164  0.0014  0.2469
15767W        W33291  14.223  11.270  12.447  0.1460  0.0290  0.0404
15768W        W33292   2.904   5.021  12.408 -0.2113  0.1224  0.0322
15769W        W33293  13.128  15.891  13.015  0.0649  0.3468  0.3707
15770W        W33294  17.740   9.766   3.142  0.3783 -0.1352 -0.3042
15771W        W33295   6.842   4.844  15.288  0.0403  0.0798 -0.0495
15772W        W33296  10.433   9.872   0.350 -0.0403  0.1308  0.0088
15773W        W33297  15.376   0.838  15.517 -0.1839  0.0751  0.0211
15774W        W33298  17.169   5.700  12.933  0.0205 -0.0240 -0.3554
15775W        W33299  13.312   2.514  13.872  0.3127 -0.4604  0.1014
15776W        W33300   3.831  12.236   0.816  0.0619 -0.0415 -0.0797
15777W        W33301  15.747   1.452  13.765  0.0455 -0.0457 -0.2029
15778W        W33302  14.395  11.810   2.311 -0.2624 -0.0968 -0.2498
15779W        W33303  17.188   4.449  14.617  0.2305 -0.2917  0.1349
15780W        W33304  13.637  10.204   2.374  0.1199  0.0462  0.0446
15781W        W33305   7.490   5.959   2.189 -0.1926  0.0202  0.2610
15782W        W33306   7.548   8.399   2.635  0.2498  0.0008 -0.1727
15783W        W33307   5.585  10.564  15.305  0.2565 -0.2348  0.0902
15784W        W33308  12.273   3.439  14.286  0.2474  0.3522 -0.0613
15785W        W33309  12.305   4.932   1.381  0.1788  0.1623  0.2200
15786W        W33310  16.303  16.535  11.720 -0.0162 -0.0433 -0.0311
15787W        W33311   0.332   9.615   4.948 -0.2905  0.1201 -0.1692
15788W        W33312  12.982  11.774  15.179 -0.2021  0.3047 -0.0041
15789W        W33313   0.253  16.759   3.117  0.0342  0.4006  0.0095
15790W        W33314  10.207  14.973  12.788  0.2667 -0.1618 -0.1120
15791W        W33315   6.856  10.752  11.718  0.1161  0.2139  0.0017
15792W        W33316  16.080  15.915  15.139 -0.1426 -0.0038  0.2495
15793W        W33317  13.294  18.202   4.870  0.0613 -0.3332  0.0212
15794W        W33318  14.685  16.131   3.324 -0.1455  0.0027  0.0599
15795W        W33319   0.691   5.570  10.726 -0.1513 -0.0923 -0.0432
15796W        W33320  16.653  10.361  15.022 -0.2881  0.0159 -0.3631
15797W        W33321   5.067   1.358  13.219  0.0648  0.0655  0.0360
15798W        W33322  17.766  11.002  15.408 -0.2424 -0.1049 -0.0979
15799W        W33323  13.490   1.317   4.555 -0.0322 -0.1909  0.0371
15800W        W33324  15.241   3.097  13.739 -0.0612 -0.1167  0.1668
15801W        W33325   6.742   3.996   4.460  0.2494  0.0494 -0.0978
15802W        W33326   8.713  13.582  14.285  0.0198  0.1074 -0.2132
15803W        W33327   8.864   6.750   2.655 -0.2312  0.1056  0.0405
15804W        W33328   1.380   4.198   4.315  0.1978 -0.2055 -0.0461
15805W        W33329   0.196   0.598  12.759 -0.1053  0.3584 -0.0874
15806W        W33330   4.122   3.510  15.202  0.1813 -0.1044  0.1172
15807W        W33331   7.122   0.200   2.539  0.0671  0.2834 -0.0924
15808W        W33332   2.323   0.972  15.166 -0.0479  0.0516 -0.0942
15809W        W33333   6.295  10.480  10.221  0.0982  0.1710  0.0244
15810W        W33334  18.193  14.893   1.845 -0.2748 -0.3703 -0.0264
15811W        W33335  17.735   3.982  12.518  0.1676 -0.3367  0.3919
15812W        W33336  18.256   7.926   1.923  0.1907 -0.2512 -0.0746
15813W        W33337  15.650  11.245   2.840 -0.2356  0.3751  0.1433
15814W        W33338  12.823  14.896   4.485 -0.3789  0.2411 -0.1529
15815W        W33339  12.827   3.561  14.262  0.1731 -0.0052  0.1745
15816W        W33340  15.951  10.280   0.756  0.1394  0.3856 -0.3350
15817W        W33341   9.456  12.960  14.983  0.1614 -0.1080  0.1928
15818W        W33342  16.511  16.796   0.860 -0.1268  0.3332 -0.0941
15819W        W33343  18.040   1.737  12.080  0.0628  0.2089  0.0659
15820W        W33344  16.918   8.914   3.054  0.0557  0.4258 -0.0927
15821W        W33345  12.294   7.352  15.020 -0.0772 -0.3443  0.0967
15822W        W33346   4.132   2.044   2.902  0.0669 -0.1071 -0.1340
15823W        W33347   6.969   5.061   2.632  0.1444  0.0782 -0.1164
15824W        W33348  10.504   2.078   2.420 -0.0792 -0.2559  0.0351
15825W        W33349   3.937   8.409   3.339 -0.1762 -0.2087  0.2308
15826W        W33350  18.099  13.689   1.061  0.0771  0.0299 -0.2199
15827W        W33351  10.677  14.744   1.458 -0.0295  0.1739 -0.1323
15828W        W33352   2.865   0.528   2.730  0.0097  0.2461 -0.0473
15829W        W33353  12.068  10.150  14.629  0.3058  0.0218  0.0531
15830W        W33354   8.500  12.290   2.534 -0.2326  0.1905  0.1532
15831W        W33355  12.250   5.629   0.675  0.0602 -0.1078 -0.1562
15832W        W33356  14.604   5.186  12.783  0.0212  0.0688 -0.0405
15833W        W33357  13.543  11.419   2.669 -0.3494 -0.0125 -0.0495
15834W        W33358   1.596   0.825   2.730 -0.0127 -0.1080  0.2497
15835W        W33359  16.381   8.193   2.271  0.0462 -0.1836 -0.1155
15836W        W33360   3.034   3.200   0.908  0.0707  0.0511 -0.2170
15837W        W33361  17.024   9.736  12.510  0.0708  0.1461 -0.4204
15838W        W33362   1.262   4.537   2.400 -0.0516 -0.0863 -0.2206
15839W        W33363   4.774   9.539   2.116 -0.0981  0.4956 -0.0396
15840W        W33364  13.026   3.426  11.343 -0.0830 -0.1495  0.2552
15841W        W33365   9.376  10.362  13.928  0.0633  0.3836  0.1917
15842W        W33366  11.737   0.215   3.555  0.3288 -0.3464 -0.1791
15843W        W33367  15.389   9.229   3.446  0.0283  0.0839  0.2581
15844W        W33368  10.287   2.413   4.597 -0.0820  0.1328  0.0474
15845W        W33369   5.226   0.358   4.049  0.0486 -0.0611  0.4372
15846W        W33370   0.107  12.915   4.063  0.0964  0.0845 -0.1685
15847W        W33371   6.223   4.313   2.746  0.2115  0.1164 -0.1095
15848W        W33372   7.029  13.092   1.792 -0.1023  0.0021 -0.0559
15849W        W33373   9.009  16.500  14.672 -0.0909 -0.1515 -0.2962
15850W        W33374   8.218  11.380  13.267  0.0054  0.1614 -0.3975
15851W        W33375  17.447   2.367   5.310 -0.2051  0.2518 -0.2531
15852W        W33376   0.131   8.699   3.630 -0.0509 -0.0034 -0.2674
15853W        W33377   9.041   4.952   3.791 -0.2688  0.2176 -0.2554
15854W        W33378   1.786  10.356  11.165  0.1874  0.0939 -0.0092
15855W        W33379   6.734  14.295   0.407 -0.2045 -0.3604  0.1771
15856W        W33380   6.000  14.399  13.323  0.1477 -0.2784  0.3077
15857W        W33381   0.983  17.480   1.255 -0.2612  0.1351  0.2107
15858W        W33382   2.237   4.303   3.246 -0.2552 -0.3247  0.0648
15859W        W33383  13.234   6.776  12.149 -0.0764  0.0340  0.2884
15860W        W33384   6.677  16.270  10.408 -0.0969 -0.3537 -0.0527
15861W        W33385  12.478  15.784   2.065 -0.0342 -0.1681 -0.2503
15862W        W33386  11.868   9.973  12.452  0.0569 -0.2372 -0.0149
15863W        W33387  14.962   0.458   1.307 -0.0854 -0.0773  0.1506
15864W        W33388   5.443   3.506   0.654 -0.1901 -0.0499 -0.2269
15865W        W33389  13.702  13.693  12.041 -0.0815  0.1929 -0.1700
15866W        W33390  10.335  11.518  15.109  0.2016  0.2710  0.0055
15867W        W33391   0.501   5.353   2.584 -0.0734  0.0228 -0.2180
15868W        W33392   4.096  11.709  14.488  0.0826  0.3149 -0.0556
15869W        W33393  16.808  10.676  14.067  0.0914  0.1086  0.0400
15870W        W33394   9.569   3.884  12.527  0.1096 -0.0899  0.0289
15871W        W33395   8.799   1.190   3.275  0.0219 -0.1340  0.0588
15872W        W33396   7.957   4.648   2.301 -0.3121 -0.0705  0.1134
15873W        W33397  16.690  15.002   0.482 -0.2789  0.0046  0.1503
15874W        W33398  13.316  12.161  12.949  0.0941  0.2733 -0.1817
15875W        W33399   3.984   3.236  11.775 -0.1445 -0.4323  0.0909
15876W        W33400  14.113  15.469  15.306 -0.2394 -0.1156  0.1218
15877W        W33401   5.495   1.199  12.079  0.2113  0.2436  0.1083
15878W        W33402  13.827  17.138  15.542  0.0569  0.3231 -0.1151
15879W        W33403   1.897   7.486  14.873  0.2415  0.2548  0.0299
15880W        W33404   0.902   9.702   1.739  0.1748  0.0439 -0.1878
15881W        W33405   5.064   2.011  10.437  0.3922 -0.1360  0.0807
15882W        W33406   3.441  16.031  14.146 -0.1997 -0.0968  0.1515
15883W        W33407   9.301   3.860   1.239 -0.2099  0.0822  0.0713
15884W        W33408   2.687   3.208  14.207  0.1641  0.1540  0.0724
15885W        W33409  13.839   9.083   1.011  0.2949 -0.0663 -0.3117
15886W        W33410  15.405   2.236   3.727  0.2214  0.0252 -0.1643
15887W        W33411  17.181  10.195  12.424 -0.2500 -0.0694 -0.0205
15888W        W33412   8.238  12.178  13.273  0.0154  0.2306  0.0547
15889W        W33413   1.363  13.159   2.438 -0.0233 -0.2571  0.2729
15890W        W33414   6.006  11.709   1.493 -0.3318 -0.0280 -0.0768
15891W        W33415   5.568  14.828  15.638 -0.1282  0.0694  0.0168
15892W        W33416   7.123   3.886   3.898  0.2031 -0.0046 -0.0406
15893W        W33417   2.874  10.363  13.939 -0.1639 -0.0656  0.4368
15894W        W33418  17.499   7.483   0.751  0.3007  0.2258  0.1629
15895W        W33419  18.182  15.766  11.408 -0.1026  0.0272  0.1050
15896W        W33420  11.041   4.488   3.278  0.1348 -0.2165  0.0739
15897W        W33421  13.802   4.225  11.331 -0.3882  0.0976  0.0120
15898W        W33422   0.236   6.873   0.451  0.0177 -0.2291  0.0843
15899W        W33423   8.513   3.621  13.430 -0.0026  0.0324 -0.2299
15900W        W33424   0.459   2.081  12.195  0.2280 -0.1247 -0.0379
15901W        W33425   8.868   4.690  13.906  0.0858  0.0403 -0.2726
15902W        W33426   8.383   8.841   4.338 -0.1139 -0.1594 -0.4807
15903W        W33427   4.406  17.629  11.080 -0.0324 -0.0678 -0.0641
15904W        W33428   3.290  15.401  12.368 -0.3657  0.0946  0.2493
15905W        W33429   2.126   2.301  13.631 -0.1475  0.3378  0.0216
15906W        W33430  15.290   0.362  14.974 -0.0003  0.3220  0.2337
15907W        W33431   3.578  12.000  15.198  0.0388  0.3244 -0.1715
15908W        W33432  12.758  17.311   3.897  0.2000  0.2597 -0.2702
15909W        W33433  11.624   5.613   0.192  0.0220  0.1416 -0.0126
15910W        W33434  18.055  18.041  15.233  0.1465 -0.1684 -0.1356
15911W        W33435   6.725   2.383  11.480 -0.1572 -0.1022  0.2239
15912W        W33436   7.262  13.263   1.242 -0.3708  0.3258  0.2004
15913W        W33437  10.703   5.762   1.736  0.0272  0.1291  0.1081
15914W        W33438   4.121  17.689  13.917  0.1578  0.0387 -0.0160
15915W        W33439   6.486  17.291  13.734 -0.1128  0.0923 -0.1298
15916W        W33440  13.679   6.843   1.860 -0.0527  0.2393 -0.0886
15917W        W33441   7.336  11.574   0.494 -0.0155 -0.1211 -0.1528
15918W        W33442   7.461   9.320  14.200 -0.0134  0.3109 -0.3403
15919W        W33443  12.052  10.484   0.961 -0.2787 -0.1862 -0.2012
15920W        W33444   4.106  16.010  11.258  0.0318  0.1352 -0.3882
15921W        W33445  11.178  15.401   4.853 -0.1995 -0.0721 -0.1768
15922W        W33446  15.816   6.610   5.543 -0.2072 -0.3996 -0.0073
15923W        W33447   3.302   9.695  14.489 -0.0941  0.0109  0.2277
15924W        W33448   0.774   7.614   3.881  0.2626 -0.2053  0.1654
15925W        W33449  16.999   1.944   3.692 -0.2524 -0.0864  0.3791
15926W        W33450  13.571   2.798   4.685  0.0703  0.0458 -0.2122
15927W        W33451   5.838   4.327   3.240  0.0130 -0.1788 -0.0802
15928W        W33452   7.761   5.250   1.160  0.2009  0.3078  0.2281
15929W        W33453  18.005   9.802   5.768  0.0093  0.0349 -0.1623
15930W        W33454   4.932  17.031  12.228  0.2492  0.3968 -0.1967
15931W        W33455  12.854  11.809   3.259 -0.3488  0.2234 -0.1540
15932W        W33456   4.378  15.796  13.195 -0.1445  0.0860  0.0665
15933W        W33457   9.458  14.181  11.828  0.0199  0.0762  0.2849
15934W        W33458   4.615  17.819  13.709  0.1813 -0.0520 -0.0009
15935W        W33459   3.060   1.321   0.383  0.1372  0.1954 -0.0419
15936W        W33460  13.927  10.231   1.270  0.2887  0.0694  0.1659
15937W        W33461   9.283   9.608  14.324 -0.2317 -0.1833 -0.0527
15938W        W33462   0.329  11.135   0.337 -0.0306  0.1969  0.0845
15939W        W33463   5.079   3.568   5.646 -0.0567  0.1444 -0.1318
15940W        W33464  16.921   8.969   0.044 -0.2308  0.3169 -0.0723
15941W        W33465  15.591  15.316   0.663  0.0906  0.2280 -0.2226
15942W        W33466  12.559   1.710   4.494 -0.2063 -0.0900  0.1373
15943W        W33467   2.592   2.569   2.997  0.0057  0.0345 -0.1049
15944W        W33468   7.142  16.690   2.699  0.0312  0.2095  0.1915
15945W        W33469  17.996   8.093   2.368  0.1160  0.1639  0.2553
15946W        W33470  14.025   6.175   0.755 -0.1833  0.1056 -0.2123
15947W        W33471  12.819  18.420  12.987 -0.2687 -0.1982 -0.1197
15948W        W33472   9.963   6.604  13.660  0.1327  0.0121 -0.2218
15949W        W33473   6.421  16.226  10.912 -0.3587  0.2347 -0.2441
15950W        W33474  12.656   7.388   3.896 -0.1303  0.1510 -0.1960
15951W        W33475   2.172  18.165   4.620  0.1969 -0.0094  0.3319
15952W        W33476   1.902  16.546  12.549  0.0485  0.0818  0.2922
15953W        W33477   1.492  17.997  15.027  0.0124 -0.0424 -0.1215
15954W        W33478   9.136   6.860  12.217 -0.0142 -0.1179  0.3466
15955W        W33479  14.894   8.761  13.588  0.3939  0.4274  0.0047
15956W        W33480  17.583   0.961   0.521  0.4558  0.1798 -0.0504
15957W        W33481  17.775   2.505   1.223  0.2939 -0.2207 -0.2600
15958W        W33482  18.229  11.661  14.948 -0.1371  0.0047  0.0284
15959W        W33483  16.138   1.929   2.615 -0.2492 -0.0216  0.1582
15960W        W33484  13.981  15.080   4.929 -0.1363 -0.1625  0.0422
15961W        W33485   1.701   1.032  12.431 -0.2872  0.3230 -0.1877
15962W        W33486  12.379   7.260   2.512 -0.1855  0.2772 -0.2091
15963W        W33487   5.673   0.288   1.609 -0.0057  0.0233  0.1452
15964W        W33488   3.688   5.353   2.961  0.2417  0.3145  0.0751
15965W        W33489  13.944  13.219  12.098  0.0287  0.1477 -0.0831
15966W        W33490   1.367  13.078  14.261 -0.1586 -0.1652  0.2448
15967W        W33491  10.306   2.755  13.158 -0.0051 -0.0643  0.0656
15968W        W33492   3.868  18.456   0.475  0.0356 -0.0227  0.0902
15969W        W33493   3.985   6.920   3.897 -0.2933 -0.3308 -0.0792
15970W        W33494   3.916  10.087  13.377  0.1197  0.1522  0.0887
15971W        W33495  14.777   1.863   2.496  0.4689 -0.0744 -0.0134
15972W        W33496   0.252  17.167   0.191  0.1521 -0.0182  0.0805
15973W        W33497   8.045  16.592   3.687  0.1968  0.0319  0.0774
15974W        W33498  13.576   4.470   0.574  0.3161  0.2062  0.0900
15975W        W33499   8.735  11.515  13.952  0.1781 -0.1385 -0.0807
15976W        W33500   4.420   4.438  12.950  0.0332 -0.3209  0.0708
15977W        W33501   5.587  13.238  14.637 -0.3303 -0.2525 -0.0529
15978W        W33502  11.317   6.367   1.243 -0.1084 -0.0797  0.0540
15979W        W33503  10.007  11.046   1.119  0.2490 -0.0793 -0.2242
15980W        W33504  13.096   4.417  14.359 -0.3539 -0.1161  0.3660
15981W        W33505  14.136   0.589  12.015 -0.2357 -0.0919 -0.3835
15982W        W33506   0.567  11.463   0.749  0.0330  0.2726 -0.4285
15983W        W33507  12.743  17.821   4.187 -0.3055 -0.0992 -0.2876
15984W        W33508   0.891  15.631   5.061  0.4570  0.0564  0.0931
15985W        W33509   4.338  11.324   0.168  0.0172  0.1174 -0.3556
15986W        W33510   9.557   2.336   3.478  0.1589  0.0354  0.0319
15987W        W33511  16.642  12.792   1.571 -0.0406  0.2064  0.0097
15988W        W33512   8.799  15.653   0.951 -0.1148 -0.2526 -0.0683
15989W        W33513  12.749   2.723  13.113  0.0267 -0.2898 -0.0756
15990W        W33514   9.398   0.491  12.755 -0.0360  0.0591 -0.0741
15991W        W33515   2.392  13.780   1.780  0.0261 -0.1298 -0.2425
15992W        W33516  17.623   5.713   2.963 -0.2310  0.1562  0.0792
15993W        W33517   6.078  10.226  14.899  0.0705 -0.0300 -0.2404
15994W        W33518   1.517   4.282  14.977  0.1835 -0.0346 -0.2368
15995W        W33519  16.643   2.541   4.850 -0.1633 -0.1353  0.2377
15996W        W33520  13.909   9.698   0.342 -0.0675  0.2191 -0.2844
15997W        W33521   3.712   5.608   0.827  0.2803  0.1912  0.4050
15998W        W33522  10.804   1.034   2.640  0.0735 -0.0954  0.0318
15999W        W33523   9.475   1.967   4.432  0.0978  0.1132 -0.0178
16000W        W33524  13.330   5.157  14.961  0.1109  0.1085  0.2612
16001W        W33525  17.554   3.714  11.228  0.0267  0.1140  0.1168
16002W        W33526  15.818  13.803   0.690  0.2593  0.2818 -0.3901
16003W        W33527   4.899  16.374   0.201 -0.0711 -0.3148  0.2308
16004W        W33528   4.140   4.986  12.825 -0.0487  0.0074 -0.1038
16005W        W33529   7.070  14.539   3.948 -0.0402  0.2112 -0.1754
16006W        W33530   2.958   5.472  15.438 -0.1079  0.3339  0.2663
16007W        W33531  14.934  17.128  13.012  0.0619  0.1256 -0.0359
16008W        W33532  17.451  12.082  10.925 -0.2246 -0.2158 -0.2251
16009W        W33533  16.558  11.938   3.843  0.1215 -0.4176  0.3311
16010W        W33534   9.691  14.457   0.643  0.0752  0.2701  0.0556
16011W        W33535   7.853   0.314   3.633  0.1602  0.1608  0.0282
16012W        W33536   1.881  15.862   4.794  0.0175 -0.1897 -0.2165
16013W        W33537   8.697  17.688  14.369 -0.1173 -0.0676  0.0196
16014W        W33538   9.636   5.103  11.080 -0.0459 -0.1020  0.0033
16015W        W33539   2.666   9.548  11.461 -0.1262  0.0244  0.4367
16016W        W33540   6.915  10.693   0.290 -0.1673 -0.0354 -0.1524
16017W        W33541  11.883  11.780   4.212 -0.3033  0.2058 -0.2154
16018W        W33542   9.356  13.464  12.255  0.2827 -0.1519 -0.2107
16019W        W33543   6.854   2.187   4.077 -0.0496  0.0591 -0.1247
16020W        W33544   5.331  14.702   1.044 -0.1240 -0.0362 -0.0962
16021W        W33545  11.208  16.153   2.651 -0.1113  0.3522 -0.0846
16022W        W33546   0.000   2.084   0.568  0.1298 -0.0127 -0.1615
16023W        W33547   4.217   4.531   1.751  0.0379 -0.1184  0.0986
16024W        W33548  16.177   8.394   3.406 -0.0640  0.1693 -0.2387
16025W        W33549   0.716   6.883  11.379 -0.1269  0.1919 -0.0278
16026W        W33550   6.631  15.642   2.572 -0.0891 -0.0948  0.0515
16027W        W33551  12.973   5.296  11.166  0.3669 -0.2680  0.0780
16028W        W33552  15.527   5.814  13.545  0.0276 -0.0809  0.0415
16029W        W33553   6.742   8.813   0.481  0.2446 -0.0687 -0.1845
16030W        W33554   6.539  17.573  14.168 -0.2527 -0.0546  0.2957
16031W        W33555   9.518  16.545   2.679 -0.1210 -0.3066 -0.1759
16032W        W33556   2.117  15.378   3.959  0.2286 -0.0092 -0.2975
16033W        W33557   7.926   9.176  14.318 -0.1396  0.1362 -0.2889
16034W        W33558   5.020  11.531  15.411  0.2733  0.0483 -0.0096
16035W        W33559   1.878   4.820   0.509  0.0179 -0.0404  0.2818
16036W        W33560  16.558  15.693  14.439  0.0632 -0.1369  0.1422
16037W        W33561   8.739   9.923   0.669 -0.0721 -0.1321  0.3257
16038W        W33562   0.791  13.171   2.952 -0.1880 -0.4339 -0.1088
16039W        W33563   2.411   6.279   1.261  0.2973 -0.0370 -0.1733
16040W        W33564   4.166  14.774   2.396 -0.0153  0.0205 -0.0778
16041W        W33565   5.614  13.162   3.912 -0.0859 -0.1201 -0.0005
16042W        W33566  11.997  13.139  11.353 -0.1834  0.3685 -0.0461
16043W        W33567  13.120   0.788  15.068 -0.0818 -0.2437  0.0360
16044W        W33568   4.962   8.893  15.086 -0.1329  0.2945  0.0523
16045W        W33569  13.083  13.583   2.449  0.0217  0.1410  0.4094
16046W        W33570   2.423   8.496  12.847 -0.1869 -0.1902  0.1231
16047W        W33571  16.056   3.631   1.360  0.2158  0.2121  0.0017
16048W        W33572  11.262  17.503  15.094  0.3392  0.0993 -0.2876
16049W        W33573   4.585   7.226   3.230 -0.1698 -0.1280  0.0516
16050W        W33574  13.125  14.032  12.935 -0.0224 -0.3891 -0.4594
16051W        W33575   9.382   3.069   1.301 -0.1921  0.0474 -0.0571
16052W        W33576   6.061   3.881   2.986  0.1582  0.3053  0.1475
16053W        W33577  16.399  13.987   0.112  0.0285 -0.1569 -0.0682
16054W        W33578  11.318   4.245   2.918 -0.0515 -0.1902  0.0998
16055W        W33579  10.850  12.085   3.050 -0.1805  0.0428 -0.1810
16056W        W33580  14.661  13.598   3.149  0.1972  0.3747  0.0643
16057W        W33581   4.237   8.592   2.239 -0.0522 -0.1023  0.0123
16058W        W33582  17.929   0.842   5.129 -0.0443 -0.2964 -0.0686
16059W        W33583   2.110   9.807   5.035 -0.0790  0.0138 -0.0720
16060W        W33584   8.712  15.132  11.369  0.0530 -0.3086  0.2129
16061W        W33585  17.479  16.020   0.365 -0.1580 -0.0930  0.0458
16062W        W33586   8.853   7.122   0.449 -0.0745  0.1203 -0.0192
16063W        W33587  11.505   3.946  12.424  0.0247  0.1549 -0.3641
16064W        W33588   4.018   1.644  13.806  0.2192  0.2245 -0.3823
16065W        W33589   3.287   4.574   2.785 -0.2573  0.1296 -0.2063
16066W        W33590   1.310  12.227  14.652 -0.1059  0.0423  0.3036
16067W        W33591   8.362   8.087   5.235 -0.0841 -0.0608 -0.1375
16068W        W33592   6.341  10.350   1.666  0.0707 -0.0271 -0.0787
16069W        W33593   9.964   1.467  14.501 -0.1701  0.3071 -0.0051
16070W        W33594   1.914   6.337  14.144  0.0692  0.0959  0.1539
16071W        W33595  13.271  14.767   4.315 -0.2202  0.1190  0.0290
16072W        W33596  14.058  17.957  14.135  0.0313 -0.2149 -0.0632
16073W        W33597   8.018   1.438   5.642  0.0925 -0.0636  0.1172
16074W        W33598  17.760   1.411   3.270 -0.1014  0.1042 -0.0194
16075W        W33599   5.022  12.084  14.530  0.0434  0.1002 -0.0390
16076W        W33600  16.271  17.160  12.936  0.4331 -0.3034  0.0608
16077W        W33601   4.433   1.366   0.121  0.1272  0.2109  0.0926
16078W        W33602   3.701  14.463  14.117  0.0117 -0.0219 -0.4257
16079W        W33603  11.853  17.528  15.136 -0.0664 -0.1602  0.0735
16080W        W33604  11.605   9.051   2.275  0.0043 -0.1956 -0.0656
16081W        W33605  11.723   4.429  13.685  0.3890 -0.1196  0.0776
16082W        W33606   4.979   0.263   4.525 -0.1030  0.0878  0.0174
16083W        W33607   0.164   1.829   0.152  0.0047  0.1208 -0.0520
16084W        W33608   2.459  10.535   2.360  0.0539  0.0348 -0.0275
16085W        W33609  14.680   2.775  14.798  0.1000  0.0521 -0.0938
16086W        W33610   0.857   1.009  15.177 -0.0229 -0.1246 -0.0251
16087W        W33611   1.903   3.490   3.783  0.2796 -0.0743 -0.0775
16088W        W33612  14.116   0.478  15.155  0.0641  0.0420 -0.3056
16089W        W33613  12.753  13.733  12.464 -0.0551 -0.1656  0.1188
16090W        W33614  17.610   6.196   1.593 -0.1253  0.0361 -0.2331
16091W        W33615   0.260   4.715  12.495  0.3243 -0.4257 -0.1892
16092W        W33616  15.588  10.556   4.137 -0.1366  0.2280 -0.3119
16093W        W33617   9.665  10.583  15.359  0.0696  0.1082 -0.0235
16094W        W33618  11.199   0.472   5.995 -0.0944  0.1606 -0.3945
16095W        W33619   5.383   1.011  13.479  0.0646  0.1441 -0.3286
16096W        W33620   1.775  18.475   1.829  0.2401  0.0721 -0.0649
16097W        W33621  15.053  10.288   4.485  0.2498 -0.0238  0.1408
16098W        W33622  10.780   1.447  13.409 -0.0566 -0.4349 -0.0477
16099W        W33623  13.313   8.464   3.396 -0.0881  0.1523  0.0704
16100W        W33624   0.603   0.254  13.601  0.0190 -0.0491  0.0196
16101W        W33625  12.104  18.199   1.595  0.3026  0.0113 -0.0033
16102W        W33626  11.453   1.478   2.255 -0.0113 -0.0160 -0.1998
16103W        W33627   4.581  14.036  14.869  0.1763 -0.0193  0.3331
16104W        W33628  16.706  18.437  13.686  0.3408  0.2049  0.1333
16105W        W33629  17.423   7.758  11.693  0.1575 -0.1914  0.1673
16106W        W33630  13.807   8.508  12.473  0.2504  0.3215 -0.2144
16107W        W33631  17.099  14.057  10.566  0.1601 -0.3444  0.0021
16108W        W33632  13.685  18.028  12.660  0.0028  0.1038 -0.0695
16109W        W33633   0.860  13.854   4.901 -0.2247  0.1280  0.1414
16110W        W33634  17.060  16.451   5.939  0.1420 -0.3035 -0.2419
16111W        W33635  17.244   9.474   3.153 -0.1753 -0.0863 -0.2507
16112W        W33636   1.453  14.050   2.725  0.6144 -0.1838  0.2279
16113W        W33637  14.566   1.865   2.029 -0.0280 -0.3119 -0.5482
16114W        W33638   1.589  14.228  14.839 -0.0293 -0.3080 -0.2236
16115W        W33639  15.622  12.603  13.783 -0.2084 -0.2339 -0.0402
16116W        W33640   0.514  15.244   0.763  0.0503  0.3462 -0.0303
16117W        W33641   7.612   8.962  10.719 -0.1931  0.1145  0.1885
16118W        W33642   5.670  18.222   2.689  0.0783 -0.3678 -0.0911
16119W        W33643   8.321  15.091   2.463 -0.2370  0.0107 -0.1199
16120W        W33644  12.835  17.034   1.986  0.0215  0.0688 -0.1091
16121W        W33645  17.378   2.245   1.396 -0.0085  0.3170 -0.0208
16122W        W33646   2.174  13.125  13.974 -0.1392  0.1648  0.0269
16123W        W33647  12.046   5.882   1.286  0.0743 -0.0120  0.1517
16124W        W33648   2.539   5.475  13.922 -0.0923  0.0865 -0.1560
16125W        W33649   5.822   2.023  11.698 -0.0294 -0.1962 -0.0033
16126W        W33650   3.941   1.579  14.646  0.1151  0.1249 -0.0945
16127W        W33651   7.654   4.377   3.267  0.0213  0.3810  0.2222
16128W        W33652   6.934  14.122  15.167 -0.1782 -0.1496  0.1318
16129W        W33653   0.310   3.763   1.618 -0.6872  0.1578 -0.2849
16130W        W33654   3.891  10.194   3.522  0.1082  0.0440  0.0379
16131W        W33655   6.806  14.335   2.243  0.0391 -0.2423 -0.0675
16132W        W33656   3.573   8.782   2.779 -0.0760 -0.0119  0.2528
16133W        W33657   6.118   5.295  14.819 -0.1339 -0.0346 -0.1343
16134W        W33658  16.555  18.096  15.333  0.0581 -0.0075 -0.1343
16135W        W33659  15.677  13.906  11.515  0.0868 -0.4506  0.4618
16136W        W33660  16.459   8.361  13.851  0.0389  0.1684  0.0486
16137W        W33661   2.176   9.872  14.563  0.1854 -0.0062 -0.0701
16138W        W33662  14.657   5.882  12.065 -0.0508  0.0760  0.0747
16139W        W33663   5.279  15.273   0.059  0.1602 -0.0067  0.0164
16140W        W33664   2.978  11.324   2.827 -0.0905 -0.2065  0.1219
16141W        W33665  12.237   2.201   2.541 -0.1571 -0.0342  0.1523
16142W        W33666  11.421   0.781   0.451 -0.1599 -0.1480 -0.3986
16143W        W33667   0.432   3.283   5.119  0.0360 -0.2033  0.3047
16144W        W33668  17.561  15.585   0.662 -0.2687  0.0237 -0.2150
16145W        W33669   3.345   0.575   0.105  0.0342 -0.0573  0.2779
16146W        W33670  13.118  13.421   3.925 -0.1520  0.3431  0.1094
16147W        W33671   8.455  14.915   3.534  0.1479  0.3058  0.1747
16148W        W33672   5.211   0.392  15.642 -0.1731  0.2467 -0.2748
16149W        W33673   9.038   1.202  11.861  0.0422 -0.1591  0.0814
16150W        W33674   7.262   7.737   4.429  0.1075 -0.0489 -0.0171
16151W        W33675   3.062   8.352   1.383  0.2025  0.0219  0.0849
16152W        W33676   5.292  18.119  11.014 -0.1108  0.0675 -0.2254
16153W        W33677   7.216   0.137  14.190  0.2494  0.0807 -0.0969
16154W        W33678   1.748   2.462  13.260  0.0625 -0.0105  0.2510
16155W        W33679  12.197   4.165  12.090  0.1016  0.1193  0.2910
16156W        W33680   2.274   5.353   2.538  0.2506  0.4491  0.0291
16157W        W33681  10.235   8.089  12.361  0.2702 -0.0455  0.0934
16158W        W33682   6.634  13.305  13.673  0.3524  0.2364  0.0256
16159W        W33683   3.802   2.031  11.128 -0.2083 -0.0043  0.2648
16160W        W33684   1.370  12.731   1.735 -0.2284 -0.3471 -0.0693
16161W        W33685   8.307  16.337   4.342 -0.2152  0.0984 -0.0883
16162W        W33686   1.334   3.006  15.461  0.0663 -0.0326  0.2035
16163W        W33687   0.207  10.230   1.592  0.2795 -0.0621 -0.0939
16164W        W33688   0.642   3.229   4.494  0.2296  0.1811 -0.2480
16165W        W33689  11.109   5.851  14.771  0.2004 -0.2436 -0.1150
16166W        W33690  10.915   2.916   4.100  0.1785  0.0643 -0.2330
16167W        W33691   6.992   8.840   3.538 -0.0148  0.2390  0.2873
16168W        W33692  12.635   6.165  11.123 -0.2221 -0.0949 -0.1035
16169W        W33693  10.383   0.147   2.569  0.1750  0.0714  0.0368
16170W        W33694   4.225  16.475  11.277  0.0520  0.1140 -0.4962
16171W        W33695  11.712   4.553  10.707 -0.3465  0.3312 -0.0598
16172W        W33696  11.844   0.328   4.509  0.0937 -0.3346 -0.1178
16173W        W33697  16.963   7.464   2.723 -0.0553 -0.1423  0.0551
16174W        W33698   3.431   6.829   3.064 -0.0542  0.1358  0.2970
16175W        W33699   3.942  15.265  13.850 -0.0108 -0.0769 -0.0754
16176W        W33700   0.498  14.138   4.311 -0.0331  0.1169 -0.3525
16177W        W33701  12.615  13.901   4.207  0.1850  0.3160  0.0278
16178W        W33702   2.050  17.573   2.075  0.2532 -0.0519  0.1825
16179W        W33703   3.577   2.539   2.560  0.2792  0.0572  0.1759
16180W        W33704   0.117   9.603   1.377 -0.1758  0.0478  0.1035
16181W        W33705   2.182   0.055   3.144 -0.0342  0.3073  0.2245
16182W        W33706  11.340   5.152  12.258  0.1476  0.2932  0.0124
16183W        W33707   1.964  17.306  14.039 -0.1819  0.0082  0.0867
16184W        W33708  11.548   9.296   3.577 -0.1148  0.1530 -0.0015
16185W        W33709   3.584   8.836  14.761 -0.1241  0.3629  0.2616
16186W        W33710  12.775  16.253  11.791  0.1772 -0.0515  0.2135
16187W        W33711   4.225  13.208   2.798  0.2743  0.0253  0.1786
16188W        W33712   8.979   4.370   4.653 -0.1204  0.2615  0.0906
16189W        W33713  13.524  14.901  12.758  0.0387  0.2459 -0.0226
16190W        W33714   2.114   9.062  11.490 -0.1469 -0.1754 -0.0587
16191W        W33715   6.855   6.500  15.470 -0.1568 -0.0501 -0.2276
16192W        W33716  13.101   6.294  15.241 -0.1063 -0.0652 -0.1887
16193W        W33717   3.573   1.852   4.710 -0.2102 -0.0176 -0.0958
16194W        W33718   3.668   5.883   2.189 -0.3539  0.0807  0.2036
16195W        W33719   8.647   8.480   3.180  0.0871  0.1000  0.1428
16196W        W33720  14.760   7.304  14.053 -0.1039  0.1288 -0.0982
16197W        W33721  18.115  11.471  13.272  0.2550 -0.0414  0.0588
16198W        W33722   2.252  17.133  13.000  0.1459 -0.3521  0.0695
16199W        W33723   4.086   7.193  11.793 -0.0055 -0.1124  0.2333
16200W        W33724  11.544   1.181  12.641  0.2214 -0.2180 -0.0156
16201W        W33725  10.115  10.583  14.261 -0.2137  0.0238 -0.0612
16202W        W33726  14.927   6.764   4.543 -0.0859 -0.1786 -0.1728
16203W        W33727  14.473  12.404  11.433  0.1426  0.2936 -0.0177
16204W        W33728  14.870   4.878   0.032 -0.3886 -0.2376  0.2040
16205W        W33729   5.574  13.268   2.364  0.1282 -0.0986  0.1629
16206W        W33730   0.083  14.712   1.563 -0.3600 -0.2703  0.0205
16207W        W33731   1.923  17.683  14.343  0.0252 -0.0098 -0.2982
16208W        W33732  10.882  15.963   6.263  0.0580 -0.2611  0.3824
16209W        W33733  11.102  18.139   0.760 -0.2957 -0.1613 -0.0510
16210W        W33734  10.002   4.556  14.201  0.1244 -0.3909 -0.1466
16211W        W33735   1.316  18.215  10.844  0.4925  0.0569 -0.1703
16212W        W33736   7.622   7.628  14.267 -0.0076 -0.0204  0.0333
16213W        W33737  11.481   3.870  10.238  0.0407  0.0946 -0.1010
16214W        W33738   1.142  16.444  12.772  0.2128  0.3199  0.0485
16215W        W33739  16.237   6.611   1.666 -0.3338 -0.0468 -0.2239
16216W        W33740  16.486  10.868   2.511  0.2525  0.0100 -0.1492
16217W        W33741   1.690   4.151  12.239  0.2604 -0.0247 -0.0507
16218W        W33742   9.822  12.952  11.605  0.0843 -0.4056  0.1094
16219W        W33743   6.384   3.254   0.719  0.0474  0.1181 -0.2078
16220W        W33744  11.936  18.350  13.105  0.1122  0.0790  0.0376
16221W        W33745  10.586  14.030  13.825 -0.2113  0.0512  0.2443
16222W        W33746  18.093   8.463   1.981  0.3310 -0.0853  0.0888
16223W        W33747   3.621  14.583  11.265 -0.1542 -0.5965 -0.1131
16224W        W33748   6.980   8.495  13.686 -0.1841 -0.0089 -0.0601
16225W        W33749  15.503  12.283  14.903 -0.0525 -0.1002  0.1058
16226W        W33750   7.374  16.338   0.265  0.4336 -0.1936 -0.0309
16227W        W33751  17.884  10.177   1.030 -0.5040 -0.2080 -0.1394
16228W        W33752   1.979  11.480   3.342  0.1656  0.2479  0.1144
16229W        W33753  12.807  13.196  15.553  0.1360  0.1251  0.0192
16230W        W33754   3.597  14.303  13.373 -0.0773  0.0398  0.1274
16231W        W33755  18.263  12.034  10.232  0.1079  0.0281 -0.3713
16232W        W33756  16.430   9.929  12.389  0.1041  0.1401  0.3751
16233W        W33757  13.619  14.890  15.381 -0.0847 -0.1498 -0.0832
16234W        W33758   3.185  15.195  11.590 -0.1812 -0.5153 -0.0528
16235W        W33759   4.060  16.172  13.428  0.1944  0.1767 -0.0401
16236W        W33760  16.487  17.494   4.859  0.0398  0.2164 -0.1077
16237W        W33761   9.811   6.858   3.774 -0.0082  0.3899 -0.2379
16238W        W33762  16.394   0.682  15.414  0.1454  0.1662 -0.1785
16239W        W33763   8.588   7.369  15.389  0.3712  0.2687 -0.1063
16240W        W33764   9.239   7.771  11.730  0.0775  0.0147 -0.1991
16241W        W33765  14.040   1.236   3.594 -0.0581 -0.3936 -0.0768
16242W        W33766   1.427  12.752  13.760 -0.0189 -0.0149  0.0893
16243W        W33767   4.689   0.717   4.446  0.1396  0.2351  0.0230
16244W        W33768   4.021  15.451  15.213 -0.0025  0.0380  0.0916
16245W        W33769  10.990  15.268   1.770  0.0135 -0.1321  0.1500
16246W        W33770   5.818   1.640   0.059 -0.0926 -0.1657  0.1173
16247W        W33771   3.623   2.564  14.671 -0.2207 -0.3173 -0.0738
16248W        W33772   3.479   7.852   0.027  0.0212  0.0390  0.1432
16249W        W33773  16.006   9.501   3.744 -0.0160  0.0805  0.0113
16250W        W33774  17.939  16.832   4.316 -0.6175 -0.2089  0.0445
16251W        W33775   7.040   3.498   5.352 -0.1850  0.3076 -0.1174
16252W        W33776  17.994  13.049   2.943  0.1430 -0.0469 -0.4247
16253W        W33777   5.028  13.526   0.619  0.0104  0.1908  0.0376
16254W        W33778   1.807   9.871  11.366 -0.1656  0.1179 -0.0320
16255W        W33779   1.029  17.924  12.051  0.1763 -0.2315  0.0705
16256W        W33780  11.425  14.315   1.712  0.0612  0.1990 -0.1152
16257W        W33781  11.271  10.801   2.909 -0.4341  0.2279 -0.1350
16258W        W33782  11.938   0.831  12.144  0.2807  0.0913 -0.3027
16259W        W33783   7.275   2.403  10.982 -0.0459  0.0640  0.1457
16260W        W33784  15.896  10.138  11.668  0.4129 -0.1287  0.2976
16261W        W33785  17.350   0.747  13.642  0.2706 -0.3601  0.1164
16262W        W33786   7.158  16.759  14.772  0.0466  0.1131  0.0568
16263W        W33787   1.246  13.145  11.368  0.4224  0.0642  0.0336
16264W        W33788  12.928   0.327   3.288 -0.0868 -0.0709 -0.1956
16265W        W33789   9.982   2.333   2.422 -0.0244 -0.1350  0.1394
16266W        W33790   4.111   7.632  13.181  0.0424 -0.0213  0.2417
16267W        W33791   7.949   6.128  11.110 -0.2579  0.0267  0.0221
16268W        W33792  10.044  13.555  12.943 -0.0856  0.0244  0.1985
16269W        W33793   8.304  10.630  12.415 -0.2125  0.1697  0.0017
16270W        W33794   7.813   2.449   4.012  0.1629  0.0547  0.1636
16271W        W33795   3.224  14.995   3.216 -0.3074 -0.1568  0.1953
16272W        W33796  11.396   7.827  15.521  0.0521  0.1770  0.1876
16273W        W33797   0.338   0.726  13.860 -0.4831 -0.2132  0.1788
16274W        W33798  15.592  10.946  14.358 -0.2928  0.0451  0.0091
16275W        W33799  10.248  13.093   5.213 -0.1017  0.0357 -0.2817
16276W        W33800   7.827   2.022   4.421 -0.1856  0.2171 -0.1379
16277W        W33801   1.902  15.635  13.373  0.0329 -0.3373 -0.1655
16278W        W33802   1.454   9.758   1.865  0.0672  0.1468 -0.0313
16279W        W33803   7.286   9.954   4.890  0.0422  0.1811  0.0144
16280W        W33804   9.187  14.205   0.437  0.1377  0.0769 -0.0715
16281W        W33805  11.962  17.952  11.942 -0.1153  0.0491  0.0341
16282W        W33806   6.609   5.028   0.337 -0.2477 -0.2137  0.0384
16283W        W33807   9.829  11.984   4.281 -0.1864  0.2861  0.1590
16284W        W33808  13.957   0.957  11.713  0.1070 -0.0617  0.1506
16285W        W33809  10.597   5.493  12.879 -0.2054 -0.2034 -0.2661
16286W        W33810   1.418   7.005  11.882 -0.3578 -0.2217  0.2109
16287W        W33811  14.744   7.835  13.878 -0.0636  0.1053  0.0036
16288W        W33812   4.441   7.480  12.669  0.0929  0.2957 -0.0284
16289W        W33813   1.343  10.798  12.357 -0.2330 -0.0540 -0.0073
16290W        W33814  17.673   4.065  13.885 -0.2505  0.1530  0.0536
16291W        W33815  10.330   4.828  10.571  0.1998 -0.2379  0.0199
16292W        W33816   4.600   9.681   3.093  0.1521  0.0888 -0.0805
16293W        W33817   2.692  15.728   3.394  0.2314  0.1227  0.3637
16294W        W33818   4.705   8.210  14.616 -0.1657  0.1224  0.0411
16295W        W33819  10.758   9.073   5.770 -0.0926  0.1385  0.1264
16296W        W33820  14.393  13.055   4.753 -0.4654  0.2041  0.1956
16297W        W33821  10.095   7.083   0.641  0.1807 -0.1636  0.1404
16298W        W33822  11.051   4.663   0.314 -0.2871 -0.1631  0.1738
16299W        W33823  14.659  11.156   3.222 -0.1573 -0.4852 -0.1354
16300W        W33824  16.181   4.166  12.688 -0.0874  0.0632 -0.2244
16301W        W33825   5.326  17.116   0.411  0.2567  0.2622  0.1958
16302W        W33826  14.228  12.330   0.964 -0.0728 -0.3177 -0.3016
16303W        W33827   7.175   6.668   4.295  0.1182  0.0787 -0.0142
16304W        W33828   6.001  13.038   2.597 -0.1194  0.1483  0.0700
16305W        W33829   5.429  15.524  11.984 -0.0379 -0.0266  0.1279
16306W        W33830   0.825  16.026   1.981 -0.3833 -0.1144 -0.1555
16307W        W33831   5.257  18.286   3.928  0.2242  0.0982  0.2177
16308W        W33832   7.756   3.937  12.896 -0.0006  0.1264  0.0767
16309W        W33833   3.519   3.403  11.109  0.1066  0.3321 -0.1265
16310W        W33834  16.375  11.414  14.442  0.2043  0.0670 -0.1397
16311W        W33835  17.303  14.079   1.422  0.0703  0.1111  0.0406
16312W        W33836  15.188  15.887  12.849 -0.1758  0.1098 -0.1248
16313W        W33837   4.257  17.484   3.025 -0.1611 -0.0901 -0.2470
16314W        W33838  15.160   1.381   0.538  0.1951 -0.2139  0.0635
16315W        W33839  12.415   3.299  13.334 -0.1115 -0.1079  0.1096
16316W        W33840  14.314  14.416  14.961 -0.4052  0.0851  0.0818
16317W        W33841  10.912  16.645  12.594 -0.1985 -0.5688 -0.3195
16318W        W33842  12.877   8.701  10.547  0.1108  0.1494  0.0008
16319W        W33843   8.020  17.189  15.399 -0.1134 -0.1770  0.0540
16320W        W33844   1.216   6.653  12.088  0.0699 -0.2188 -0.2725
16321W        W33845   2.751  14.158   2.839 -0.0058 -0.3812 -0.0684
16322W        W33846   5.345  10.738   2.792  0.1299 -0.0158  0.0438
16323W        W33847  15.065   1.516   1.519 -0.0551 -0.0499 -0.1290
16324W        W33848  14.138   1.457  11.637 -0.2892 -0.0017 -0.1489
16325W        W33849   5.855   5.061  10.678  0.1396 -0.0670  0.1066
16326W        W33850  18.276   7.032   0.440 -0.0918 -0.0846  0.0206
16327W        W33851  12.913   4.024  13.528 -0.0491 -0.1100 -0.1940
16328W        W33852   1.569   0.581  12.751 -0.1686 -0.1878 -0.0398
16329W        W33853  17.918   9.868   4.605  0.1034 -0.0028  0.0680
16330W        W33854   9.682  18.344  11.510 -0.0430  0.0636  0.3778
16331W        W33855  15.289   7.011  11.288 -0.1449  0.0271  0.3078
16332W        W33856   5.070   6.317  11.813  0.1458  0.3373 -0.0647
16333W        W33857   7.573   1.680   0.743  0.0792  0.1435 -0.0880
16334W        W33858   0.779   1.147  12.531 -0.3279  0.3195 -0.1626
16335W        W33859   2.169   6.160   9.781 -0.0797  0.1305  0.0518
16336W        W33860   8.727   6.758   5.600  0.1069 -0.1728 -0.0060
16337W        W33861  15.177   3.417  11.295  0.1834 -0.0191 -0.0251
16338W        W33862   8.933   7.003  10.283 -0.1176 -0.1395 -0.2201
16339W        W33863  13.015   2.091  12.800 -0.0735 -0.1769 -0.3977
16340W        W33864   9.787  14.303  13.448 -0.0069 -0.0392  0.0472
16341W        W33865   3.367   5.779   0.422  0.1049  0.1571 -0.1766
16342W        W33866   6.824  14.496   1.256 -0.0116 -0.4852 -0.3447
16343W        W33867   5.352   7.130  11.414  0.0139 -0.2040 -0.0488
16344W        W33868   7.107   1.783   2.599  0.1525  0.3497  0.2818
16345W        W33869  11.097   0.811   2.989  0.0510  0.0586 -0.1916
16346W        W33870   8.253   6.144   4.520  0.2156 -0.3066  0.0372
16347W        W33871  17.566  17.490   2.182 -0.2653  0.2496 -0.2876
16348W        W33872   6.692  16.436  13.107  0.0401  0.1922  0.0280
16349W        W33873  17.539   6.698   1.712 -0.0746 -0.1176 -0.1409
16350W        W33874   8.617   9.388   0.645  0.3772 -0.0632 -0.0469
16351W        W33875  17.283   5.204  15.111 -0.1104 -0.0155  0.1075
16352W        W33876   2.750  14.942  15.324 -0.1444  0.0500 -0.0311
16353W        W33877  17.490   9.998  13.886 -0.0904  0.1135  0.0434
16354W        W33878   2.337   0.567  14.787 -0.0167  0.3439  0.0128
16355W        W33879   2.333   4.662  12.736  0.2029 -0.0058 -0.3086
16356W        W33880  11.082   1.478   2.641 -0.0452  0.1853  0.0797
16357W        W33881  13.681  10.059   2.853 -0.3509  0.1231  0.1012
16358W        W33882   0.042  13.041  14.549 -0.0302  0.1410  0.0954
16359W        W33883  17.296  15.761  10.978 -0.1282 -0.1879 -0.2621
16360W        W33884  13.162   3.281  11.845 -0.1374  0.0688  0.0224
16361W        W33885   0.743  14.741  14.742  0.1149  0.2714 -0.0503
16362W        W33886  18.239  18.092  12.037  0.2732 -0.1279  0.1434
16363W        W33887   8.344  10.143   4.644 -0.4328  0.2910  0.3407
16364W        W33888   7.199  13.565   4.926 -0.0092  0.2262 -0.1349
16365W        W33889  12.508   0.408   3.977 -0.2239 -0.2504  0.1012
16366W        W33890   5.444   2.599  14.609 -0.0896 -0.1100  0.1774
16367W        W33891   9.583   5.087  13.742  0.1492 -0.0387  0.4239
16368W        W33892   6.149  15.447   2.438 -0.2628 -0.2226 -0.1255
16369W        W33893   1.580   8.481   0.198  0.1263 -0.0786 -0.0686
16370W        W33894   4.622   7.732  15.417 -0.1371 -0.1811  0.2253
16371W        W33895  13.479  13.454   2.752  0.0563 -0.1029  0.2403
16372W        W33896   6.490  14.693  14.296  0.0907 -0.1398  0.0776
16373W        W33897  17.077   4.951  14.257  0.0703  0.1225  0.0875
16374W        W33898  14.480  16.111   0.102 -0.1244  0.1907  0.3433
16375W        W33899   3.227  18.222   2.337 -0.1514 -0.4820  0.1564
16376W        W33900  12.560  14.614  14.500 -0.3096  0.0192  0.0735
16377W        W33901   3.982  12.121   4.741  0.0395 -0.0525 -0.1424
16378W        W33902   1.379  14.218   1.148  0.1229 -0.1710 -0.1164
16379W        W33903   4.798   5.254  14.855  0.1952 -0.0565  0.1487
16380W        W33904  16.070  14.343  14.126  0.0427 -0.0596  0.1792
16381W        W33905   6.069   1.317  12.662  0.1985 -0.1401  0.1257
16382W        W33906  14.031   6.730  10.715  0.1103 -0.4384 -0.3655
16383W        W33907   1.351   0.789   0.104  0.0269  0.0898  0.1242
16384W        W33908   5.227   7.577   1.504  0.3460 -0.0941 -0.2508
16385W        W33909  17.464  11.868  15.544  0.0343  0.0172  0.2234
16386W        W33910   7.018  12.047  13.435  0.1742 -0.2844 -0.1198
16387W        W33911  17.808   6.900   1.305 -0.2691  0.0053  0.0075
16388W        W33912  10.770  15.287   1.330 -0.0312  0.2876 -0.1494
16389W        W33913  11.673  15.848   2.803 -0.0276 -0.1120  0.2238
16390W        W33914  16.801  12.119  15.685 -0.0122 -0.1168  0.0004
16391W        W33915   5.136   1.370  11.101 -0.1526 -0.0163  0.1206
16392W        W33916  14.427   2.658   1.684  0.0462  0.0542 -0.3636
16393W        W33917  11.974  12.748  13.055  0.2895  0.1082  0.4231
16394W        W33918  14.965  17.320  13.908  0.2227  0.1945  0.1256
16395W        W33919  16.274  11.889  11.498 -0.1525  0.0777  0.2765
16396W        W33920  11.491  11.939  11.079  0.0336  0.1061  0.1282
16397W        W33921  13.410  16.276  12.797 -0.0876 -0.0350 -0.0507
16398W        W33922  17.406   5.343  13.187 -0.4427 -0.0021 -0.2404
16399W        W33923  11.209  17.670  11.666  0.4576 -0.0510  0.2683
16400W        W33924  17.898   6.601   3.809  0.0391 -0.0331  0.0940
16401W        W33925  16.487   5.947  14.241 -0.3403  0.0202 -0.2554
16402W        W33926   6.804  15.495   0.601  0.0507 -0.3255 -0.3377
16403W        W33927   8.441  18.458   3.616  0.0399 -0.0224 -0.1509
16404W        W33928  16.039  18.363   1.300 -0.1078 -0.1375 -0.2570
16405W        W33929   2.276   2.051  14.036 -0.0678 -0.1220 -0.1112
16406W        W33930   4.437  10.063  15.177  0.0801  0.2019 -0.0876
16407W        W33931   8.455  17.459  11.792 -0.2416  0.0734  0.1935
16408W        W33932   5.154   3.327  12.673  0.3872  0.0274 -0.0558
16409W        W33933   4.369   8.192   4.261  0.3009  0.0901  0.0861
16410W        W33934  16.017  13.178  12.730 -0.2812 -0.0999 -0.0785
16411W        W33935  15.820   5.787   2.111 -0.1766  0.2626 -0.0526
16412W        W33936   8.339   2.680   0.859  0.1544  0.0238 -0.0068
16413W        W33937   5.023   9.881   0.711 -0.2822  0.0258  0.0967
16414W        W33938   7.326   8.723  15.450  0.0711  0.1881 -0.0273
16415W        W33939   2.878   9.810  15.702  0.0588 -0.0043  0.0388
16416W        W33940  12.403  11.354   0.630  0.2232 -0.2763 -0.0202
16417W        W33941  16.813   3.486   2.989  0.0830 -0.4063  0.1598
16418W        W33942   4.981  18.188  15.089  0.0689  0.0004  0.5323
16419W        W33943  10.174  18.440  11.555 -0.1245  0.2353 -0.2153
16420W        W33944   2.213   4.908  14.437 -0.0115  0.0368 -0.5870
16421W        W33945   5.235   3.406   3.078 -0.3014  0.0589 -0.0323
16422W        W33946   1.846  16.233   1.995 -0.5630 -0.0083 -0.0455
16423W        W33947   9.076   2.260   5.184  0.0911 -0.3286  0.1209
16424W        W33948   7.981   6.158   0.090 -0.3241 -0.1394  0.2888
16425W        W33949  12.086   3.700  13.822 -0.2085  0.0258  0.2992
16426W        W33950   9.647  18.171   4.439  0.0513 -0.0836 -0.1021
16427W        W33951   2.472  14.830   1.116 -0.2195  0.0753  0.1996
16428W        W33952  11.579  17.572  10.983 -0.0099 -0.0753  0.0787
16429W        W33953   4.244  12.707  15.517  0.2189 -0.1283  0.1432
16430W        W33954  17.856  10.969   2.252  0.0217 -0.1570  0.1876
16431W        W33955   3.717  15.495   0.927 -0.3490  0.0569  0.2261
16432W        W33956  14.685   6.402  13.722 -0.1321  0.2148  0.0326
16433W        W33957  14.253  13.999  13.124 -0.1793 -0.1243  0.1834
16434W        W33958   8.574   8.515   5.029  0.1326  0.1388  0.0175
16435W        W33959  16.156   7.047   1.925  0.0872  0.2384  0.1899
16436W        W33960  10.661   7.557   1.025  0.0728  0.1841 -0.3468
16437W        W33961   5.741   4.372  13.836 -0.0639  0.0169  0.0300
16438W        W33962  13.804  10.172   3.666 -0.1303 -0.0073  0.2805
16439W        W33963  16.303  17.608  13.161  0.0471 -0.1408 -0.0909
16440W        W33964  18.240  17.039   3.010  0.1063 -0.1290  0.2611
16441W        W33965  13.557   2.446   4.321  0.1023 -0.1826  0.1111
16442W        W33966   6.078  18.034  12.698  0.4197 -0.2149  0.2413
16443W        W33967   0.911  12.559  14.629 -0.0792 -0.5209  0.0603
16444W        W33968   5.676  15.737  13.901  0.3253  0.0298  0.1400
16445W        W33969   3.532   4.264  11.987 -0.1006 -0.1600  0.0037
16446W        W33970  12.832   9.318   1.232  0.0754  0.0992  0.2095
16447W        W33971  10.560  11.010  13.472 -0.1026  0.0616 -0.0296
16448W        W33972   7.354   6.821  15.340 -0.0899 -0.2474  0.2192
16449W        W33973  11.830   9.603  12.965 -0.2285  0.2820 -0.0236
16450W        W33974   4.942   0.251  14.637  0.2301 -0.2616  0.0465
16451W        W33975  15.161   9.153  11.096  0.3122 -0.1503 -0.1544
16452W        W33976   4.183   7.311   5.266  0.3801 -0.2497 -0.2791
16453W        W33977   7.370   0.508   1.359  0.2216 -0.0454 -0.2329
16454W        W33978   5.850  13.562   3.501  0.0031 -0.0667  0.2753
16455W        W33979   8.234   6.128  14.197  0.1511  0.2719  0.2285
16456W        W33980  10.462   8.166  13.148 -0.0100 -0.2664  0.1175
16457W        W33981   1.382   7.244   4.613 -0.3182  0.1593 -0.3659
16458W        W33982   3.642   7.635  15.112 -0.0270 -0.2329  0.0092
16459W        W33983  10.606  12.575   0.394 -0.1578 -0.1575  0.2904
16460W        W33984   1.089  18.456   6.236  0.1955  0.0949 -0.1121
16461W        W33985   6.115  11.221  11.941  0.0257 -0.1936  0.0913
16462W        W33986  13.284  12.140   4.293 -0.2551 -0.0905 -0.2159
16463W        W33987   3.972   2.523  15.591 -0.1455  0.1227 -0.1886
16464W        W33988   8.774  14.668  13.079  0.0239  0.1471  0.2159
16465W        W33989   6.296  11.395  12.409 -0.0281 -0.2915 -0.1905
16466W        W33990  11.069  12.316   0.154  0.1649 -0.1338  0.1131
16467W        W33991   3.778   9.901  12.821 -0.2328  0.2648  0.0339
16468W        W33992  14.988  16.743  13.978  0.1637 -0.2557 -0.0368
16469W        W33993   8.669  14.612  11.978  0.1659  0.0906  0.2640
16470W        W33994   9.638   6.904  11.623  0.2773  0.0944 -0.2291
16471W        W33995  13.411  13.224   3.558 -0.3882  0.0617 -0.3505
16472W        W33996  16.891  10.151   4.299  0.0509 -0.1529  0.1456
16473W        W33997  17.101   1.309  14.997 -0.3170  0.0666 -0.2374
16474W        W33998   1.057  11.131  10.483 -0.1660 -0.1370 -0.1358
16475W        W33999   4.567   4.056  14.444 -0.0109  0.1848  0.0556
16476W        W34000   0.019  17.300   5.189 -0.0142  0.2241 -0.1854
16477W        W34001  17.713  13.505  14.404  0.6260  0.3527 -0.1749
16478W        W34002   2.431   1.274  14.752 -0.0533 -0.0361  0.2346
16479W        W34003  15.458   6.934   4.586 -0.2786 -0.1228 -0.0432
16480W        W34004  12.521  17.512  13.188  0.3742  0.2040  0.1934
16481W        W34005   2.829   7.114  11.107 -0.1214  0.4004 -0.3307
16482W        W34006  15.945  14.994   2.448  0.0109 -0.1227 -0.1903
16483W        W34007   8.403   9.070  14.280 -0.3976 -0.1100  0.0518
16484W        W34008   5.819   7.498   1.730 -0.1526 -0.0595  0.1322
16485W        W34009  16.180  11.685   2.406 -0.0216 -0.4170  0.4929
16486W        W34010  16.995  16.084   3.267 -0.0642 -0.2293  0.4520
16487W        W34011  14.687   8.573  15.396  0.1337 -0.1291  0.1661
16488W        W34012   5.242   8.728   1.601  0.0722  0.1539  0.1894
16489W        W34013   6.507  12.613  12.003 -0.3286 -0.0854 -0.0148
16490W        W34014   6.860  10.251  11.564  0.5960 -0.2499  0.0189
16491W        W34015   1.329   7.921   2.582 -0.0275  0.0652 -0.0921
16492W        W34016  17.533   2.786   2.456  0.0199  0.0200  0.1362
16493W        W34017  17.152   2.575   0.447  0.3116  0.2912  0.1604
16494W        W34018   5.925  13.755  14.011 -0.1569  0.0440  0.0288
16495W        W34019  15.299   1.198   0.989 -0.1450  0.2316  0.0937
16496W        W34020   1.216   3.924  14.058 -0.3811 -0.0653 -0.2193
16497W        W34021  18.216  14.519   0.899  0.0395 -0.1484 -0.1343
16498W        W34022   4.500  16.606  12.796 -0.1684  0.0232 -0.2089
16499W        W34023   5.915  16.941   3.509  0.0709 -0.1549  0.0033
16500W        W34024  10.954   6.328  15.015  0.1129  0.1455  0.0822
16501W        W34025   5.836  12.552  12.723 -0.2508 -0.0533 -0.0611
16502W        W34026  12.693   1.353  12.537 -0.0551  0.0879  0.0118
16503W        W34027   6.411   9.181  15.301 -0.0904  0.4686 -0.1726
16504W        W34028  10.975  11.702  11.909  0.0095  0.0054 -0.0198
16505W        W34029   1.871   9.080   3.292 -0.1804 -0.0086  0.2589
16506W        W34030   0.500   8.021   3.729 -0.2678  0.1665 -0.0280
16507W        W34031  16.784   5.847   4.450 -0.1431 -0.0927  0.0718
16508W        W34032  12.421   5.707   4.616 -0.1485 -0.1196  0.2350
16509W        W34033   6.432  17.641  12.606  0.0246  0.0149  0.1340
16510W        W34034   5.857   7.933   2.507 -0.2888  0.0325  0.0814
16511W        W34035  11.249  18.457   3.199  0.1116 -0.1186  0.0268
16512W        W34036   4.963   5.501   3.924 -0.0413  0.1599  0.1950
16513W        W34037   9.393  12.460  11.027  0.0245 -0.1573 -0.0342
16514W        W34038  17.471  18.047   4.724 -0.1161 -0.1428 -0.0002
16515W        W34039   8.743   7.537   3.898  0.2056 -0.0176  0.1150
16516W        W34040  16.877   3.679   1.832  0.1028  0.1399 -0.0125
16517W        W34041   3.342  11.185  12.954  0.1962  0.3604  0.0877
16518W        W34042  17.265  11.737  15.081 -0.0864 -0.1193  0.2711
16519W        W34043   0.713  12.798  15.066 -0.1286 -0.0208 -0.1869
16520W        W34044   7.946   3.107  12.283  0.1220 -0.0260  0.0965
16521W        W34045   9.824  11.876  14.052  0.0858 -0.2408  0.1257
16522W        W34046   5.385   8.437  13.093  0.1573 -0.1227  0.1803
16523W        W34047   5.470   4.698   3.469  0.1386 -0.3318  0.1155
16524W        W34048   6.509   9.643  11.180  0.0304  0.0370  0.2303
16525W        W34049  13.745   6.999  12.937 -0.2421 -0.0248 -0.0981
16526W        W34050   6.655   0.690  13.517  0.1970  0.1915  0.0298
16527W        W34051   2.988  12.436  14.778 -0.0941 -0.0998  0.0842
16528W        W34052   5.698  15.369  14.334 -0.1719  0.0660 -0.0502
16529W        W34053   2.685  10.588   3.233 -0.1277  0.2660 -0.0358
16530W        W34054  10.816  16.639   1.677  0.0294  0.1043  0.1237
16531W        W34055  17.747  17.928   2.019 -0.1343 -0.0498 -0.3224
16532W        W34056  15.041   0.287   3.315  0.2113  0.1623 -0.0586
16533W        W34057   6.646   0.111  15.078  0.0886  0.3152 -0.4716
16534W        W34058  13.079   2.172   5.698  0.2360 -0.0793  0.1433
16535W        W34059   7.820   8.912  12.284 -0.4035 -0.0758  0.0908
16536W        W34060   0.687   7.551  14.934  0.1621 -0.0614 -0.2651
16537W        W34061   2.347  11.852  15.721 -0.2568  0.2983 -0.3051
16538W        W34062  10.701  12.743   0.882 -0.1981 -0.4139  0.0229
16539W        W34063  16.001   8.812  11.139  0.2239 -0.1501  0.0347
16540W        W34064   4.303  17.181  14.768 -0.1063 -0.0521 -0.3339
16541W        W34065   2.828  14.540   1.341  0.2662  0.0229 -0.0748
16542W        W34066  11.343  16.236   3.128  0.1575  0.1974  0.2088
16543W        W34067   8.400  17.683   0.971 -0.3751 -0.1049 -0.0609
16544W        W34068   1.765  15.083   3.527 -0.0317 -0.0490  0.0016
16545W        W34069  10.659   7.263  12.761 -0.1891  0.0826  0.1002
16546W        W34070  16.792   1.430  15.487 -0.2427 -0.2481  0.1709
16547W        W34071  13.258   9.398  11.289 -0.0836 -0.0813  0.0589
16548W        W34072   9.313   0.629  10.949  0.3861  0.0907 -0.0426
16549W        W34073   3.668  13.579   1.992  0.0063  0.1066 -0.1001
16550W        W34074  16.822  10.627  12.052 -0.0263  0.0904  0.0160
16551W        W34075  16.287  13.352   4.138 -0.2280  0.0445 -0.0618
16552W        W34076   2.554   8.890  11.575 -0.4184 -0.0126 -0.1643
16553W        W34077   3.018   8.024  11.235 -0.1318 -0.1313 -0.1525
16554W        W34078   8.309   9.947   0.945 -0.0005  0.4061  0.1173
16555W        W34079   3.661  18.398  14.346  0.1131 -0.2748  0.1102
16556W        W34080   1.224   1.593   2.956 -0.0438 -0.0528  0.0304
16557W        W34081  16.484  13.475  11.683 -0.2557  0.3471 -0.0910
16558W        W34082  16.145   0.058  13.666  0.1817  0.1660  0.1758
16559W        W34083   1.023  15.342   0.864 -0.0317 -0.2612  0.0539
16560W        W34084  11.518  11.341  11.148 -0.1109  0.2888 -0.0418
16561W        W34085   1.485   8.121   4.233 -0.3249 -0.0964  0.1452
16562W        W34086  15.073  13.742  11.600 -0.1921 -0.0812 -0.1092
16563W        W34087  12.806  10.526   4.488  0.3989  0.3983  0.0871
16564W        W34088   6.087   3.572  13.965 -0.0766  0.3842  0.1221
16565W        W34089  13.211   3.654  15.001 -0.2013 -0.1609 -0.4031
16566W        W34090  13.356   9.128  13.850 -0.0788 -0.0640 -0.0630
16567W        W34091   8.997   6.107   4.981  0.0755  0.2975  0.0141
16568W        W34092   4.012  14.325  12.381 -0.2768 -0.0195  0.1922
16569W        W34093   6.827   7.657   1.125  0.0288 -0.3969 -0.0748
16570W        W34094  17.825  12.109   0.872  0.1634  0.0502  0.3444
16571W        W34095   3.219   7.965  13.051 -0.1241  0.1157  0.2029
16572W        W34096   4.754   2.396   5.929 -0.0437 -0.0470 -0.3112
16573W        W34097   7.689   5.770  12.057 -0.2365  0.3545  0.0424
16574W        W34098  14.773   8.458   2.523  0.0311  0.0008 -0.3865
16575W        W34099  13.577  16.719  11.090 -0.1665 -0.1289 -0.0982
16576W        W34100  13.883  17.666   0.561 -0.2483  0.0021  0.0110
16577W        W34101   2.433  15.587  10.949 -0.0502 -0.2620  0.0242
16578W        W34102   1.472   9.125   1.126  0.1631  0.0346  0.3035
16579W        W34103  14.124  14.339  14.476  0.2098 -0.0726  0.0049
16580W        W34104   6.074  10.688  15.114 -0.0253  0.0859 -0.1131
16581W        W34105   3.465  10.973   3.842 -0.1466  0.3387  0.1932
16582W        W34106   5.768   8.998   1.263  0.1774 -0.1003  0.2658
16583W        W34107   2.468   4.817  12.242  0.1669 -0.2893  0.1372
16584W        W34108   9.134   8.033  13.565 -0.0527 -0.4373  0.1891
16585W        W34109  11.294   2.426   2.517 -0.2135 -0.2737  0.2498
16586W        W34110   1.509  16.767  12.956 -0.1068 -0.0915  0.3207
16587W        W34111   9.901  18.430  10.101  0.1658 -0.1600  0.3213
16588W        W34112   2.861  13.972   1.872 -0.1098 -0.0374 -0.1212
16589W        W34113  17.178  13.658   2.389  0.1004 -0.0216  0.0815
16590W        W34114  18.132  14.387  12.001  0.1039 -0.4698 -0.1462
16591W        W34115  11.277  18.218  15.565  0.0821 -0.2261 -0.1500
16592W        W34116   6.000   8.256   0.684  0.0514 -0.3566 -0.0340
16593W        W34117  12.796   0.219   2.182  0.0675  0.2253 -0.1801
16594W        W34118   2.807   6.017  14.196  0.0022  0.0434  0.2794
16595W        W34119  16.793   9.496   2.874 -0.1650 -0.2521  0.1182
16596W        W34120   6.696   5.781  14.024  0.0912 -0.1313  0.0955
16597W        W34121  10.757  15.721  15.292  0.1338 -0.0022  0.2284
16598W        W34122  13.749   8.049   2.528 -0.1978  0.0592  0.1557
16599W        W34123   3.297   9.670  12.334 -0.1692 -0.2393  0.4356
16600W        W34124   9.555  10.480  11.175  0.3186  0.1385 -0.0979
16601W        W34125   1.820   3.639  14.217 -0.3905 -0.1194 -0.0964
16602W        W34126  13.362   8.142   3.817 -0.2255 -0.1521  0.0569
16603W        W34127   7.368   0.620  14.356 -0.2998 -0.1494 -0.2705
16604W        W34128  10.805  14.958  14.826  0.3509 -0.4534  0.0220
16605W        W34129  16.785  11.253   2.719 -0.0009 -0.1733  0.0233
16606W        W34130  15.656  16.948   2.418  0.2019  0.2117 -0.2458
16607W        W34131  18.259  12.747   5.023 -0.0755  0.1354 -0.0437
16608W        W34132  13.543  15.961  12.068 -0.0332  0.3781 -0.3097
16609W        W34133   7.018   2.330  14.472 -0.4305  0.1661  0.0556
16610W        W34134   6.938  14.587  15.366 -0.2102  0.1782 -0.2300
16611W        W34135   3.437   1.426  13.755  0.2333 -0.1362  0.0748
16612W        W34136   7.627  13.686   4.643 -0.0275 -0.1268  0.1479
16613W        W34137   3.175   0.874   2.056 -0.2552 -0.1892  0.1942
16614W        W34138   0.199   1.050   4.599  0.1717  0.1719  0.0335
16615W        W34139  13.798  15.457   1.911  0.0482  0.1527 -0.0216
16616W        W34140  10.903   5.154  12.512 -0.0424 -0.2464 -0.0668
16617W        W34141  16.904  15.620  12.244  0.1122  0.0389 -0.0022
16618W        W34142   1.718  13.739  14.934 -0.1534  0.1973 -0.3186
16619W        W34143   5.814   0.640  11.324 -0.0508 -0.1348  0.2656
16620W        W34144  10.294  12.453   5.790  0.0291  0.1217 -0.0939
16621W        W34145   8.032  13.362  11.482  0.2731  0.0141  0.0393
16622W        W34146   6.085   6.721  10.901 -0.0552  0.1115 -0.0675
16623W        W34147  12.812   6.668   3.043  0.3479 -0.4569 -0.2439
16624W        W34148   0.959  11.263   3.465  0.0945  0.1328 -0.0228
16625W        W34149   9.250   5.758   1.476 -0.2134 -0.3933  0.0515
16626W        W34150  14.257   5.052  12.038  0.1663  0.1737 -0.2735
16627W        W34151   1.292  11.512   1.177  0.0108 -0.0418  0.2179
16628W        W34152  10.845  10.913   3.282  0.0270  0.1171  0.1403
16629W        W34153   1.404  15.710   0.818 -0.3216  0.0834  0.1739
16630W        W34154  17.821   3.632   0.626  0.4708  0.1690  0.1910
16631W        W34155   0.124  10.819   1.770  0.1895 -0.1095 -0.0682
16632W        W34156   5.637   7.159   1.118  0.3097  0.1248  0.2603
16633W        W34157  16.673  17.095   3.465 -0.2160  0.1096  0.0574
16634W        W34158   1.312   0.453   1.090 -0.2930  0.3285  0.1735
16635W        W34159   7.313  15.966  14.174  0.1501  0.0928 -0.1140
16636W        W34160   2.502   5.246   0.004  0.4420 -0.0674 -0.0806
16637W        W34161  17.618   5.891   2.033  0.0915 -0.4096  0.2811
16638W        W34162  14.069  12.844   0.580 -0.3584 -0.1717  0.2688
16639W        W34163   9.815  14.557   1.136  0.1034  0.4807  0.0179
16640W        W34164   6.894   3.887   0.130  0.0055 -0.1724 -0.2538
16641W        W34165  13.420   0.735  11.394 -0.0072  0.2353  0.1330
16642W        W34166  16.337   4.335   1.725 -0.1762  0.2114 -0.2867
16643W        W34167   7.559  12.045   3.559 -0.2222  0.4273 -0.2096
16644W        W34168  10.103  15.514  13.412  0.0300  0.1310 -0.0383
16645W        W34169   9.459  14.262   2.920  0.1394 -0.0766 -0.0356
16646W        W34170  15.728   9.899  14.472  0.1255 -0.1209 -0.3413
16647W        W34171   4.504   4.658  10.546 -0.1809 -0.3715  0.0969
16648W        W34172  12.453  15.276   2.008  0.1381 -0.0866 -0.1426
16649W        W34173  17.568   9.920   3.706  0.1122 -0.1984  0.6279
16650W        W34174   8.986   1.379   0.499  0.0778 -0.1625 -0.2337
16651W        W34175   6.317  12.595  12.949  0.0143  0.1953 -0.0124
16652W        W34176  17.391  10.463   0.287  0.2079  0.1675  0.0032
16653W        W34177  10.375   8.816  14.206  0.2354 -0.1639 -0.1139
16654W        W34178   7.145   8.953  13.571  0.1162 -0.0879 -0.0972
16655W        W34179   9.445  11.638   1.969 -0.0263 -0.0771  0.1506
16656W        W34180   5.238  18.363  14.732  0.0165 -0.1283  0.0820
16657W        W34181   0.775  16.099   1.444 -0.1911  0.2166 -0.2464
16658W        W34182  15.041   0.579   4.734  0.0768  0.0647 -0.2064
16659W        W34183  11.510   2.842  15.602  0.2113  0.0491 -0.1124
16660W        W34184   5.151  11.469  13.278 -0.0390  0.3536 -0.0531
16661W        W34185   6.331   0.479  11.420 -0.2585  0.1713  0.0956
16662W        W34186  14.438  16.773  13.412 -0.0960  0.0787 -0.3310
16663W        W34187  14.735   8.821  14.124  0.3707  0.0190 -0.4576
16664W        W34188   7.487   7.868  14.748  0.5748  0.1092  0.2347
16665W        W34189   0.693  17.849  13.817 -0.0640  0.0018 -0.2712
16666W        W34190  16.227  11.399  11.366 -0.2197  0.1361 -0.0409
16667W        W34191   2.670  12.179   4.828 -0.0739 -0.2146 -0.0831
16668W        W34192   0.675   6.812   1.424  0.0433  0.1424 -0.1119
16669W        W34193  14.799   4.943   2.917  0.6094 -0.1702  0.3112
16670W        W34194  14.962  10.475  10.456 -0.0613  0.2423 -0.0834
16671W        W34195   3.402   3.700  13.998  0.2267 -0.0595 -0.1188
16672W        W34196   9.776   1.935   0.847  0.0087 -0.1102  0.2593
16673W        W34197  17.714  11.038   0.751  0.0251 -0.1468 -0.2062
16674W        W34198  14.108   5.256  12.633 -0.0479 -0.0170 -0.0597
16675W        W34199   3.566  11.424  14.341  0.0662 -0.0852  0.1478
16676W        W34200  10.921   4.333  11.000 -0.4476 -0.1392 -0.1978
16677W        W34201   3.737   6.138  12.342 -0.2582  0.0341 -0.0176
16678W        W34202   5.661  13.050  10.816  0.3088 -0.1283 -0.0141
16679W        W34203   7.824  16.409  15.698 -0.2232  0.0605  0.0699
16680W        W34204   0.427  15.451  13.979  0.0994 -0.2776  0.2101
16681W        W34205   8.794  16.585  15.192 -0.0704 -0.0380  0.2896
16682W        W34206  13.163  16.868   2.319  0.2039  0.0926  0.1470
16683W        W34207   0.331   6.995   2.206 -0.0921  0.0931 -0.2610
16684W        W34208   9.356  17.329   3.988 -0.4273  0.1562 -0.0012
16685W        W34209  10.674   5.030   0.096 -0.1591 -0.0070 -0.0654
16686W        W34210   0.256  11.151   2.147  0.0084  0.1984 -0.1574
16687W        W34211  13.728   9.051  10.602  0.1586  0.3582 -0.0002
16688W        W34212   3.612   2.662   3.557 -0.0963 -0.3694  0.0821
16689W        W34213   5.438  12.873   4.514  0.1041  0.0073 -0.0430
16690W        W34214   5.686  15.087   1.251  0.1229  0.2033  0.1463
16691W        W34215  13.710  11.537   3.141 -0.1352  0.1330 -0.1496
16692W        W34216  12.929   6.789   4.518  0.0362 -0.0198 -0.3110
16693W        W34217  14.695  15.205   1.784 -0.0875 -0.1668  0.1007
16694W        W34218  11.488  16.773  13.539 -0.1498 -0.2259 -0.0136
16695W        W34219   6.546  16.783  13.992 -0.1043  0.0112 -0.2924
16696W        W34220   3.062   6.280  10.371  0.0683  0.0511  0.1330
16697W        W34221  12.432   8.212  15.236  0.2094  0.0904  0.2392
16698W        W34222  17.345  14.788  13.508 -0.0458 -0.1108 -0.1297
16699W        W34223  16.679  13.111   2.975 -0.0846 -0.0205  0.1489
16700W        W34224  18.358   1.444   1.062 -0.2298 -0.0314  0.2388
16701W        W34225  11.052   7.164  13.701  0.0940 -0.0098 -0.3652
16702W        W34226   9.812  15.307  13.789 -0.0479  0.1120  0.1368
16703W        W34227   2.800   0.528   1.987  0.1096 -0.0147 -0.0176
16704W        W34228  18.252  16.975   3.506  0.1418 -0.1765  0.1821
16705W        W34229   4.469  12.073  11.683 -0.1431  0.0330  0.1905
16706W        W34230   3.972  13.117  15.693  0.1466  0.3316 -0.1794
16707W        W34231  15.193  11.842   3.753 -0.1360  0.1084  0.1743
16708W        W34232  17.670   2.431  14.263  0.2071  0.0435 -0.1458
16709W        W34233  16.754   4.932   2.092 -0.0798  0.0656 -0.0479
16710W        W34234   0.721  16.547   4.303  0.0831 -0.2267 -0.0119
16711W        W34235   8.727  11.997   0.713  0.0867  0.2351  0.3815
16712W        W34236  15.034   7.115   1.907  0.0919 -0.0415 -0.0686
16713W        W34237   8.200   6.304   3.258 -0.0830 -0.2592 -0.2738
16714W        W34238   5.442  16.587   0.938  0.0053 -0.1748 -0.0190
16715W        W34239   5.815   7.702   3.340 -0.0014  0.0032 -0.2175
16716W        W34240  17.223   6.608  13.042  0.2319 -0.2794  0.2171
16717W        W34241  13.178  13.621  12.149 -0.0399  0.0680  0.0315
16718W        W34242  11.086  11.870   2.507 -0.1681  0.1214  0.2881
16719W        W34243   5.036  17.979  14.110 -0.0712 -0.1242  0.3215
16720W        W34244  10.836   1.882  10.827  0.0547 -0.1407  0.0817
16721W        W34245   3.563   0.930   3.029  0.0586  0.0312  0.2165
16722W        W34246  17.870   4.939  14.605 -0.0468 -0.2209  0.1102
16723W        W34247  11.731   2.561  15.157 -0.3386  0.3150 -0.1813
16724W        W34248   9.726  14.742  13.154 -0.0083  0.1049 -0.1181
16725W        W34249   4.529   9.534   1.287  0.2505 -0.0622  0.2060
16726W        W34250  11.991  15.573  13.676  0.1086 -0.0262 -0.2136
16727W        W34251   5.249   0.651  11.074 -0.0492  0.0366  0.0876
16728W        W34252  18.439   9.183   9.485  0.0650  0.1832  0.0143
16729W        W34253  12.400  14.120   0.719 -0.1519  0.0517  0.0885
16730W        W34254   3.880  15.014   1.928  0.0592  0.0325 -0.3589
16731W        W34255  10.182   7.365  14.130 -0.0696 -0.0266  0.0644
16732W        W34256   0.269   5.991   0.472  0.0921 -0.0347  0.0648
16733W        W34257  12.800   9.883  11.982  0.0456 -0.1674 -0.3408
16734W        W34258  13.919   7.776  15.695 -0.1950  0.1167 -0.0029
16735W        W34259   7.678   5.671  12.950 -0.1817 -0.2222 -0.0999
16736W        W34260  15.283  11.051  15.685  0.2506 -0.2951 -0.0837
16737W        W34261   6.040   7.187   0.778  0.1156  0.1225  0.0126
16738W        W34262   3.345   0.456   2.938  0.0132 -0.2263 -0.1340
16739W        W34263   3.050   7.259   2.581 -0.0840  0.0695  0.0244
16740W        W34264  15.301  14.257  13.093 -0.0624  0.0038  0.2852
16741W        W34265   7.287   3.531  11.164 -0.3829  0.0878 -0.2475
16742W        W34266   9.495  16.538   0.111 -0.1325 -0.0108 -0.1236
16743W        W34267  15.841  10.643  12.932  0.2906  0.1941 -0.1075
16744W        W34268   0.838   2.303   0.393  0.1608  0.3206 -0.4169
16745W        W34269  11.553  11.921   3.849 -0.1700  0.1585 -0.0448
16746W        W34270   9.058   4.108  11.865 -0.0367 -0.3871 -0.1916
16747W        W34271   5.943   0.998   3.211  0.4832  0.0021  0.1741
16748W        W34272   5.440   8.511   4.567 -0.0927  0.0132  0.3429
16749W        W34273  14.871  11.283   3.939 -0.1723 -0.0587  0.1554
16750W        W34274   5.565  12.928   1.093 -0.1092  0.0964  0.2556
16751W        W34275   1.952   0.202  12.503  0.0623 -0.2437 -0.1814
16752W        W34276  14.973   1.439   2.738  0.1175 -0.0549  0.2663
16753W        W34277   0.233   9.657   5.769 -0.2986  0.0797 -0.1338
16754W        W34278   8.859   6.059  15.333 -0.2154  0.0536  0.0916
16755W        W34279  10.305   0.498   4.073  0.0069 -0.2081  0.0353
16756W        W34280   5.416  16.946  12.006 -0.0518  0.2014 -0.1148
16757W        W34281  11.299  17.758   2.608  0.2571  0.3165 -0.0452
16758W        W34282   9.698   8.749  15.182  0.0416  0.1089  0.1311
16759W        W34283   2.813   4.809   1.568  0.0405 -0.4027 -0.3473
16760W        W34284   3.515  15.850   3.586 -0.2029  0.2007  0.1218
16761W        W34285   5.265  16.189  13.906 -0.2786  0.0496  0.0445
16762W        W34286   2.473  18.234   4.261 -0.1463  0.3073 -0.0218
16763W        W34287   1.277   3.496   2.577  0.1197  0.0610  0.0313
16764W        W34288   0.256   0.765  15.627 -0.2883  0.2853 -0.0235
16765W        W34289   0.087   0.319  14.813 -0.2067 -0.0011 -0.0215
16766W        W34290  15.049   5.481  12.390  0.1557 -0.0565  0.2375
16767W        W34291   8.259   8.580   1.065 -0.0563 -0.1258 -0.2655
16768W        W34292   2.181  10.180   1.220 -0.1829 -0.1486  0.1395
16769W        W34293  11.022   2.398  13.170 -0.0005 -0.0238  0.0727
16770W        W34294   0.196   0.610   2.871 -0.1840  0.1558  0.1057
16771W        W34295   9.625  17.716  12.138  0.4921  0.2170  0.1079
16772W        W34296  11.394   5.013  11.542  0.0078  0.0781  0.0554
16773W        W34297  15.583  10.005   0.041  0.0763  0.2897 -0.1739
16774W        W34298   1.811   0.838  11.048 -0.0501  0.2741 -0.1360
16775W        W34299  10.718   4.821   0.830 -0.0440 -0.1507 -0.2751
16776W        W34300  15.491   6.677  13.324 -0.1017 -0.2027  0.1835
16777W        W34301   0.182   2.101   2.927 -0.0919 -0.1139  0.0626
16778W        W34302  17.457   2.576  15.694 -0.0463  0.3419 -0.2770
16779W        W34303   1.710  15.619   3.702 -0.0595 -0.1860  0.1721
16780W        W34304   3.518  15.031  14.141  0.0066 -0.1870 -0.1126
16781W        W34305   9.435   7.727  15.491  0.2599 -0.2158  0.0449
16782W        W34306  12.605   6.418  15.156  0.1482  0.0270 -0.0064
16783W        W34307  18.419   6.959  13.917 -0.2610  0.1101  0.3517
16784W        W34308   7.538  11.927  14.344  0.1888 -0.2369 -0.0464
16785W        W34309   3.654  17.809   0.394  0.3750 -0.1511  0.0521
16786W        W34310  12.570   7.528   1.426  0.2409 -0.3417 -0.0805
16787W        W34311  17.865  15.101   1.504  0.2036 -0.1200  0.0502
16788W        W34312  10.159   2.384  13.489  0.1265 -0.1182 -0.0827
16789W        W34313   7.324  14.082   3.882 -0.0885  0.1920 -0.1617
16790W        W34314   0.997   5.120   1.308 -0.0259 -0.1585  0.0877
16791W        W34315   1.806   5.631   1.417 -0.1211 -0.3424  0.0629
16792W        W34316  16.947   0.446   3.150  0.0120  0.0665  0.0155
16793W        W34317  16.331   3.894  11.841 -0.0463 -0.0375  0.0957
16794W        W34318   8.595   2.191  12.515  0.2929  0.0487 -0.2375
16795W        W34319  18.346   3.819   3.919  0.1213  0.1986 -0.0270
16796W        W34320   2.785   4.131   1.049  0.0875 -0.0031  0.0011
16797W        W34321   0.871   7.735  11.792  0.0428 -0.0771 -0.3079
16798W        W34322   1.553  17.352   2.083 -0.4703 -0.0926 -0.1236
16799W        W34323  12.453   7.937   1.132 -0.3254 -0.0350 -0.1116
16800W        W34324  12.433  10.001  14.952 -0.1322 -0.1149  0.0871
16801W        W34325  14.961   2.338   4.443 -0.3596  0.3626 -0.0410
16802W        W34326  17.149   7.911   2.005  0.2047 -0.0722  0.1284
16803W        W34327  15.380  12.474   4.639  0.1002  0.1842  0.0949
16804W        W34328  16.972   6.567   2.606  0.1314  0.0304 -0.3201
16805W        W34329   2.765   2.439   4.497 -0.1982  0.0598  0.0299
16806W        W34330   9.273   7.895   5.061  0.1568  0.0942  0.3752
16807W        W34331   6.048   4.419   0.059 -0.2388  0.3248  0.3665
16808W        W34332  12.937  11.410  12.781  0.1428 -0.3573  0.4922
16809W        W34333   7.059   0.782   4.203 -0.0057 -0.0638  0.0037
16810W        W34334  16.081   7.594   3.175  0.1002  0.1931  0.1533
16811W        W34335   0.508  15.364   4.882  0.2738 -0.2638  0.0493
16812W        W34336  10.389   1.201  14.522  0.0074  0.0078  0.0149
16813W        W34337  15.354   3.716   3.113  0.2946 -0.0400  0.2121
16814W        W34338   2.639   5.266   0.599  0.2276 -0.3040  0.2465
16815W        W34339  13.563  11.901  13.313  0.0536 -0.2063  0.0777
16816W        W34340  10.318   0.842  11.205 -0.1600  0.3230  0.2005
16817W        W34341   3.051   6.448   3.843 -0.0272  0.0852 -0.0314
16818W        W34342  17.219   8.836  11.016  0.0890  0.0550 -0.3453
16819W        W34343   3.682   2.033  13.858 -0.2982  0.0620 -0.0549
16820W        W34344   9.754  15.551  10.558  0.0974  0.1560 -0.0744
16821W        W34345  12.606  15.693   4.378  0.0369  0.2731 -0.0192
16822W        W34346   0.233   3.121   4.192 -0.1207  0.0573 -0.1142
16823W        W34347   1.571   2.078   2.879 -0.0837 -0.0774 -0.1965
16824W        W34348   6.816   5.958  13.167  0.2408  0.2329 -0.0607
16825W        W34349  15.175  10.941   3.334  0.0093  0.3241  0.0904
16826W        W34350   0.403   0.411  15.224 -0.3082  0.1150 -0.0876
16827W        W34351   5.951  16.526  13.235 -0.1279  0.1551  0.0039
16828W        W34352  11.532  15.912  14.779  0.0427 -0.1898  0.2571
16829W        W34353  16.024   3.494   1.861 -0.0737  0.0241  0.3268
16830W        W34354   0.321   7.267  14.051  0.2543  0.1618  0.0337
16831W        W34355   3.059  14.160  12.530 -0.0504 -0.0096  0.0268
16832W        W34356   7.670   0.149   4.628  0.5163  0.1119  0.0164
16833W        W34357   3.509  12.447   0.369 -0.0911  0.0317  0.1156
16834W        W34358   4.028   9.477   4.795  0.1310 -0.2860  0.1156
16835W        W34359   1.565   3.660   4.390  0.2817  0.4096 -0.3390
16836W        W34360  10.364  15.029  14.979  0.1896 -0.0620 -0.4780
16837W        W34361  10.859  10.669   2.540  0.2911 -0.4128 -0.0252
16838W        W34362   9.151   9.880   4.836 -0.0290  0.2380  0.3403
16839W        W34363  11.389   7.024  14.761 -0.3410 -0.0942 -0.2002
16840W        W34364   3.145   1.340  11.312  0.0950  0.0906  0.1466
16841W        W34365   7.823  17.323  12.894  0.0044 -0.1159 -0.1237
16842W        W34366   1.614   6.490   1.319  0.0058 -0.3444  0.0497
16843W        W34367  10.993   9.403  11.583 -0.0888  0.0826 -0.1093
16844W        W34368   3.987  15.173   0.499  0.0522  0.2189 -0.1647
16845W        W34369   2.688   0.043   2.292 -0.0577  0.2224  0.1433
16846W        W34370   3.304   0.633   3.433 -0.1291 -0.0439  0.0833
16847W        W34371  17.575  16.695   3.865 -0.1775  0.1232  0.0896
16848W        W34372   4.335   5.238  14.055 -0.1707  0.1414 -0.1613
16849W        W34373   9.119   1.501   0.964 -0.0869 -0.0148  0.0663
16850W        W34374  12.299  14.220   4.711 -0.2386  0.2343 -0.0296
16851W        W34375  13.003   7.170  12.324  0.2768  0.2080  0.1188
16852W        W34376  11.843   2.395  12.082  0.0229  0.3053  0.1703
16853W        W34377  13.613   0.662  15.302  0.0127 -0.1033 -0.0418
16854W        W34378  10.800   8.448   3.462  0.2870 -0.2608 -0.0151
16855W        W34379   8.376  11.564  14.886  0.0465 -0.0385 -0.5488
16856W        W34380   2.226  16.868   0.584  0.0894 -0.1675  0.1415
16857W        W34381  13.395  15.783  13.436 -0.1809 -0.2991  0.0372
16858W        W34382   4.508  12.271   2.071 -0.1218 -0.1800  0.3911
16859W        W34383  16.243   9.792   2.389 -0.0870  0.0878  0.2219
16860W        W34384  15.525   5.386   2.375 -0.0439  0.0607 -0.0549
16861W        W34385   1.433  15.132  11.606  0.0435 -0.1570 -0.1328
16862W        W34386   0.602  15.107  12.118 -0.1293 -0.0687 -0.1640
16863W        W34387  12.765   5.552  13.500  0.0746  0.0873  0.0839
16864W        W34388  10.400   7.827   3.753 -0.0529 -0.2204  0.0706
16865W        W34389   9.299   6.025  15.088  0.1130  0.2989 -0.0135
16866W        W34390   3.333   1.408  13.245  0.1439 -0.0865 -0.3056
16867W        W34391  11.873   8.801  13.727  0.1581 -0.0538 -0.0612
16868W        W34392   9.845  10.152  10.291 -0.1564 -0.0960 -0.3540
16869W        W34393   0.614  11.341  11.150 -0.0546 -0.1679 -0.2876
16870W        W34394   1.455   6.396   1.795  0.1088  0.1630  0.2758
16871W        W34395   8.496  13.866   4.759 -0.2297 -0.0637 -0.4207
16872W        W34396  12.991  15.803   4.019  0.0559 -0.0338 -0.2193
16873W        W34397   3.942  17.317  13.276  0.2770  0.1204  0.3644
16874W        W34398   0.000  11.419  11.747  0.0427 -0.3007  0.3149
16875W        W34399  12.119   3.395  11.969 -0.2990  0.1276 -0.0211
16876W        W34400  10.241   8.088  14.824 -0.2089  0.2023 -0.0757
16877W        W34401   2.488   9.118  11.120  0.3116 -0.0335  0.1368
16878W        W34402   3.178  13.434   0.449 -0.1206  0.2495 -0.2695
16879W        W34403  12.590   5.455   5.025 -0.2578 -0.0148 -0.3248
16880W        W34404   7.733   9.928   4.205  0.0399  0.0445 -0.0372
16881W        W34405   9.077   9.030   0.593  0.5331 -0.2359 -0.2428
16882W        W34406   3.368   9.899   5.103  0.0708  0.1340 -0.2358
16883W        W34407   3.973   4.369   2.152 -0.0067  0.0843  0.2916
16884W        W34408  17.296   3.562   2.806  0.0959  0.0033 -0.0032
16885W        W34409   9.553  18.272   2.857  0.2236  0.0033 -0.1092
16886W        W34410   2.568  10.808  12.416  0.1833  0.0164 -0.0431
16887W        W34411   8.100  17.624   1.351  0.1573  0.0373 -0.0948
16888W        W34412   5.664   1.410  14.505 -0.2314 -0.0149 -0.1515
16889W        W34413   8.845   8.533  14.442 -0.1838  0.2007 -0.0096
16890W        W34414   9.333  14.454   2.325 -0.0336  0.1195  0.0089
16891W        W34415  13.061  11.720  14.328 -0.1962 -0.0026  0.2221
16892W        W34416  17.293   8.085  13.498  0.1246  0.1169 -0.0938
16893W        W34417  12.701   4.171   0.514  0.1180  0.3403  0.2154
16894W        W34418   9.289   3.157   1.823  0.1251  0.2534  0.0455
16895W        W34419   8.645   3.239  11.423 -0.0646 -0.0392 -0.0708
16896W        W34420  16.254   6.596   2.164 -0.2123  0.1976 -0.0940
16897W        W34421  17.641   5.929  12.316  0.1256  0.0148 -0.1974
16898W        W34422   1.585   0.319   5.043 -0.2182  0.1552  0.3568
16899W        W34423   8.547  11.673  14.441  0.2300 -0.2592  0.1162
16900W        W34424   7.665   4.290   2.121  0.0055 -0.2010 -0.1437
16901W        W34425  13.658  13.134  13.866  0.0302 -0.0381 -0.0240
16902W        W34426   3.746   3.807  11.909  0.4110 -0.0433 -0.1060
16903W        W34427  17.129   7.553   1.133 -0.0494 -0.1477  0.0611
16904W        W34428  12.242  16.500   3.338 -0.0545 -0.0508 -0.0711
16905W        W34429  14.571  13.893  12.602 -0.0250 -0.2053  0.0824
16906W        W34430   3.086   3.075  12.753 -0.2948  0.2678 -0.1065
16907W        W34431   5.175  12.228  13.995  0.0191  0.2130  0.0281
16908W        W34432  11.963   6.969   4.645 -0.1554  0.1067 -0.0214
16909W        W34433   2.414  11.345  15.391  0.0036 -0.3511 -0.0906
16910W        W34434  15.660   6.046  14.789  0.0830  0.1169  0.1195
16911W        W34435  18.433   6.447  15.210 -0.0267 -0.0662  0.4047
16912W        W34436   5.313  14.595   3.569 -0.1683  0.0371  0.1453
16913W        W34437  16.919   8.789  11.576  0.2710  0.1128  0.2570
16914W        W34438  11.497  13.071  11.429  0.0204  0.2033 -0.0153
16915W        W34439   2.904   6.487  14.109 -0.0268 -0.0142  0.1331
16916W        W34440   0.973  10.185   0.414  0.0620 -0.0505  0.1258
16917W        W34441  12.641  13.409  14.067 -0.1999 -0.3915  0.0140
16918W        W34442  17.200  16.555  13.256 -0.0143 -0.1969  0.0932
16919W        W34443   0.675  16.732   3.845  0.0540  0.0735  0.2266
16920W        W34444   2.081  15.324  10.709 -0.0134  0.0108 -0.1414
16921W        W34445  12.073   7.985   3.634 -0.1938  0.2594  0.0895
16922W        W34446   0.791   0.970  14.305  0.1522 -0.2278 -0.3557
16923W        W34447   7.191   5.991  14.111  0.0159 -0.1172 -0.0236
16924W        W34448  16.648  14.958  12.411  0.0953 -0.2135  0.0132
16925W        W34449   6.282  13.028  13.352  0.1336 -0.0242 -0.1196
16926W        W34450   9.924  13.367   2.997  0.4844 -0.0217  0.0559
16927W        W34451   4.606  12.590  12.014 -0.0401  0.0466 -0.3011
16928W        W34452   5.039   4.785  12.246  0.1209  0.2971  0.0472
16929W        W34453   7.371  11.592   2.550 -0.0982  0.1332 -0.0469
16930W        W34454   3.246   5.557   1.970  0.3229 -0.1132 -0.2357
16931W        W34455   5.528  18.125  10.587 -0.1136  0.3294  0.2892
16932W        W34456   4.537   7.726   3.082  0.2388  0.0770  0.0020
16933W        W34457  10.893  13.023   1.831 -0.0522  0.0362  0.1997
16934W        W34458   8.069  15.865  13.665  0.3276 -0.0727  0.1189
16935W        W34459  18.410  15.273   2.559 -0.2022 -0.0186 -0.0637
16936W        W34460  16.289  17.325   1.437  0.4108  0.0103 -0.1211
16937W        W34461  16.901  13.028  14.333  0.0204 -0.1066 -0.0264
16938W        W34462   9.076  16.376  12.107  0.2448 -0.0229 -0.2246
16939W        W34463  15.267   4.968   5.273 -0.4043  0.0134  0.1013
16940W        W34464   6.754   0.598  15.015 -0.0792 -0.1375  0.5386
16941W        W34465   3.284  15.220  15.281 -0.3022 -0.1263 -0.1226
16942W        W34466   3.655   3.051   0.102 -0.0903  0.0573  0.0501
16943W        W34467  14.794   7.295  10.037  0.0622  0.0373 -0.0063
16944W        W34468   1.118  10.196   4.250 -0.0541 -0.1522 -0.0748
16945W        W34469   8.806   2.670  10.856 -0.2071  0.1277  0.0662
16946W        W34470  15.860   9.347   0.751  0.2923  0.0947  0.1388
16947W        W34471  17.838   1.570   1.019  0.1369 -0.0966 -0.0962
16948W        W34472   9.967  11.324   4.485  0.0158  0.1633  0.2857
16949W        W34473   3.257   1.183   3.321  0.2809 -0.0598 -0.1682
16950W        W34474   8.333   8.470   3.996 -0.2469 -0.1425  0.2007
16951W        W34475   4.922  12.616   2.188  0.0094  0.0658 -0.2600
16952W        W34476  12.426  12.245   0.194  0.0235 -0.3732 -0.0774
16953W        W34477  15.407   3.372  14.859 -0.2407 -0.6068  0.2999
16954W        W34478  17.806   3.118  10.742 -0.1305 -0.0153  0.0773
16955W        W34479  16.027   9.424  15.144  0.0574 -0.2626 -0.0335
16956W        W34480  12.218   2.419   5.197 -0.0801 -0.1961  0.2640
16957W        W34481  14.848   2.865   3.447 -0.1069 -0.0804  0.2699
16958W        W34482  15.059  16.915   2.140 -0.1271  0.2069  0.0045
16959W        W34483   6.180  18.119   2.736 -0.0702  0.1064  0.2025
16960W        W34484   5.464   1.807   5.235  0.1603 -0.1097  0.1055
16961W        W34485  13.100  14.107  13.993  0.1147  0.0809 -0.2941
16962W        W34486   5.642   4.935   1.035  0.0645 -0.2205  0.1704
16963W        W34487  12.302  12.652   3.218  0.0814  0.1446 -0.3927
16964W        W34488   8.684  17.750   4.246  0.0259 -0.0385 -0.2330
16965W        W34489   2.109   3.794  11.358  0.0706 -0.0962 -0.0728
16966W        W34490   9.372   2.605   4.186 -0.2453  0.2322 -0.0278
16967W        W34491  11.967   2.534   0.765 -0.0397 -0.0170  0.1385
16968W        W34492   5.825  10.317   1.503  0.2943 -0.3389  0.0773
16969W        W34493   5.303  11.179   3.271 -0.1467  0.1160 -0.1933
16970W        W34494  12.051  10.915   4.572  0.2460  0.1211 -0.0051
16971W        W34495  10.049   7.669   5.490  0.1619 -0.0304 -0.2215
16972W        W34496   7.327   5.661  15.605  0.1915 -0.0901  0.4110
16973W        W34497   1.680  13.101  12.899  0.0161 -0.1522 -0.0708
16974W        W34498  10.342  13.867  14.218 -0.0217 -0.2108  0.1733
16975W        W34499   7.595  18.102   3.367  0.1330 -0.3873 -0.3424
16976W        W34500  10.487   7.077   4.950  0.2502  0.1956 -0.0503
16977W        W34501   8.793  12.912  14.411  0.0688  0.0680 -0.0141
16978W        W34502   3.483   5.654  14.046  0.0522 -0.1937  0.0658
16979W        W34503   4.656   3.273   0.046  0.2858  0.2150 -0.4789
16980W        W34504  16.241  12.132  14.541  0.0170 -0.2082  0.0628
16981W        W34505   9.211   6.162   0.492  0.0401 -0.0811 -0.0763
16982W        W34506  16.882  15.470   2.310 -0.2625  0.1270  0.1956
16983W        W34507  15.545   4.176   2.952  0.0650  0.0126  0.0985
16984W        W34508   1.014   3.341   2.177  0.1405 -0.0457  0.0017
16985W        W34509   5.452  15.780   3.958  0.1777 -0.6009 -0.1851
16986W        W34510  16.755  17.587  13.467  0.0432  0.3801  0.0010
16987W        W34511   1.984  11.037   3.597 -0.0291 -0.2425 -0.3012
16988W        W34512   8.778  12.776  11.324 -0.1550 -0.1634  0.1593
16989W        W34513   3.095   9.404   1.499 -0.1523 -0.1774  0.3546
16990W        W34514  14.251  14.389   2.764  0.2013 -0.1785 -0.1342
16991W        W34515   5.476   2.270   3.604 -0.2919  0.2589 -0.1698
16992W        W34516   9.758  16.964  12.661 -0.1230  0.1423  0.4070
16993W        W34517  12.054   4.485   3.377  0.0057 -0.0999 -0.4923
16994W        W34518  16.539   3.853   0.617 -0.1033  0.0265 -0.1013
16995W        W34519  17.942  16.027  10.427  0.0034 -0.0361  0.0513
16996W        W34520   9.558  11.205   1.004  0.2461  0.1074  0.1049
16997W        W34521  18.229   8.873   4.475  0.1036 -0.3522 -0.1123
16998W        W34522  16.357  13.957   3.102 -0.0792 -0.0125  0.3882
16999W        W34523   7.190  14.577  13.127  0.2063  0.1627 -0.3592
17000W        W34524  18.074   0.404  14.844  0.2178 -0.0854  0.2821
17001W        W34525  13.380   3.074  13.596  0.1746 -0.1559 -0.2204
17002W        W34526  17.057  15.390   1.128  0.0118  0.0889  0.3928
17003W        W34527  12.268  13.001  11.898 -0.0557 -0.0358  0.1509
17004W        W34528  15.059  18.269   0.082  0.1620 -0.1338 -0.0695
17005W        W34529   0.870   2.699  13.336  0.1057 -0.1232 -0.1963
17006W        W34530   8.164   7.048  12.550 -0.0372 -0.1588 -0.0024
17007W        W34531   2.816  16.886   4.410  0.1194 -0.1657 -0.2192
17008W        W34532   0.270  18.148  12.885 -0.0372 -0.2525 -0.0339
17009W        W34533  15.014   5.714   4.217 -0.2441 -0.3884  0.0729
17010W        W34534   7.953   9.553  11.503 -0.1899  0.1244 -0.2023
17011W        W34535   4.340   2.308   3.331 -0.0598  0.0271  0.2527
17012W        W34536  18.370  14.684  14.761 -0.3767 -0.2321 -0.1553
17013W        W34537  14.749  12.099  14.376 -0.1569  0.0305 -0.1238
17014W        W34538   2.472  10.021  15.534  0.0770 -0.0941 -0.0447
17015W        W34539  15.771   2.088  11.477 -0.0698  0.0511  0.0526
17016W        W34540   8.379  13.601   0.806  0.3455  0.1498 -0.1488
17017W        W34541  16.386   7.016  15.173  0.1029  0.0687  0.2683
17018W        W34542  13.509   7.489   4.608  0.0810 -0.0074 -0.1438
17019W        W34543   0.220  17.723   3.579  0.0025 -0.0236  0.2305
17020W        W34544  11.825   4.953  11.217 -0.1393 -0.0685  0.1027
17021W        W34545  12.711  17.041  14.224 -0.1288 -0.3158  0.0757
17022W        W34546   2.315  17.050   1.110 -0.3837 -0.0430  0.0865
17023W        W34547   3.456   9.313  15.618 -0.3124 -0.1315 -0.0131
17024W        W34548   4.142   1.445  11.132  0.0086  0.0653  0.0201
17025W        W34549   2.925  15.874  14.326 -0.1439 -0.2647 -0.1225
17026W        W34550  16.859   6.092  12.736  0.4654 -0.0991  0.0695
17027W        W34551   9.977   1.911   4.642 -0.0548 -0.0786 -0.1274
17028W        W34552   2.021   3.359   3.314 -0.0709  0.0163  0.0852
17029W        W34553   2.789  17.469  12.378 -0.1843  0.0953 -0.0350
17030W        W34554   9.949   0.027   3.194  0.0526 -0.1417  0.2099
17031W        W34555   6.037   8.625   1.090 -0.4295  0.0388 -0.3300
17032W        W34556  16.403   9.046   3.124  0.2724  0.1078 -0.3456
17033W        W34557  17.818   1.585   1.956 -0.0539 -0.0417 -0.0162
17034W        W34558  15.354  10.624  14.610 -0.1286  0.2296  0.1863
17035W        W34559   0.954   7.047   1.098  0.0961 -0.2021 -0.5259
17036W        W34560   0.353   9.773  11.297  0.1654 -0.1925  0.0363
17037W        W34561  11.129   8.288  12.634 -0.0711  0.3963  0.1699
17038W        W34562  15.699  12.933  13.008  0.0694  0.0166 -0.0594
17039W        W34563  13.637  15.774   4.883  0.2279  0.3473 -0.1573
17040W        W34564   0.878   4.174  11.632  0.0541 -0.0239 -0.2041
17041W        W34565   5.696  17.611   4.303 -0.2988  0.0841 -0.0066
17042W        W34566  17.291   7.866   3.088  0.2261  0.1964 -0.1452
17043W        W34567   8.184  13.579   3.817 -0.0761 -0.1900 -0.2530
17044W        W34568  13.928  11.442  12.810  0.0224  0.2569  0.0500
17045W        W34569   5.337  16.035   1.825 -0.0964 -0.0158  0.4970
17046W        W34570   7.344   9.951   5.420 -0.1052 -0.0560  0.0343
17047W        W34571   0.506  17.629  13.188 -0.2699 -0.1011 -0.0944
17048W        W34572  16.789  17.148  11.909  0.0422  0.0020 -0.2035
17049W        W34573   9.936   7.694   3.000  0.1115 -0.2516  0.1814
17050W        W34574   8.022   6.335   2.788 -0.2317 -0.1148  0.0209
17051W        W34575  12.852   3.827   0.927  0.0343  0.0935  0.0235
17052W        W34576   3.229   3.984   4.821  0.0215 -0.3402  0.2032
17053W        W34577   5.428  12.118   2.836  0.0923 -0.2164 -0.0698
17054W        W34578   8.631   0.871   2.834  0.0506  0.0137  0.0256
17055W        W34579   0.231   5.233   4.448  0.2768  0.5703  0.4247
17056W        W34580  15.647   0.430  14.274 -0.2856  0.0590 -0.0748
17057W        W34581  15.357   1.910   0.651  0.3432  0.2308  0.1388
17058W        W34582   9.081  13.387  11.572 -0.1386 -0.2144  0.2604
17059W        W34583   6.118  17.957  14.087 -0.1787  0.1437 -0.0618
17060W        W34584  16.468  16.864  13.723 -0.0029  0.0058  0.1970
17061W        W34585  16.944   4.408   1.859 -0.2167 -0.0000 -0.3070
17062W        W34586   9.140   7.976   0.155  0.1555  0.0660  0.0534
17063W        W34587   9.588   8.854   1.620  0.0754 -0.3967  0.0680
17064W        W34588  11.491  10.319   3.100 -0.3500 -0.1580  0.0526
17065W        W34589   4.848   1.715   2.547  0.1614 -0.2003 -0.1663
17066W        W34590   2.465   3.642   3.728  0.1213  0.3464 -0.2165
17067W        W34591   2.011  18.157  11.461  0.1611  0.0539  0.3579
17068W        W34592   1.274   9.623  11.509 -0.1882 -0.0175 -0.1451
17069W        W34593  12.871  17.644  15.434  0.0988 -0.1309 -0.2927
17070W        W34594   0.563   0.879  12.897  0.1084 -0.2926  0.2055
17071W        W34595   0.344  16.956  13.595 -0.0137  0.0822  0.0136
17072W        W34596   7.725  17.744   3.072 -0.0624 -0.0267 -0.1058
17073W        W34597  18.198   7.318   3.159 -0.2118 -0.1777 -0.0472
17074W        W34598  10.127   2.658   4.215 -0.3403 -0.2175  0.4347
17075W        W34599   2.444   1.932   3.894  0.1459 -0.1113 -0.0375
17076W        W34600  18.481   6.884   0.881 -0.2276 -0.2324 -0.2962
17077W        W34601   9.186   2.324   2.368 -0.2786 -0.1734  0.0256
17078W        W34602   2.444  12.430  11.014 -0.0764 -0.2140  0.0531
17079W        W34603   8.855  13.981  13.194 -0.2650  0.1711  0.3595
17080W        W34604   2.405   1.606  15.280  0.3025 -0.3569  0.2737
17081W        W34605  12.213   1.808   4.177 -0.2431  0.0762  0.2190
17082W        W34606   7.333   3.535   2.759  0.2993 -0.0735 -0.1912
17083W        W34607  18.150  15.119  13.159  0.0519  0.0248 -0.0841
17084W        W34608   1.321   3.047   3.914  0.2939 -0.1649  0.3165
17085W        W34609  13.519   1.521   2.877  0.1956 -0.0519 -0.1450
17086W        W34610  18.272   1.766  15.042 -0.2238  0.0526 -0.0920
17087W        W34611   3.772   9.407  12.702  0.4901 -0.0560 -0.1962
17088W        W34612   2.018  10.626  12.430  0.3310  0.3492  0.0841
17089W        W34613   2.782  10.207   1.393  0.0822 -0.2699  0.3122
17090W        W34614   2.028  10.607   3.851  0.2066 -0.1517  0.4901
17091W        W34615  18.451   0.430  14.223  0.3155 -0.0756  0.2118
17092W        W34616   6.522  12.851  10.859 -0.2132  0.0708 -0.3304
17093W        W34617   0.151   2.603   0.982 -0.1762 -0.0541 -0.3718
17094W        W34618  17.890   3.588   3.881  0.1846 -0.2494 -0.1961
17095W        W34619  12.553   2.454   3.575 -0.0755  0.2405  0.1888
17096W        W34620  15.221   5.847   1.371  0.0278  0.0470  0.1510
17097W        W34621   0.447  16.058   2.308  0.0708  0.2685  0.1810
17098W        W34622   9.306   0.662   4.006 -0.1406  0.1348  0.0935
17099W        W34623  14.376  10.044   4.482 -0.0259  0.0916  0.2922
17100W        W34624   6.769   2.474   3.110 -0.2394 -0.0246 -0.0395
17101W        W34625  16.239  14.538  12.172 -0.3370  0.0036 -0.4335
17102W        W34626   5.895  16.766  11.663 -0.1432  0.2218 -0.1305
17103W        W34627   2.345  15.614   0.295  0.4269  0.0923 -0.1379
17104W        W34628   8.158   9.917   3.317 -0.2500  0.1306 -0.3616
17105W        W34629  13.985  14.929  13.641  0.2053 -0.3886 -0.1603
17106W        W34630   2.803  13.301   4.714  0.0517 -0.0820  0.0787
17107W        W34631  11.728  13.763   2.487  0.2614  0.0832  0.4878
17108W        W34632   4.240  15.455   3.916  0.0354  0.2514 -0.3071
17109W        W34633  17.160   1.710   0.147  0.1458  0.0361 -0.0264
17110W        W34634   1.878   6.683  13.718 -0.2441 -0.1965 -0.1991
17111W        W34635   4.384   4.299   2.884 -0.2712  0.1818  0.1798
17112W        W34636   0.025  17.076   2.205 -0.1936  0.0317 -0.3317
17113W        W34637   7.516  18.024  15.370 -0.2240 -0.0977  0.0392
17114W        W34638  11.553  13.301   4.183 -0.0028 -0.1205 -0.0093
17115W        W34639   6.189   0.651  12.737 -0.2026 -0.1598 -0.0676
17116W        W34640  15.139  12.301   5.085 -0.1812 -0.2093  0.0761
17117W        W34641  10.495  12.145  12.545 -0.2238  0.2990 -0.0446
17118W        W34642  14.442   9.256   3.589 -0.2009 -0.2859  0.0568
17119W        W34643  16.460  11.923  15.173 -0.2953  0.2291 -0.0866
17120W        W34644   2.199   6.828   0.703  0.1175 -0.0439  0.0823
17121W        W34645  11.629  11.627  10.672  0.0542  0.0753  0.1787
17122W        W34646   6.093   2.788  15.718 -0.1792  0.2643  0.2275
17123W        W34647  14.910  11.708   0.782  0.0396  0.1515 -0.0373
17124W        W34648   7.331   1.341  15.115  0.3420 -0.4114 -0.1118
17125W        W34649   9.920  11.057  14.367 -0.0555  0.4024 -0.0151
17126W        W34650   0.199   4.657  11.107  0.1850  0.2891 -0.1244
17127W        W34651  16.860   6.042   3.162  0.0670  0.0206  0.0720
17128W        W34652   2.595  13.114   2.740 -0.4793  0.2053 -0.0129
17129W        W34653   8.187   1.835  11.739 -0.0091 -0.5116 -0.1467
17130W        W34654  18.015  15.538   4.149 -0.1767 -0.1788 -0.2519
17131W        W34655   9.563  13.635  12.818 -0.0921  0.1493  0.2785
17132W        W34656   2.466   0.156   0.630 -0.1859  0.1415 -0.2199
17133W        W34657  12.860   0.848   0.730  0.3212 -0.3608  0.0059
17134W        W34658   1.002  14.945   3.208 -0.0140 -0.0692 -0.0247
17135W        W34659  15.449  11.162  10.952 -0.0616 -0.1430  0.3311
17136W        W34660   4.834   3.906   3.695  0.1687 -0.2019 -0.2275
17137W        W34661  15.758  16.873  10.446 -0.2840 -0.2843  0.2587
17138W        W34662  17.177  16.717   2.470  0.0951  0.0448 -0.0261
17139W        W34663   7.485  13.182  13.837 -0.0569 -0.1734 -0.2062
17140W        W34664   4.845  17.835  11.349 -0.1227 -0.1914  0.1779
17141W        W34665   2.095  14.888   3.180  0.0747  0.0998  0.1131
17142W        W34666   0.853  13.196   9.698  0.1917  0.2938  0.0781
17143W        W34667   9.885   0.410  14.005 -0.0789  0.1488 -0.2340
17144W        W34668   6.285   6.950  11.296  0.0469  0.2918 -0.1206
17145W        W34669   7.721  17.487   1.619 -0.2766  0.1233  0.3272
17146W        W34670   7.860   1.364   3.298 -0.0832 -0.0251 -0.4160
17147W        W34671  18.206  18.330  15.677 -0.1309  0.0018  0.0139
17148W        W34672  16.395  14.999   2.261 -0.0700  0.1237 -0.2142
17149W        W34673   2.848   5.983   3.897 -0.0085  0.4705  0.3103
17150W        W34674   6.938  17.525   1.137 -0.0197  0.0141 -0.0691
17151W        W34675   7.440   2.637  14.597  0.0830 -0.1186  0.0344
17152W        W34676  15.949   1.819   0.763  0.0814  0.2033  0.1246
17153W        W34677   4.705  16.008  15.708  0.1696  0.0593  0.0109
17154W        W34678  10.563  10.869   3.761  0.2889 -0.0427 -0.2254
17155W        W34679  16.924  11.648  12.556  0.3029 -0.0529  0.1488
17156W        W34680   9.557  10.748  11.992 -0.0669  0.0259  0.1731
17157W        W34681  10.584   6.398  12.929 -0.0901  0.0525  0.0128
17158W        W34682   1.190  16.388  11.205 -0.1550  0.1141  0.0684
17159W        W34683  18.219   9.351   2.608 -0.2221 -0.3918  0.2864
17160W        W34684  12.825  14.076  15.171  0.0559 -0.0397  0.2726
17161W        W34685   6.705   0.438   4.467 -0.0525  0.0660 -0.0782
17162W        W34686   2.291   4.201  13.260 -0.0883 -0.3076 -0.1032
17163W        W34687  17.640   1.008   3.636  0.0187  0.1952  0.1591
17164W        W34688   4.849   3.879  11.132  0.0010  0.0259  0.2816
17165W        W34689   3.428   4.825   0.347  0.2884 -0.0202  0.1597
17166W        W34690   1.122   0.981   5.003  0.1497 -0.1617 -0.0117
17167W        W34691   2.594   8.488  14.733  0.1568 -0.0865  0.3049
17168W        W34692  10.879  13.439   2.163  0.0889  0.2532 -0.0419
17169W        W34693   4.172   5.963   1.234 -0.1707  0.0621 -0.2364
17170W        W34694  10.001   3.321  11.132  0.1834  0.0118  0.2070
17171W        W34695   9.373   2.590  10.925  0.1791  0.1535  0.0276
17172W        W34696  14.889   2.213   0.754 -0.0773  0.1839 -0.0124
17173W        W34697   0.216  11.273   3.686  0.0471  0.1063 -0.1716
17174W        W34698   4.784   0.232  11.797  0.1664 -0.1957 -0.2308
17175W        W34699   7.193   5.683  12.101  0.4664  0.1700  0.0364
17176W        W34700  16.318   6.535  10.645 -0.0586 -0.1937  0.2886
17177W        W34701  18.274   3.841   1.678  0.0860 -0.2339 -0.0265
17178W        W34702  10.096   7.277  15.586  0.0291  0.1934  0.0918
17179W        W34703  16.399  16.500  14.070  0.2022  0.0176  0.2168
17180W        W34704  15.944   3.598  15.637 -0.0834  0.1704 -0.1175
17181W        W34705   6.498   5.315   2.082  0.2765 -0.1977  0.1561
17182W        W34706  16.265   6.892  14.494  0.1756 -0.1866  0.3757
17183W        W34707  14.980  13.758  14.106  0.2978 -0.0804 -0.2450
17184W        W34708   3.453   9.101   1.693 -0.3961 -0.0037 -0.1806
17185W        W34709  10.345  17.731  13.475 -0.0221 -0.2175 -0.1763
17186W        W34710   5.343   4.088   3.337 -0.0031  0.2679 -0.0889
17187W        W34711  16.467   9.940  15.248 -0.3031  0.2666 -0.3082
17188W        W34712  10.802  11.610  15.127  0.1787  0.2260 -0.1143
17189W        W34713  11.399   4.126   1.034 -0.1056  0.1716  0.0754
17190W        W34714  14.535  10.854   5.125  0.0961  0.0505 -0.1422
17191W        W34715  11.005   2.657   4.865 -0.2660 -0.3388 -0.0609
17192W        W34716   2.140   5.163  11.645 -0.1903  0.0711 -0.2188
17193W        W34717   9.206  14.869  15.319  0.0085 -0.1068 -0.2980
17194W        W34718   3.923   2.746  13.173 -0.0439 -0.1258  0.0472
17195W        W34719  12.831  15.837  10.483 -0.1467  0.3020 -0.0850
17196W        W34720   6.271   8.518  11.082 -0.3317  0.0686  0.1727
17197W        W34721  10.008  14.381   2.489 -0.0094  0.0548  0.2767
17198W        W34722   3.658  16.120   4.331 -0.2878 -0.0517 -0.0653
17199W        W34723   4.155   2.105  13.732 -0.0897  0.1351  0.3012
17200W        W34724  13.788  13.022   4.111  0.0738 -0.1566 -0.3671
17201W        W34725  17.202   9.131   2.772 -0.1033 -0.5714 -0.2800
17202W        W34726  18.286  17.566  11.987 -0.0085  0.2307  0.1543
17203W        W34727   1.730   5.914  15.094  0.0630 -0.0624  0.3698
17204W        W34728   8.068  12.497  12.945 -0.2189  0.2909 -0.3048
17205W        W34729  16.297   9.810   4.054  0.1113 -0.0596  0.0314
17206W        W34730  17.362  12.054   1.258 -0.3615  0.2668  0.0027
17207W        W34731   5.604   5.268  15.260 -0.0114  0.0952  0.3286
17208W        W34732  14.386  15.339   2.735 -0.1870  0.0210  0.0692
17209W        W34733  17.768  16.456   0.511 -0.0987  0.0684  0.0356
17210W        W34734   7.640  15.751  13.397  0.0428 -0.0432 -0.0091
17211W        W34735   8.285   1.106   3.083  0.4312 -0.0267 -0.0352
17212W        W34736  16.775  12.191   2.843  0.0473 -0.4242  0.0264
17213W        W34737   1.980   4.062  15.036  0.1618  0.3459 -0.3210
17214W        W34738   1.993   6.579   1.707 -0.1444  0.0760  0.1669
17215W        W34739  11.901  16.024   4.356  0.2256  0.2495 -0.0115
17216W        W34740  10.532   5.462  11.876 -0.0958  0.1116 -0.0416
17217W        W34741   4.060  16.433  12.031  0.1000 -0.0779 -0.0630
17218W        W34742  10.449  12.853  15.367 -0.0488 -0.4403 -0.2078
17219W        W34743   8.345   2.597   1.381  0.2780 -0.0744  0.0137
17220W        W34744   4.154   0.768   3.025  0.2066 -0.0520 -0.1364
17221W        W34745   5.530   8.663  14.276  0.2195 -0.0659  0.3149
17222W        W34746   7.182  15.074  12.892  0.1528  0.0348 -0.0084
17223W        W34747  10.679   7.493   3.983  0.1938  0.0945 -0.1686
17224W        W34748   1.092  17.220   0.236  0.0582  0.0510  0.2261
17225W        W34749   5.158   3.468  11.148  0.0412 -0.2267 -0.1226
17226W        W34750   2.701  10.035  11.771 -0.0065  0.0812  0.2163
17227W        W34751   5.267  14.043  15.217  0.0726 -0.1870  0.0492
17228W        W34752   3.089  15.021   4.172 -0.4137 -0.1857  0.2078
17229W        W34753  16.993   4.275  11.638  0.2090 -0.1798 -0.2296
17230W        W34754   3.828   0.531   2.707 -0.0189  0.4517  0.1207
17231W        W34755  11.123  12.621   0.604 -0.3285  0.0574  0.1319
17232W        W34756  14.541   4.946   1.955 -0.6360 -0.0398 -0.0490
17233W        W34757   0.165   3.334   1.381 -0.2281 -0.1855 -0.0553
17234W        W34758   4.642   0.677  11.547 -0.0589  0.2795  0.0144
17235W        W34759  13.612   8.132   1.667 -0.1035  0.3045 -0.1507
17236W        W34760  15.803   0.454  14.779 -0.0905 -0.0284  0.1787
17237W        W34761   2.364   9.204  13.459  0.1234 -0.0218  0.1728
17238W        W34762  15.339   6.504  11.061  0.3564 -0.3489  0.0850
17239W        W34763   3.934   2.439   5.346  0.2405  0.2873 -0.1355
17240W        W34764   0.287   6.145  12.948  0.0384  0.0178  0.0703
17241W        W34765  13.171  15.510   5.514  0.2666  0.3239 -0.1884
17242W        W34766  14.078   3.267   2.183  0.0433  0.0947 -0.0305
17243W        W34767   7.763   5.902  11.591 -0.1616  0.0131  0.1521
17244W        W34768  17.399   1.837   3.427  0.1715 -0.0461  0.0472
17245W        W34769  16.663   5.892  15.589 -0.1691  0.1438 -0.1731
17246W        W34770   3.243   3.707  12.029  0.0796  0.0201  0.1802
17247W        W34771  11.719   5.201  15.613  0.0283  0.2015 -0.0471
17248W        W34772  11.534  12.053  12.412  0.0531  0.0261  0.1591
17249W        W34773   8.408   1.445   4.048 -0.0917 -0.1488  0.3814
17250W        W34774   1.710  16.960  11.860 -0.0861 -0.0904 -0.0826
17251W        W34775  17.860   3.546  15.482 -0.0406 -0.0701 -0.0008
17252W        W34776   5.002   8.896  11.538  0.1414  0.2254  0.0305
17253W        W34777   2.905  15.129   4.727  0.0051  0.0313  0.1228
17254W        W34778  10.844  17.966  14.407  0.3427  0.1404 -0.0122
17255W        W34779  16.949   3.078  12.326 -0.1091 -0.2556  0.2224
17256W        W34780   2.671  10.367   1.929  0.0659 -0.2066 -0.0959
17257W        W34781  14.262   5.569  11.839 -0.0015  0.2576  0.1626
17258W        W34782   5.323  17.145   2.241  0.0559  0.0847  0.0355
17259W        W34783   1.203   4.030   3.723 -0.4811 -0.2164  0.0195
17260W        W34784   2.986  16.006  13.373 -0.2573 -0.2062 -0.0869
17261W        W34785   9.761   6.551   4.786 -0.2076  0.2687 -0.1303
17262W        W34786   4.919  13.606   1.134 -0.1305  0.2400 -0.0263
17263W        W34787  17.898  16.526   1.121 -0.0754  0.3878 -0.0728
17264W        W34788  18.426   2.756  13.295  0.0102 -0.2004 -0.0151
17265W        W34789   3.015   8.016   5.187 -0.0161  0.3083  0.2052
17266W        W34790   9.437   6.859   3.461  0.2003  0.2577 -0.1887
17267W        W34791   6.078   9.442   2.633 -0.3942  0.1462  0.1076
17268W        W34792  14.685  16.997   1.381 -0.0809  0.2848  0.2495
17269W        W34793  17.623   8.921  10.725 -0.1093 -0.0887 -0.3495
17270W        W34794  13.812  13.711  12.929  0.0467 -0.0509  0.1126
17271W        W34795  13.576  10.073   0.221 -0.0582  0.0854 -0.3760
17272W        W34796  15.467   0.028   0.389 -0.2714 -0.1769 -0.0316
17273W        W34797   5.663  11.843  14.692 -0.1622  0.1871  0.1516
17274W        W34798   9.712  18.025  15.065  0.2217  0.2365 -0.1111
17275W        W34799  10.936   3.607  10.947  0.1356  0.0278  0.0507
17276W        W34800   8.374   4.569  11.305 -0.0796  0.2440 -0.0666
17277W        W34801   2.979   9.026  11.196 -0.1466  0.1135  0.0438
17278W        W34802  17.777   6.250   1.139  0.1914 -0.0242  0.2706
17279W        W34803   6.897   9.878   1.460  0.1424 -0.1262 -0.0910
17280W        W34804   1.604  15.702   3.151  0.2525  0.0255 -0.2441
17281W        W34805  13.072   5.312   3.384 -0.1492 -0.3618 -0.3257
17282W        W34806  17.459   3.751   1.885 -0.0169  0.1588  0.2805
17283W        W34807   3.880  17.100   2.273 -0.1280  0.1437  0.1025
17284W        W34808  15.951  10.766  15.413  0.1013 -0.3205 -0.1571
17285W        W34809   9.387  11.241   2.272 -0.0961  0.1104  0.0838
17286W        W34810  16.394  15.536  11.531 -0.3692 -0.2565  0.1443
17287W        W34811   6.902  12.555  11.705  0.0890  0.0628  0.0695
17288W        W34812   6.862   0.879  11.586  0.0319 -0.0841  0.0515
17289W        W34813   3.004  18.213   4.248 -0.1299 -0.1678 -0.0956
17290W        W34814  15.962  16.229  12.584 -0.1389  0.2602 -0.1693
17291W        W34815   3.145  14.729   4.664  0.2106  0.2367  0.4501
17292W        W34816   0.462  14.182  15.492 -0.1104 -0.1408 -0.2482
17293W        W34817   0.284   5.770  13.653  0.2818 -0.0203  0.0202
17294W        W34818   2.406   3.109   3.036 -0.3545  0.1492  0.2642
17295W        W34819   7.885   2.739   2.151  0.4973 -0.0923  0.0987
17296W        W34820   6.999  15.048  15.612  0.2303 -0.1973 -0.1541
17297W        W34821   0.019  17.744  13.149 -0.4412  0.2441 -0.2288
17298W        W34822   3.982   3.292   1.952 -0.2290  0.1424  0.0851
17299W        W34823  12.363  12.914   2.832  0.0963  0.2748 -0.1386
17300W        W34824  17.596   9.924   0.239 -0.3180 -0.1812  0.1553
17301W        W34825  13.947   1.007   4.007  0.1438  0.0558  0.0274
17302W        W34826  10.145   0.334  14.951 -0.1644  0.4661 -0.2527
17303W        W34827   5.059   1.290  13.775  0.0653  0.2565  0.2022
17304W        W34828   7.335   1.863   2.155 -0.0729 -0.1812  0.0937
17305W        W34829  16.294   8.614  12.383  0.3713 -0.3493  0.0684
17306W        W34830   6.758   3.616   3.563 -0.2217  0.3099  0.0261
17307W        W34831   8.576  11.306   0.848  0.1978  0.0780  0.1776
17308W        W34832   6.440  13.753  14.445  0.0609 -0.0994 -0.0411
17309W        W34833   4.783  10.348   0.757 -0.0192 -0.2293  0.3555
17310W        W34834   4.675  13.314  13.722 -0.3090 -0.1983  0.0771
17311W        W34835  12.621  10.074  11.307  0.0714 -0.2185  0.3644
17312W        W34836  14.220  15.993   3.389  0.1705 -0.4941  0.5141
17313W        W34837   5.393   4.581   2.972 -0.2840  0.0508 -0.1829
17314W        W34838  10.476   5.611   0.416 -0.1312 -0.1638 -0.0316
17315W        W34839  16.228   6.573  11.797  0.1624  0.0208  0.0076
17316W        W34840  18.362   8.399   2.485 -0.1653 -0.0137 -0.0672
17317W        W34841  17.202  13.613   2.911  0.0453  0.2135  0.1150
17318W        W34842  13.175  11.639   2.384  0.0647  0.1859  0.0239
17319W        W34843  18.007   5.107   5.509 -0.1332 -0.1525 -0.1159
17320W        W34844   9.037   5.155   2.260 -0.0343  0.1144  0.2385
17321W        W34845  15.680   3.565  14.399 -0.0981  0.0959  0.1596
17322W        W34846  16.993  16.292   2.342 -0.3139  0.1107  0.0214
17323W        W34847   3.461   3.461   1.054  0.0528 -0.0699 -0.0628
17324W        W34848   1.024  11.650   3.722 -0.1354  0.3474 -0.0291
17325W        W34849   8.747   5.515  12.579 -0.1631  0.1394  0.3389
17326W        W34850  18.447  14.887   5.018  0.3607  0.1498  0.0132
17327W        W34851  13.544   1.067  14.947  0.0623 -0.1016 -0.0121
17328W        W34852  13.123   8.676  14.126 -0.2034 -0.0545 -0.0523
17329W        W34853   9.612   6.674   2.253 -0.1219 -0.2031  0.2020
17330W        W34854   4.667  13.424   4.067 -0.1309  0.1401 -0.0819
17331W        W34855   7.669  18.472  11.766  0.0866  0.1608  0.2189
17332W        W34856   2.658  10.878  10.961  0.1256 -0.2655 -0.1102
17333W        W34857   8.849   1.141  11.276  0.0969 -0.2131  0.2563
17334W        W34858  18.071   6.881  13.095  0.1952  0.1220 -0.0988
17335W        W34859  16.494   4.737  15.343 -0.0505 -0.0721  0.2037
17336W        W34860   4.578   7.773  14.839 -0.0696  0.2382  0.0167
17337W        W34861   5.065  17.714   0.382 -0.1010  0.0131 -0.2172
17338W        W34862   1.165  12.986   3.461 -0.0944 -0.3954 -0.0069
17339W        W34863  16.825   7.787  11.685  0.0704  0.0958 -0.2019
17340W        W34864   4.581   5.082   3.897 -0.1684 -0.1305 -0.2042
17341W        W34865  17.435  13.228  14.040  0.0541 -0.0207 -0.2183
17342W        W34866   4.448   1.368  11.984  0.1619  0.2408  0.1023
17343W        W34867   6.354   8.013  14.259  0.2316  0.1704 -0.0617
17344W        W34868   0.500   0.980  11.302  0.3085 -0.2886 -0.1010
17345W        W34869  11.564   3.036  11.359 -0.0796  0.1236  0.0793
17346W        W34870  15.938   9.091  12.394 -0.0085 -0.1030  0.3117
17347W        W34871   0.163  10.057  11.645 -0.4072 -0.2120 -0.0207
17348W        W34872  17.310  15.233   2.112  0.1747 -0.1801 -0.1619
17349W        W34873  12.567   1.292   0.805 -0.0587 -0.0151  0.1195
17350W        W34874   7.364   7.547   3.293 -0.1285 -0.0464  0.1689
17351W        W34875   4.473   8.126  15.194 -0.3169  0.1453 -0.1712
17352W        W34876   1.470   5.726  13.122 -0.1502 -0.0849 -0.1595
17353W        W34877  10.354  18.205  11.969 -0.1026 -0.0696  0.1412
17354W        W34878  14.743   6.646   0.481  0.2563 -0.0814  0.1559
17355W        W34879  12.035  14.163   4.017 -0.1029  0.0826  0.0174
17356W        W34880  11.126   0.978  12.853  0.1368 -0.1617 -0.0317
17357W        W34881  13.369   3.725  11.827  0.0836 -0.1017 -0.2925
17358W        W34882   9.763   7.637   2.266 -0.0152  0.0044  0.0539
17359W        W34883   5.015  15.931   0.988 -0.1465  0.1139 -0.0468
17360W        W34884  16.965   6.470   0.414 -0.1852  0.0928 -0.1031
17361W        W34885   8.426   0.718  12.905 -0.0481  0.0939  0.1087
17362W        W34886  15.322   6.958  15.316 -0.0982  0.0309  0.4222
17363W        W34887   8.969  12.013  11.027 -0.0206 -0.1013 -0.1583
17364W        W34888  12.554   2.824   3.973 -0.2850 -0.0217  0.3061
17365W        W34889  12.311  12.872   0.063 -0.1359  0.1557 -0.1618
17366W        W34890  15.922   8.128  15.395  0.0373 -0.0483 -0.2424
17367W        W34891   2.564   1.149   0.331  0.1856 -0.3967 -0.0703
17368W        W34892   2.703   6.317   3.358 -0.1552  0.3252 -0.2243
17369W        W34893   5.902   8.122   1.126 -0.2662 -0.1804 -0.0262
17370W        W34894   0.362  13.685   1.723 -0.1228  0.0166 -0.2486
17371W        W34895   8.924   2.551  14.132  0.1155 -0.0252  0.2223
17372W        W34896   9.990   6.664  11.836  0.1273  0.2574 -0.2519
17373W        W34897   8.025   4.620   2.952 -0.2070 -0.0503  0.1421
17374W        W34898  16.947   6.748   0.901  0.0191 -0.1240 -0.1753
17375W        W34899  13.759   7.245   0.014 -0.0210  0.2351 -0.1563
17376W        W34900  12.359   4.859  12.266 -0.2389  0.0824 -0.0827
17377W        W34901   4.695   3.620  14.269  0.0664  0.1102  0.2161
17378W        W34902   9.492   3.358  11.517 -0.0135 -0.1339  0.2053
17379W        W34903   1.759  13.395   4.702 -0.0046  0.0563  0.2296
17380W        W34904   5.689  14.836  13.095  0.0897 -0.3352 -0.0689
17381W        W34905  16.529   8.916  11.062 -0.1771 -0.0502 -0.1618
17382W        W34906   5.896   1.032  13.555  0.0375  0.2880  0.1055
17383W        W34907  16.832   8.653  12.298 -0.0322  0.1876 -0.1610
17384W        W34908   3.080  13.017  12.901  0.0365 -0.0066 -0.1211
17385W        W34909  10.151  15.326   4.641 -0.0858  0.0591 -0.1538
17386W        W34910  14.716   6.690   3.633 -0.0758  0.1465 -0.0439
17387W        W34911   4.727   2.119  10.778 -0.1201  0.0573 -0.0392
17388W        W34912  16.734  17.978   3.324 -0.4687  0.1774 -0.1044
17389W        W34913  12.545   5.647  14.081  0.2523 -0.2109  0.0071
17390W        W34914  13.370   0.315  14.999  0.1909 -0.1754  0.1346
17391W        W34915   9.630   9.989   2.976 -0.1167 -0.2849 -0.4562
17392W        W34916  14.717   0.807   4.347 -0.3067 -0.0665 -0.1681
17393W        W34917  13.041   3.028  15.091 -0.1674 -0.1297  0.1907
17394W        W34918  11.004   7.203   4.480 -0.1080  0.0527 -0.1186
17395W        W34919  13.266   9.152   3.803  0.0744  0.0355 -0.3496
17396W        W34920   2.803   8.196   2.510  0.2143  0.1546  0.2053
17397W        W34921   4.080   2.692   3.473 -0.2503 -0.2176  0.0749
17398W        W34922  17.752   2.581   3.835  0.1553 -0.3627 -0.2144
17399W        W34923   6.843   3.306   0.756  0.0577  0.2242 -0.0514
17400W        W34924  13.511   2.135  13.001 -0.3184  0.0295 -0.0683
17401W        W34925  17.309   7.860  15.682 -0.0120 -0.1529  0.0849
17402W        W34926   8.972   1.520  11.520  0.2513  0.1784 -0.0082
17403W        W34927   8.044   4.551  14.459  0.2113  0.1481 -0.0952
17404W        W34928  12.019  15.127  15.232 -0.1511  0.1790  0.0025
17405W        W34929   8.977   6.892   3.710 -0.2772  0.1492 -0.4279
17406W        W34930  11.796  10.626   4.269 -0.0541 -0.2595 -0.2544
17407W        W34931   8.179   2.124  13.707  0.0170  0.2569 -0.0491
17408W        W34932  17.368   9.108   3.483  0.1993 -0.0405  0.1606
17409W        W34933   0.223  13.684   4.391 -0.1506  0.1482 -0.1459
17410W        W34934   6.282  14.174  14.121 -0.1427  0.2189 -0.1793
17411W        W34935   2.588  12.861  11.313 -0.1430  0.0576  0.6207
17412W        W34936   7.253   8.481   0.745  0.1059 -0.2918 -0.1819
17413W        W34937   6.548   4.930   1.584 -0.0400 -0.1655 -0.0947
17414W        W34938  10.773  10.403   1.346  0.2395  0.0327 -0.1021
17415W        W34939  11.449  13.516  12.129 -0.1585 -0.2587  0.1905
17416W        W34940  17.892   3.146  11.269 -0.0688  0.2612 -0.2087
17417W        W34941  14.932  11.695   1.671  0.3412  0.2133 -0.1809
17418W        W34942  17.354   2.928   4.218  0.0352  0.0150 -0.2045
17419W        W34943   2.409  16.575  12.648 -0.2446 -0.2013  0.1131
17420W        W34944   9.226   8.930   4.048 -0.1082 -0.1190 -0.1097
17421W        W34945  10.122  18.199  13.536  0.2048 -0.0412 -0.1248
17422W        W34946   5.111   1.383   1.302  0.2902  0.3780  0.1254
17423W        W34947   3.741   5.625  12.320 -0.0103  0.0077  0.0506
17424W        W34948   0.015   2.697  14.543 -0.3941 -0.3150  0.4157
17425W        W34949   2.857   4.795   0.381  0.2304  0.1079 -0.0108
17426W        W34950  14.323   7.338   4.111 -0.0209 -0.0977  0.2533
17427W        W34951  10.956   2.124   4.001  0.1597 -0.0051 -0.0096
17428W        W34952  16.890  15.214   3.273 -0.1949 -0.1842 -0.2482
17429W        W34953  14.402  11.282  13.957 -0.1937 -0.6417  0.2224
17430W        W34954  11.399   9.716  12.301  0.2532 -0.2453 -0.0604
17431W        W34955   9.167   9.874  11.874  0.0821 -0.1013 -0.0418
17432W        W34956  12.938  18.340   3.532  0.1797 -0.2304  0.1076
17433W        W34957   6.832  11.341   1.618 -0.0890  0.2454  0.3964
17434W        W34958   0.242   8.206  12.759  0.0278 -0.0850  0.0309
17435W        W34959   9.552  16.581   0.677 -0.1755 -0.3202  0.1215
17436W        W34960   0.294  18.005   4.545 -0.1762  0.1922 -0.3102
17437W        W34961   4.710  10.683   4.490  0.1670 -0.1395 -0.2510
17438W        W34962   7.687  11.422  14.162  0.0691 -0.0636 -0.1260
17439W        W34963   0.485  11.310  12.735 -0.0988  0.0346  0.0457
17440W        W34964  10.008  13.155   0.802  0.0070 -0.1517 -0.0619
17441W        W34965  12.133  18.018   4.975 -0.3079 -0.2067 -0.2825
17442W        W34966   1.217   6.356  10.403  0.1416 -0.0860 -0.0626
17443W        W34967  17.994   7.731   0.572 -0.0031 -0.2236 -0.0396
17444W        W34968   3.396   5.501  14.886 -0.1967  0.0862 -0.2394
17445W        W34969   5.301   2.387   4.663  0.1299 -0.1447 -0.2118
17446W        W34970  14.923  13.243   1.593 -0.0361  0.1446  0.1828
17447W        W34971   3.462  15.247   2.761  0.1316 -0.2035  0.2941
17448W        W34972  16.695   8.880  10.126  0.1688 -0.1593  0.2994
17449W        W34973  17.968  14.021   2.222  0.1033 -0.1351 -0.0448
17450W        W34974   8.394  11.388  12.018  0.1757 -0.2928  0.0163
17451W        W34975  11.544  11.248  15.482 -0.0833  0.0491  0.0368
17452W        W34976  14.121   8.653  12.095  0.2459 -0.3703  0.0978
17453W        W34977  18.198  17.777   1.687 -0.2654  0.2225  0.0668
17454W        W34978  13.263   6.884   3.227  0.0717 -0.0379 -0.1654
17455W        W34979   1.297  12.562  14.219  0.3225  0.0354 -0.0250
17456W        W34980   5.447   8.987  15.297  0.0026 -0.0715  0.0378
17457W        W34981  10.405   2.323   1.986 -0.0568  0.0007  0.0822
17458W        W34982   0.685   7.559   0.036  0.2002 -0.1809 -0.0198
17459W        W34983   0.623  18.088  15.638  0.2867  0.2441  0.0152
17460W        W34984   9.809   9.906   2.441 -0.0349  0.2295 -0.0319
17461W        W34985  15.076   6.608   3.301  0.0024 -0.1995 -0.0867
17462W        W34986   6.776  13.293  10.937  0.1073  0.2625 -0.1960
17463W        W34987   8.954  10.981   2.196  0.2919  0.1705  0.2816
17464W        W34988  15.251  17.424   5.519 -0.0302 -0.3319 -0.1015
17465W        W34989   3.278   6.473   4.948  0.0144  0.0091  0.0688
17466W        W34990  17.755  18.350   2.683 -0.1357  0.1284 -0.2299
17467W        W34991   0.489  10.188   3.458  0.2396 -0.3079 -0.4167
17468W        W34992   7.721   0.345  12.573  0.3351  0.2353 -0.0788
17469W        W34993  17.487   7.338   0.031  0.0161  0.2775 -0.2619
17470W        W34994   2.390  18.068   1.103  0.3675  0.0099  0.2507
17471W        W34995   1.355  16.268   3.320 -0.1880 -0.1283  0.0983
17472W        W34996  14.639  17.629   4.243 -0.1246 -0.3404 -0.1594
17473W        W34997   5.883   6.482  14.970 -0.1172 -0.1595  0.0180
17474W        W34998  17.179  18.063   5.137 -0.1562 -0.0868 -0.1204
17475W        W34999  10.324   9.491   1.072  0.0399 -0.2168 -0.0123
17476W        W35000  17.536  16.150   4.838 -0.0016 -0.0094 -0.0537
17477W        W35001   2.864   5.247  11.360 -0.3073 -0.1889 -0.1571
17478W        W35002  17.858  18.185  12.805 -0.0717  0.1741  0.2297
17479W        W35003  10.920  10.548   3.672 -0.2067 -0.1935  0.0678
17480W        W35004  16.833   4.673  11.299 -0.1354  0.0474  0.0454
17481W        W35005   1.297  10.639  13.181 -0.1131 -0.3275  0.1470
17482W        W35006   1.535   0.503  11.398  0.0636  0.1021  0.0735
17483W        W35007   4.564  10.323  14.670  0.2307  0.1131 -0.0900
17484W        W35008   9.224   0.100   3.131  0.1287 -0.0670  0.3931
17485W        W35009   4.135  16.811  11.668 -0.1729 -0.1051 -0.0908
17486W        W35010  15.072  10.508  11.793 -0.1830 -0.1595 -0.0464
17487W        W35011  13.071  15.037  15.218  0.3612 -0.2762  0.0203
17488W        W35012   6.152   9.706   3.050 -0.1650  0.3544 -0.0040
17489W        W35013  16.460  12.188  11.841 -0.2131 -0.0696 -0.2456
17490W        W35014   6.611   6.654  13.634  0.2556 -0.1624 -0.0720
17491W        W35015  15.231   1.948   3.331  0.3074  0.0519  0.2441
17492W        W35016  11.642   0.542   2.726 -0.0685 -0.0238  0.1863
17493W        W35017  10.676  12.727  13.682 -0.0741 -0.1241  0.0361
17494W        W35018  15.219  14.551   2.000 -0.2404 -0.2905 -0.1281
17495W        W35019  16.850  14.034   0.479  0.3450 -0.2549 -0.1722
17496W        W35020   0.882  12.839  13.718  0.2402  0.0896  0.1526
17497W        W35021  12.450  17.454   4.414 -0.2006  0.1934 -0.0917
17498W        W35022  12.964  16.970  13.774 -0.2739  0.1894  0.0345
17499W        W35023   2.777   0.159   1.579 -0.0428  0.0517  0.0513
17500W        W35024   8.468  17.316  15.622 -0.2019  0.1153  0.2063
17501W        W35025  14.874   4.842   2.339 -0.3257 -0.1785 -0.2840
17502W        W35026  11.182  15.373   0.848  0.0542 -0.0142  0.0127
17503W        W35027  14.611   0.624  11.905  0.2899 -0.1247 -0.2977
17504W        W35028  18.482   0.185  12.868  0.2892  0.1173  0.1257
17505W        W35029   1.789  14.252   2.388  0.0933  0.1777 -0.1667
17506W        W35030  18.384   1.386  12.810  0.0193  0.0428 -0.1054
17507W        W35031   1.187  12.945  12.829 -0.3169 -0.0664  0.1003
17508W        W35032  11.714  12.557  12.608  0.2528  0.0753  0.1704
17509W        W35033   4.003   5.404   2.454 -0.3280 -0.3322  0.2447
17510W        W35034   4.129   4.870  14.215  0.2514 -0.1425 -0.0029
17511W        W35035  10.384   8.052  11.632 -0.2402 -0.0640 -0.1705
17512W        W35036   3.143  10.343   1.696 -0.3139 -0.3024 -0.2566
17513W        W35037  14.572  15.804   5.017 -0.0136  0.2065 -0.0540
17514W        W35038   5.701  10.342   2.370 -0.2292  0.0857 -0.1669
17515W        W35039  10.635   7.696  14.790  0.1543  0.3067 -0.1923
17516W        W35040  15.062  14.769   4.754 -0.2764 -0.0555  0.0897
17517W        W35041   6.542  15.690  14.933  0.2569  0.0204  0.1129
17518W        W35042   4.585   6.235   0.846  0.1421  0.0614  0.1602
17519W        W35043   1.932   6.565  14.594  0.0799  0.0040 -0.2913
17520W        W35044  12.370   0.183  14.115  0.5350 -0.0953 -0.1280
17521W        W35045  17.746   7.472  11.492  0.2998  0.0083 -0.1818
17522W        W35046   0.584   2.020  11.634  0.0960  0.0276  0.1640
17523W        W35047   8.532  12.911   1.769  0.0416  0.2653 -0.4090
17524W        W35048   9.584  12.913  13.897 -0.0652  0.0029  0.0973
17525W        W35049  12.906  11.482   2.812  0.0073  0.1273  0.0744
17526W        W35050  10.228   3.712  10.403 -0.0324  0.1840 -0.0586
17527W        W35051   1.344  15.672   4.885  0.2215  0.3655  0.3209
17528W        W35052  11.358  10.675   3.993 -0.4241 -0.0127  0.2737
17529W        W35053   4.047  14.313   2.549  0.1323  0.3177 -0.0133
17530W        W35054  14.080   3.352  11.519 -0.0615 -0.2887  0.0626
17531W        W35055  17.472   1.950   2.905 -0.0993 -0.0388 -0.2312
17532W        W35056   7.909   6.896  10.351  0.0841 -0.3355 -0.0149
17533W        W35057   8.211   8.195   0.088  0.0339 -0.0521 -0.2048
17534W        W35058  14.586  14.470  15.466 -0.0982  0.0250  0.1356
17535W        W35059  17.416   6.610   0.630 -0.0128 -0.2193  0.4304
17536W        W35060   4.052  14.396  11.415  0.0863 -0.1642  0.1056
17537W        W35061  13.967  16.371   3.141  0.3468  0.3326 -0.2438
17538W        W35062   2.400  14.800   2.068 -0.1839  0.0347  0.3944
17539W        W35063   8.821  16.757   3.257 -0.0686 -0.2701 -0.0895
17540W        W35064  12.656   0.878   0.230  0.1892  0.1175  0.0726
17541W        W35065  14.228  14.102   4.714  0.2249 -0.0534 -0.1498
17542W        W35066   6.467  13.761  13.938  0.0819  0.2238 -0.1967
17543W        W35067   9.244   8.828   2.637  0.2350 -0.2482 -0.3959
17544W        W35068  14.656   6.417   2.927  0.1115 -0.1499 -0.1293
17545W        W35069  17.296   8.270  10.770  0.2868 -0.1262 -0.4554
17546W        W35070  15.072   5.708  13.698  0.0094  0.0439 -0.1288
17547W        W35071   8.380   8.967   0.757 -0.0978  0.0219  0.1928
17548W        W35072   1.706  16.423  12.132  0.0591 -0.2114 -0.0815
17549W        W35073   9.797  17.143  11.365 -0.0091 -0.0257  0.0260
17550W        W35074  16.930   2.115  14.294  0.2229 -0.0864 -0.0333
17551W        W35075  14.753  18.155   2.270 -0.2524  0.2279 -0.0413
17552W        W35076  10.049   1.881  14.172  0.2042  0.3753  0.0689
17553W        W35077  13.994  13.789   1.156 -0.0344  0.0815  0.0134
17554W        W35078  13.949  10.992  13.726 -0.1324 -0.3770  0.1894
17555W        W35079  11.109  15.194   0.011  0.1991 -0.2549  0.4365
17556W        W35080  10.226   1.187   1.161  0.3935  0.4722 -0.0554
17557W        W35081   3.846   9.353   2.037 -0.1490 -0.0613 -0.0255
17558W        W35082   9.576  15.206  14.194 -0.1183  0.0104 -0.2027
17559W        W35083   5.452  18.111   3.133  0.1726  0.0985  0.0707
17560W        W35084   1.882  10.508  11.685  0.1398 -0.1358  0.0226
17561W        W35085   0.736   1.220   4.506  0.0383  0.1171  0.2629
17562W        W35086   6.346   3.153  12.264 -0.0809 -0.0780  0.1895
17563W        W35087   1.053  16.452   3.990  0.4218 -0.2153 -0.1196
17564W        W35088   0.692   8.033   9.659  0.3021  0.1568 -0.2911
17565W        W35089  15.659  16.246  12.157  0.0831 -0.1490 -0.4117
17566W        W35090  16.282  17.630   2.474  0.0761 -0.2395 -0.0088
17567W        W35091   6.623  15.501  13.774 -0.1178  0.2056 -0.1148
17568W        W35092   1.731  17.282  12.257 -0.4066 -0.1494 -0.0710
17569W        W35093  13.513   7.664   3.755  0.1139  0.0291 -0.2184
17570W        W35094   7.194  10.326   1.280  0.1180 -0.2275 -0.0880
17571W        W35095   3.346   3.202  13.928 -0.0193  0.1683  0.0958
17572W        W35096  14.644  12.163   3.071 -0.0374  0.1732 -0.0508
17573W        W35097   0.859   7.089   3.922 -0.1730 -0.1584 -0.0805
17574W        W35098   5.020   0.349  11.396 -0.1455 -0.0213 -0.1018
17575W        W35099   4.608   1.797   4.986 -0.2080 -0.0514  0.1374
17576W        W35100  11.357  15.523   1.981  0.2155 -0.1898  0.0889
17577W        W35101   0.261   4.235   1.679 -0.0071 -0.1511  0.0449
17578W        W35102   6.562   3.354   1.157  0.0965  0.0567  0.2500
17579W        W35103  15.005  13.635  10.965 -0.1757 -0.2508 -0.3877
17580W        W35104   0.182  11.983   0.385 -0.2490  0.1578  0.1887
17581W        W35105  15.553   1.620  11.518 -0.4000  0.2017 -0.0500
17582W        W35106   7.617   7.024   0.637  0.0812 -0.2250  0.0744
17583W        W35107  18.178  16.184  10.866  0.1144  0.0770 -0.1687
17584W        W35108  18.239  11.272  14.156  0.1914 -0.0496  0.1291
17585W        W35109   5.318  17.573  14.249  0.1147  0.0543  0.0537
17586W        W35110   4.544   4.201  10.358 -0.4230  0.1927 -0.0465
17587W        W35111  16.382  14.981  15.192 -0.0311 -0.3203 -0.0674
17588W        W35112   1.928   2.159   2.578 -0.3612 -0.1965  0.0842
17589W        W35113   1.987   6.951  12.584 -0.1663 -0.0579  0.1314
17590W        W35114   4.591   6.203  13.847 -0.0247  0.1849  0.3388
17591W        W35115  17.260  11.549   1.358  0.4528  0.0117  0.0677
17592W        W35116  16.745   5.695   0.697  0.1951 -0.1067  0.1608
17593W        W35117  10.718   8.215   1.874 -0.0161  0.3221 -0.0691
17594W        W35118   5.323  10.642   0.833  0.0094  0.1801  0.2115
17595W        W35119  16.082   2.929  13.720 -0.2401  0.1916  0.3552
17596W        W35120  15.816  11.605   4.460 -0.2113  0.3177  0.1184
17597W        W35121  11.235  17.668   3.124  0.1518  0.1913 -0.3337
17598W        W35122   0.201   2.283  13.148  0.0688  0.1845  0.2723
17599W        W35123   3.311   2.877   3.900 -0.2950 -0.5023  0.2873
17600W        W35124  16.447   9.632  13.889  0.2234  0.1487 -0.2088
17601W        W35125  11.880  13.699   1.886 -0.2651  0.0819  0.3093
17602W        W35126   2.093   1.327   2.010 -0.0920 -0.0426  0.0690
17603W        W35127  14.765  11.624  15.275  0.2050  0.1247 -0.4236
17604W        W35128   3.846   1.687   1.001 -0.0573  0.1836 -0.0036
17605W        W35129  17.936  12.657  13.735 -0.0022 -0.2014 -0.0423
17606W        W35130  14.425   7.070  11.651 -0.0371 -0.3018  0.1527
17607W        W35131  11.280  16.691   0.728 -0.0867 -0.2333  0.1094
17608W        W35132  15.547   4.466   2.071  0.1865  0.0834 -0.6979
17609W        W35133   5.381   4.681  10.780  0.0495 -0.1070  0.3413
17610W        W35134   5.580  15.731  15.602 -0.3499  0.0991  0.2273
17611W        W35135  16.538   3.849   1.098 -0.0360 -0.1637 -0.0878
17612W        W35136   4.588  15.024  15.075 -0.0742  0.1982  0.2495
17613W        W35137   1.345   5.651   3.860 -0.0523 -0.2759 -0.1953
17614W        W35138  10.029  10.815   3.097 -0.3892 -0.1462 -0.0569
17615W        W35139   6.244  13.927   2.611  0.0600  0.1057  0.1852
17616W        W35140   9.235   5.459  12.221 -0.0533 -0.2832 -0.2225
17617W        W35141   0.051   6.131  14.786  0.4360 -0.0143  0.2211
17618W        W35142  11.051  13.188  12.991 -0.1027 -0.0220  0.0606
17619W        W35143   9.832  12.438  13.865  0.0152 -0.3569 -0.1744
17620W        W35144  11.529  11.396  13.034  0.3514 -0.6399  0.0545
17621W        W35145  10.459  17.515  14.690  0.0201  0.0916  0.0411
17622W        W35146   0.033   5.556  15.634  0.2516 -0.0746 -0.0848
17623W        W35147   2.976   9.645  11.868 -0.0308  0.2696 -0.1043
17624W        W35148   3.688   6.949  14.478  0.0889  0.0413  0.0615
17625W        W35149   2.211   9.287   1.014  0.1211  0.0247  0.1661
17626W        W35150   8.266  16.549  15.261  0.0768 -0.1811 -0.1430
17627W        W35151   3.774   5.056  15.681  0.1775  0.0753  0.1261
17628W        W35152  16.551  14.158   5.545  0.3059 -0.4138 -0.0001
17629W        W35153  16.378  12.531   2.714  0.0321  0.2233 -0.1623
17630W        W35154   0.837   4.931   2.497 -0.1162  0.1090  0.0875
17631W        W35155   9.134  17.104  11.528  0.0532  0.1887 -0.4191
17632W        W35156   3.545   5.985  14.764 -0.2348  0.0034 -0.2435
17633W        W35157   8.939   4.638   0.711  0.1764  0.0173  0.3125
17634W        W35158   6.122  12.053   0.690  0.0920 -0.3241 -0.0474
17635W        W35159   7.537   4.574  13.482  0.0721 -0.1894  0.1644
17636W        W35160   9.681   6.104  14.328 -0.1586  0.0266  0.2047
17637W        W35161   7.048   0.971   2.698  0.1597  0.4459  0.0278
17638W        W35162   4.768   5.362   3.420  0.0214  0.0786  0.0260
17639W        W35163   3.265  10.705  14.095  0.2153 -0.1496  0.0493
17640W        W35164  13.797   3.069   3.417 -0.1821  0.1846  0.0297
17641W        W35165  10.221   2.960   0.508  0.3656  0.2661 -0.0858
17642W        W35166   5.419   6.579  12.730  0.1627  0.2309  0.1135
17643W        W35167   1.078   3.043   2.578 -0.1476  0.1973  0.4187
17644W        W35168  14.201  10.223  12.186 -0.3914  0.0168  0.2044
17645W        W35169  10.073   0.667   2.587 -0.0735  0.1301 -0.2496
17646W        W35170  17.430  14.253  15.510 -0.0370 -0.0884 -0.0465
17647W        W35171   9.558   8.529  13.796  0.3944 -0.0507 -0.1066
17648W        W35172   9.624  17.505   1.913  0.2690 -0.1956  0.0102
17649W        W35173   5.276  15.990  12.136  0.1745 -0.3784  0.1832
17650W        W35174  10.356   3.505   3.223 -0.1980  0.0149  0.0334
17651W        W35175   9.013   1.776   4.278 -0.0800  0.0783 -0.2734
17652W        W35176   1.036   5.863  12.284  0.0933  0.0432  0.1923
17653W        W35177   9.760  18.243   0.362  0.0293 -0.2827 -0.1911
17654W        W35178   5.223  13.186   1.503 -0.3652 -0.1293  0.1931
17655W        W35179  13.640  13.381   2.253 -0.0127 -0.0520  0.2143
17656W        W35180  13.391  18.451   3.794 -0.1506 -0.1402 -0.0587
17657W        W35181   1.424   1.825  11.400 -0.0018 -0.1321  0.1357
17658W        W35182  11.838   2.474  12.743 -0.0599 -0.1400 -0.2651
17659W        W35183   4.141   8.996  13.609 -0.2108 -0.0126  0.1699
17660W        W35184   6.656   5.557   3.860 -0.0786 -0.0352  0.0176
17661W        W35185   4.013   1.379   4.019  0.0871 -0.2923 -0.1857
17662W        W35186  10.861  14.302   1.657 -0.0402 -0.3382 -0.5006
17663W        W35187   8.169  17.049  13.915  0.0005  0.0834  0.3445
17664W        W35188   4.400   9.853  13.433 -0.1012 -0.0725  0.0876
17665W        W35189   3.611   8.018  12.621  0.1219  0.0594 -0.4036
17666W        W35190  10.201   0.394   0.913  0.1106  0.2385  0.1227
17667W        W35191   1.666   9.986   0.584 -0.0845 -0.0338 -0.2577
17668W        W35192   3.694   9.693   3.473  0.1350 -0.2933 -0.0005
17669W        W35193  16.138   2.060   1.205 -0.1549  0.2572  0.1099
17670W        W35194  16.456   9.527  12.771  0.0245 -0.2355 -0.0959
17671W        W35195   9.839  11.498   1.340  0.0436  0.0453  0.2231
17672W        W35196  18.317  13.006   2.511  0.1770  0.1471 -0.1097
17673W        W35197   3.298  17.987  14.599  0.2387 -0.3469 -0.3363
17674W        W35198   0.940  10.927   2.335 -0.0602 -0.1339  0.1104
17675W        W35199   0.069  13.457  10.691  0.3788  0.0110  0.3212
17676W        W35200  11.595   6.260   0.104 -0.2477  0.0712  0.0029
17677W        W35201  14.571   8.390  13.851  0.2956  0.2659 -0.0554
17678W        W35202  18.447   7.957  11.905 -0.0758 -0.1813 -0.0424
17679W        W35203   1.472   9.855   3.139  0.3882 -0.0706  0.0360
17680W        W35204   6.003   2.073  11.208  0.0484  0.0648  0.0471
17681W        W35205   5.862  16.921  14.823 -0.0200  0.0156  0.0153
17682W        W35206  15.050   4.023   0.613 -0.0481  0.2131  0.1972
17683W        W35207  17.071  15.848   2.060  0.1629  0.1480 -0.0361
17684W        W35208  17.950   8.562   3.132 -0.1512  0.0470  0.0537
17685W        W35209   6.543   2.698   5.251 -0.0330 -0.2817  0.1343
17686W        W35210   3.766  12.705   2.341  0.0403  0.3397 -0.1921
17687W        W35211  17.894  15.843  12.372  0.1121 -0.0899  0.1547
17688W        W35212  15.420  15.916  11.911 -0.0168  0.1736  0.1196
17689W        W35213   2.285   0.065  11.686  0.2003  0.1156  0.2154
17690W        W35214  10.038   9.363   2.323 -0.1776 -0.2536  0.0618
17691W        W35215  11.869   3.158   2.422 -0.0768 -0.1176 -0.0095
17692W        W35216   6.436   6.332  15.644  0.1575  0.2379  0.0582
17693W        W35217   0.634  15.038   4.469  0.2441  0.1016 -0.1798
17694W        W35218   7.419   1.307   2.471  0.1681 -0.0409  0.1959
17695W        W35219  15.535   1.296  14.304  0.0299  0.2404  0.1405
17696W        W35220  10.747  17.454   1.624 -0.1235  0.0720 -0.1415
17697W        W35221  13.875  16.573   5.175 -0.1482  0.0454  0.1549
17698W        W35222  17.535   7.023   3.856 -0.0398  0.0098  0.0583
17699W        W35223  12.039  13.823  14.031 -0.1346  0.1793 -0.0646
17700W        W35224  12.135   8.200  13.667 -0.0688  0.0789  0.0660
17701W        W35225  16.028  15.658   5.326 -0.0634 -0.0856  0.1412
17702W        W35226   1.173  17.311  12.458  0.1549  0.1394 -0.2081
17703W        W35227   7.519   3.375   0.392  0.0941  0.4932  0.0517
17704W        W35228   6.480  12.733   1.107  0.0450 -0.2294 -0.0645
17705W        W35229   1.954   5.001  12.997 -0.1751  0.1355  0.1602
17706W        W35230  13.405   7.686  12.409  0.1073  0.2354 -0.4733
17707W        W35231   4.726  10.925  12.718 -0.2468 -0.2069  0.0530
17708W        W35232   7.276   4.242   1.516  0.0911  0.0777  0.0957
17709W        W35233  14.191   9.213  14.950 -0.1026  0.0676 -0.0477
17710W        W35234   0.848   2.153   5.080 -0.0439 -0.2991 -0.2635
17711W        W35235   1.028  15.395  10.877  0.2492  0.0473 -0.3034
17712W        W35236   7.946  12.300  14.482 -0.1956  0.3916  0.4140
17713W        W35237   8.426   1.247   2.553 -0.1904  0.0226  0.0459
17714W        W35238  16.729   1.356   0.307  0.0374 -0.0757  0.3202
17715W        W35239   7.049   5.299  14.858  0.3137  0.2140  0.1061
17716W        W35240   6.277   7.302   1.927  0.1952 -0.0896 -0.2436
17717W        W35241   8.137  17.118   1.612  0.1217  0.0547  0.2115
17718W        W35242  17.731  13.166  15.017 -0.1311 -0.2571 -0.0136
17719W        W35243  12.700  13.111   0.347 -0.0257  0.1244  0.2305
17720W        W35244   4.347  15.351  13.003 -0.0819  0.0504  0.1436
17721W        W35245  14.702  13.009   0.803 -0.1130  0.0133 -0.0806
17722W        W35246  14.832  10.764   4.574 -0.1099  0.2037  0.0034
17723W        W35247   9.310   9.407   1.494  0.2219 -0.1309  0.1420
17724W        W35248   0.743  17.715   4.974 -0.2005 -0.0789  0.2694
17725W        W35249  14.503   4.035   0.829 -0.3476  0.3413 -0.3440
17726W        W35250   1.892  16.469   1.553 -0.2538  0.0875  0.0057
17727W        W35251   7.754  10.029   4.714 -0.0753  0.2007  0.0400
17728W        W35252  16.518   1.661  10.623  0.0559 -0.2516  0.0208
17729W        W35253  11.348   3.446   3.174  0.0785  0.0178 -0.0930
17730W        W35254   5.150   0.519   2.378  0.2309  0.2196 -0.0449
17731W        W35255   8.611   2.938   3.620  0.1334  0.1844 -0.2008
17732W        W35256  15.248   1.716   1.077 -0.5989 -0.0024  0.2283
17733W        W35257   8.941   0.689  14.613 -0.1321  0.2285  0.3540
17734W        W35258  11.391  11.583  14.126 -0.0700 -0.0096 -0.1464
17735W        W35259  17.761  17.334  12.809  0.0222  0.0719  0.1980
17736W        W35260   6.124  14.285   0.104  0.2110 -0.0602  0.2057
17737W        W35261   4.499   5.122   2.384 -0.0061 -0.0664 -0.1246
17738W        W35262  10.263  12.217   3.625  0.0097  0.0317  0.1322
17739W        W35263   9.558  13.235   1.128 -0.0073  0.2083 -0.2299
17740W        W35264  16.098   6.621  15.490  0.0178  0.0425  0.2574
17741W        W35265   2.489   9.273   5.114  0.2569 -0.0155  0.0808
17742W        W35266  13.208  17.204  15.526 -0.0415 -0.0289  0.2168
17743W        W35267  10.927   3.901   0.803  0.3128 -0.2605  0.0750
17744W        W35268  11.506   5.156  14.884 -0.1989  0.0603  0.0807
17745W        W35269  10.813   9.203   0.938 -0.0070 -0.2823  0.1614
17746W        W35270  17.629   4.915  12.340  0.0996 -0.2044 -0.1965
17747W        W35271   6.211  13.729   3.051 -0.2676  0.2151 -0.2515
17748W        W35272  14.560   0.150  12.143  0.0815  0.0780  0.2006
17749W        W35273  11.471  14.171   3.835  0.0694  0.0189 -0.0613
17750W        W35274   7.189   4.507  13.142  0.0681 -0.0785 -0.2873
17751W        W35275  17.409  13.391  11.474  0.0381  0.2654 -0.3081
17752W        W35276   6.667  13.028  12.259  0.2210 -0.0904 -0.0170
17753W        W35277  10.155  14.498  12.987  0.3615  0.0204  0.1150
17754W        W35278   8.917   5.556   4.309  0.0820  0.1248  0.0239
17755W        W35279   6.641   1.573  14.617  0.2868 -0.3111 -0.1816
17756W        W35280   3.214   1.061  14.929 -0.1134  0.2651  0.0033
17757W        W35281  13.038   3.404   3.067  0.1747 -0.0649  0.0068
17758W        W35282   3.302  14.802  10.222 -0.2365 -0.1269  0.0796
17759W        W35283  10.214   1.839  12.258 -0.3151 -0.0059  0.1299
17760W        W35284  12.562   9.287  11.102 -0.1808 -0.1995 -0.1986
17761W        W35285  14.844   4.135  10.543  0.0051  0.0633  0.0269
17762W        W35286   9.054   3.575   3.961  0.0264 -0.0085  0.0309
17763W        W35287  16.061  17.515  11.741  0.0812  0.1384 -0.2686
17764W        W35288  10.142  16.983   4.541 -0.1978 -0.1190 -0.0944
17765W        W35289  15.450  16.564  15.019  0.0746 -0.0204 -0.1391
17766W        W35290  11.457  17.705   1.041 -0.0695  0.2173  0.3457
17767W        W35291   4.603  16.832  14.435  0.0213 -0.2382 -0.0606
17768W        W35292   9.759   3.729  13.854  0.0362 -0.2262 -0.1994
17769W        W35293   6.378   4.909  14.513 -0.1219  0.4905 -0.0137
17770W        W35294  12.051  14.271  13.655 -0.3785  0.2727 -0.0992
17771W        W35295   9.619   2.067   2.196  0.3121  0.0580  0.1806
17772W        W35296   3.927   0.859  11.114  0.0941  0.0188 -0.0562
17773W        W35297   8.145   1.763   0.163 -0.0515  0.0534  0.3749
17774W        W35298  17.349  10.681   0.793 -0.1965 -0.0426 -0.0832
17775W        W35299   3.169   3.382   2.354 -0.3502  0.1934  0.2122
17776W        W35300   3.858  12.700  14.545 -0.1060 -0.1026 -0.2706
17777W        W35301   8.867  14.517   2.572 -0.0284 -0.0607  0.0701
17778W        W35302   3.662   9.522   1.545  0.1479  0.1194  0.3105
17779W        W35303  14.165   2.782   0.462 -0.1229 -0.0230 -0.1628
17780W        W35304  18.414  15.941   1.603  0.0983 -0.1693  0.0515
17781W        W35305  11.372  10.687   3.470  0.2944  0.0740  0.1212
17782W        W35306   4.541  11.676  11.242  0.1572 -0.1066  0.3445
17783W        W35307   1.371   9.556   3.505 -0.0430  0.2276 -0.0733
17784W        W35308  13.143  13.174  14.099 -0.0700  0.2757 -0.0405
17785W        W35309   0.640   9.586  13.812  0.2678 -0.1165 -0.1559
17786W        W35310   2.380  15.193   1.524  0.0191 -0.1758 -0.2183
17787W        W35311  15.255  15.463   2.385  0.0394 -0.2504  0.2745
17788W        W35312  12.270  16.461  14.277  0.0751  0.3446  0.1224
17789W        W35313  11.905   6.001  14.628 -0.1370  0.2410 -0.2444
17790W        W35314   7.336   5.763  10.756 -0.0194 -0.2340 -0.3437
17791W        W35315  13.585   1.449   1.025  0.0340  0.0143  0.1372
17792W        W35316   5.432  12.425   2.305  0.0521 -0.1869  0.3083
17793W        W35317  10.137   3.524  14.796 -0.1326  0.1045  0.1158
17794W        W35318   7.905   2.079  14.562 -0.1366 -0.1055  0.0961
17795W        W35319  13.320   7.055  11.558 -0.1878 -0.0617  0.0361
17796W        W35320  14.744  17.139   4.898 -0.1033  0.3364 -0.3519
17797W        W35321   3.074  10.211  13.442  0.3057  0.2062  0.0181
17798W        W35322  16.986  16.690   1.114 -0.0089 -0.1320 -0.0636
17799W        W35323   0.632  11.357   2.477 -0.2409  0.0887 -0.0087
17800W        W35324   4.925  17.708   1.823 -0.3335  0.0638 -0.1676
17801W        W35325   5.761  17.114  14.012 -0.3482 -0.2822  0.0171
17802W        W35326   6.304  14.616   5.673 -0.2105 -0.0105  0.1385
17803W        W35327  15.554  15.401  12.780 -0.1849 -0.2623 -0.2930
17804W        W35328  18.190   8.543  14.138  0.0239 -0.2269  0.0757
17805W        W35329   1.130   3.237   0.179  0.0768  0.1340  0.0239
17806W        W35330   9.840  14.870  15.529  0.1096  0.0957  0.0759
17807W        W35331  13.465  17.050   4.449  0.2496  0.0726  0.1230
17808W        W35332   9.754   8.654  11.235 -0.1682 -0.1302  0.0020
17809W        W35333  13.715   1.851  14.432 -0.0333  0.0407  0.0546
17810W        W35334  12.004   5.224   2.297 -0.2221  0.0753  0.0011
17811W        W35335  16.970  12.116  12.026 -0.1986  0.0784 -0.3009
17812W        W35336   4.549  17.734   4.869  0.2314 -0.0007  0.1845
17813W        W35337   6.642   3.379  11.060  0.2081 -0.1502  0.0534
17814W        W35338   6.312   8.755   5.552  0.3213 -0.0298 -0.4084
17815W        W35339   9.580  10.197  12.911 -0.1297  0.1067  0.2532
17816W        W35340   8.917  11.949  14.291  0.1100  0.0069  0.2080
17817W        W35341   5.222  14.986  14.848 -0.3800  0.1225  0.0185
17818W        W35342   7.804  15.382  13.701  0.1933 -0.1479 -0.0954
17819W        W35343  11.979   3.504   3.832  0.2176  0.0984 -0.0695
17820W        W35344  10.539  17.791   3.431  0.0456  0.4025  0.1924
17821W        W35345   6.864  11.694   0.317  0.1952 -0.1890  0.0161
17822W        W35346  12.490   3.698  12.031  0.2237 -0.2066  0.1637
17823W        W35347  15.302   9.163  12.239 -0.1803 -0.3105  0.0573
17824W        W35348  12.934   2.219  13.982  0.2472  0.2314 -0.0071
17825W        W35349   8.233  13.390  15.573  0.0424  0.0884  0.0378
17826W        W35350  11.208   8.453   0.604 -0.2154 -0.1253  0.1467
17827W        W35351  14.049  14.522   5.432  0.1104  0.0665 -0.1054
17828W        W35352   8.774   8.999   1.926 -0.2327  0.0015  0.0351
17829W        W35353   0.665  11.350   3.929  0.0983  0.0553  0.1571
17830W        W35354   0.677   4.938   0.240 -0.1922 -0.2556 -0.0396
17831W        W35355  17.012  16.377   4.663 -0.1413 -0.2266 -0.2040
17832W        W35356  17.404  15.422   2.571 -0.2114  0.0746  0.2559
17833W        W35357  10.078  16.356  14.616  0.0297  0.0438  0.0740
17834W        W35358   3.152  12.052   2.301 -0.5527 -0.1289  0.0156
17835W        W35359  13.879  15.609   1.032 -0.0090 -0.2113  0.1259
17836W        W35360  12.203   4.962   0.040 -0.0431  0.0860  0.5038
17837W        W35361  13.363  12.212  13.651  0.2911 -0.2730  0.1103
17838W        W35362  17.157  14.486   1.731  0.0767 -0.3029 -0.0407
17839W        W35363   7.298  11.030  10.877  0.0752 -0.3078 -0.1132
17840W        W35364  16.186  14.595   0.765  0.0779 -0.1406  0.0906
17841W        W35365  14.233  13.148  15.208 -0.0823 -0.1851 -0.1956
17842W        W35366   7.104  15.053   0.674  0.0458 -0.0028  0.1390
17843W        W35367  17.567  11.180  11.240  0.2091 -0.0167  0.0899
17844W        W35368   1.422  18.296   3.381 -0.3668 -0.2181  0.0975
17845W        W35369   4.143   7.757   0.586 -0.0879  0.1364 -0.0390
17846W        W35370  15.078  13.206   1.031  0.0591  0.0511  0.1439
17847W        W35371   4.101   3.197  12.259  0.3665 -0.2712 -0.0194
17848W        W35372   9.152  12.778   3.859  0.0455 -0.2314 -0.1231
17849W        W35373   7.220   2.835  11.986  0.1090 -0.0353  0.1490
17850W        W35374   3.454  10.111  13.140 -0.1939 -0.2197  0.1823
17851W        W35375   7.817  14.491   0.487 -0.0884  0.1386  0.2638
17852W        W35376  18.062  12.470   2.499 -0.3801 -0.4734 -0.2468
17853W        W35377   2.880  17.963   5.421  0.2261 -0.0523 -0.2457
17854W        W35378   2.432  16.053   2.609 -0.1941 -0.0963  0.2320
17855W        W35379   5.771   3.739   4.611 -0.1212  0.0812  0.2404
17856W        W35380   1.508   0.353   2.526 -0.0795  0.4293 -0.0484
17857W        W35381  14.245  18.391  13.930 -0.3043  0.0324  0.0837
17858W        W35382   8.079  13.907   0.524  0.0415 -0.2805 -0.3400
17859W        W35383   9.415   8.731   3.434  0.2787 -0.0039  0.0509
17860W        W35384  18.364   0.940   4.033 -0.3972  0.1082  0.0776
17861W        W35385   0.339   2.957   3.186 -0.0627 -0.1478  0.1547
17862W        W35386   1.558   6.552  11.626 -0.4043 -0.0532 -0.0250
17863W        W35387   2.856   7.962   3.992 -0.0517  0.4409 -0.1180
17864W        W35388   5.041   4.872   4.344  0.0421 -0.0631  0.0619
17865W        W35389   7.759   4.067   0.043 -0.0902 -0.0606 -0.1558
17866W        W35390  10.802   2.680   3.615  0.2356 -0.0878 -0.3186
17867W        W35391   7.813  10.813   1.303  0.0524 -0.0623  0.0346
17868W        W35392  17.078   5.665  15.350  0.0967 -0.0873  0.0306
17869W        W35393   0.194   9.640   4.096 -0.0162  0.3914 -0.2521
17870W        W35394  13.058   1.564   0.645  0.3168 -0.0978  0.0872
17871W        W35395   3.003   1.803   2.623 -0.2054  0.0651 -0.0238
17872W        W35396  14.272   3.917  13.812  0.2831 -0.1042  0.1211
17873W        W35397   8.913   9.598   3.786  0.1301  0.0897 -0.0516
17874W        W35398   9.323  15.548   0.825  0.1157  0.1141 -0.1086
17875W        W35399  16.046  14.019   1.229  0.3124 -0.3076 -0.0423
17876W        W35400   8.211   1.241   1.318  0.3440  0.0004  0.1378
17877W        W35401   6.039  12.940  11.156  0.1272 -0.0459 -0.1217
17878W        W35402   3.873   7.492  12.739 -0.0394 -0.3210  0.0109
17879W        W35403   4.313  10.658  12.599 -0.0975  0.3520  0.3363
17880W        W35404   9.932   0.626  12.020 -0.1350 -0.5131  0.1802
17881W        W35405   3.184   7.739   2.730 -0.3365  0.1257  0.0370
17882W        W35406   2.514  11.813  12.610  0.0513 -0.1625  0.1850
17883W        W35407   8.540   9.851  11.724  0.0769 -0.0734  0.1447
17884W        W35408  12.732  13.735  10.474 -0.0290  0.0438 -0.5141
17885W        W35409   3.904   9.021   1.436  0.0084 -0.0206 -0.0442
17886W        W35410  15.448   8.075   1.197 -0.2028 -0.0262  0.0700
17887W        W35411  18.280   5.337   0.373  0.0430 -0.3037  0.1083
17888W        W35412   7.245  12.228  11.537 -0.0676  0.0922 -0.0108
17889W        W35413  15.341   5.978   3.897  0.0240  0.2516 -0.0913
17890W        W35414   9.486   0.431  15.334  0.1069 -0.0116  0.1730
17891W        W35415  16.441  12.123   2.373 -0.0869 -0.1183 -0.0653
17892W        W35416  15.987  10.935  13.460 -0.0542 -0.1194  0.0010
17893W        W35417   7.283   3.322   4.333  0.1594  0.0908 -0.2320
17894W        W35418   6.850   0.220  13.416 -0.0476  0.0602  0.0859
17895W        W35419   8.725  17.500   2.022 -0.2339  0.3804 -0.1445
17896W        W35420   3.470   6.067  10.638  0.0682 -0.0921  0.0268
17897W        W35421   2.766   4.611   4.384  0.0827 -0.0306  0.1960
17898W        W35422  17.657   1.302  13.525  0.0576 -0.1269 -0.2207
17899W        W35423   9.493  14.736  14.488 -0.0834 -0.4744 -0.1797
17900W        W35424  12.733   0.766   2.548 -0.2279 -0.1036 -0.0270
17901W        W35425  14.175   3.434  14.054  0.0352 -0.0372 -0.4677
17902W        W35426  16.785   7.158   1.190 -0.1270  0.1161 -0.2587
17903W        W35427  12.408  10.741   0.043  0.2828  0.2949 -0.2039
17904W        W35428   5.907   9.113  15.009 -0.2170  0.0778  0.1224
17905W        W35429   2.135  11.726  10.962 -0.0432 -0.0817  0.0491
17906W        W35430  10.935   5.337   4.788  0.3011  0.1366  0.0127
17907W        W35431  10.278  10.950  13.992  0.2502 -0.3967 -0.3030
17908W        W35432  13.921  14.712   3.961  0.4425 -0.0319  0.0562
17909W        W35433   6.718   4.504   4.529  0.0518 -0.0529  0.0374
17910W        W35434  12.170   3.312  10.965  0.6162  0.0050  0.1043
17911W        W35435   5.299  13.136   0.269  0.2027  0.0311 -0.3735
17912W        W35436   6.208   9.960   1.320  0.1189 -0.0206 -0.1607
17913W        W35437   2.544  16.575   2.662 -0.1846  0.1449  0.0048
17914W        W35438  17.449   5.798  15.653 -0.0767 -0.3250  0.0435
17915W        W35439  10.590  16.186   1.854 -0.3022 -0.0233 -0.0473
17916W        W35440   0.695   0.732   5.199 -0.0054 -0.1906 -0.3909
17917W        W35441  10.815   4.028   3.013  0.0133  0.0645 -0.2229
17918W        W35442  13.113  15.277   2.934 -0.0860 -0.4607 -0.2394
17919W        W35443  15.809   6.994   3.335  0.4657  0.2158  0.0537
17920W        W35444   6.107   1.639  13.535  0.1526  0.4543 -0.1037
17921W        W35445  16.358   3.938   4.192  0.2601  0.1168  0.0304
17922W        W35446   7.434   9.852  14.103 -0.1080  0.0402 -0.1545
17923W        W35447   7.910  18.247  14.986  0.0204  0.2324 -0.0971
17924W        W35448   6.118  13.278  13.880  0.2776 -0.0905 -0.3534
17925W        W35449   0.846   5.528   3.326 -0.0744  0.1550 -0.0154
17926W        W35450  13.498   2.671   3.623  0.1359 -0.2186 -0.1256
17927W        W35451  13.821  14.314   3.670  0.1983 -0.1993  0.1245
17928W        W35452   8.169  16.179   1.550  0.0223  0.0609 -0.0063
17929W        W35453  16.195   9.556  12.175  0.2875 -0.2756  0.3505
17930W        W35454  15.349  12.691   3.265  0.0504  0.1190 -0.0745
17931W        W35455   8.371  11.688   0.454 -0.4201 -0.0677  0.0467
17932W        W35456  15.984  15.468  15.519  0.0855 -0.1710 -0.1823
17933W        W35457  12.922   4.581  13.310 -0.0044 -0.1506  0.1943
17934W        W35458  13.304  15.266  14.677  0.3647  0.0787 -0.1504
17935W        W35459  14.644   6.360   0.936 -0.0750 -0.2627 -0.1655
17936W        W35460  15.786  13.520  14.279  0.0301  0.0919 -0.1508
17937W        W35461   2.019   5.452  13.716 -0.1426 -0.1362 -0.0601
17938W        W35462   3.813   9.574  15.351 -0.0837  0.0002 -0.3220
17939W        W35463   3.859   4.000  12.848 -0.0417  0.1297  0.1397
17940W        W35464   2.840   1.401  14.522  0.1788  0.3105  0.2873
17941W        W35465   4.346   3.190   2.547  0.0250 -0.1037 -0.1046
17942W        W35466   8.910   1.915   2.758  0.1453 -0.2611 -0.1820
17943W        W35467   6.327  15.635  15.379  0.0776 -0.0081  0.0848
17944W        W35468  15.982   5.586  13.518 -0.1188  0.0526 -0.2941
17945W        W35469  16.272  17.809  13.668 -0.1241 -0.0536  0.3071
17946W        W35470   6.047  12.701   3.034 -0.0931  0.1783 -0.1839
17947W        W35471   2.137   2.279  10.310  0.0749  0.1988 -0.1732
17948W        W35472   2.498  17.445   2.471  0.0169  0.1153 -0.2393
17949W        W35473  14.653  12.963  11.660  0.1243 -0.1343 -0.1317
17950W        W35474   4.579   9.116  14.906 -0.2780 -0.1079  0.1009
17951W        W35475   2.524  16.541  12.123  0.0775  0.0222  0.0434
17952W        W35476   8.666   8.034  10.902  0.0867  0.0838  0.1283
17953W        W35477  16.941   5.643   3.481 -0.1057 -0.1314 -0.0675
17954W        W35478  18.333   4.582  15.719  0.0261  0.0919  0.2785
17955W        W35479  10.267   5.552  14.812  0.2193  0.1198 -0.1059
17956W        W35480   8.408  12.980  12.876  0.2549 -0.0251  0.0967
17957W        W35481   9.087   8.996   1.529 -0.0542  0.3588  0.3153
17958W        W35482   7.818   5.904  15.460  0.0647  0.0975 -0.0734
17959W        W35483   0.957   4.138   5.200  0.1011 -0.3373  0.0780
17960W        W35484  12.629   9.379  15.415 -0.2199  0.0777  0.0461
17961W        W35485  10.865  16.319   5.835  0.0261 -0.1989  0.0862
17962W        W35486  16.145  15.195   2.904 -0.1347  0.0300  0.0983
17963W        W35487  18.157  12.453  11.098  0.0716 -0.1757  0.0454
17964W        W35488  18.258  13.385  14.353  0.0330  0.0208 -0.0887
17965W        W35489   5.615   9.558   2.798 -0.4057  0.1980  0.0721
17966W        W35490  16.924   8.263   2.383 -0.0175 -0.0758 -0.0728
17967W        W35491  12.264   9.159   2.841  0.3428 -0.1553  0.1600
17968W        W35492   9.215  10.382  11.938  0.0415 -0.0875 -0.1680
17969W        W35493  18.269   3.387   4.172 -0.0777  0.0455  0.1221
17970W        W35494   9.229   5.039  13.200 -0.0128 -0.2341 -0.1713
17971W        W35495   3.074   7.399   1.456 -0.2773  0.3380  0.1580
17972W        W35496   3.671   0.733  14.877 -0.1442 -0.3528 -0.3054
17973W        W35497  11.544   8.316  15.432  0.3239  0.3499 -0.1072
17974W        W35498   7.616  14.177   4.324  0.2496 -0.0053 -0.4460
17975W        W35499  17.688  16.166   1.431 -0.0456 -0.1868  0.4711
17976W        W35500   1.022   4.085  15.006 -0.3393 -0.2027  0.0903
17977W        W35501   8.511   5.683  15.119  0.0840 -0.3601 -0.3978
17978W        W35502   1.571   4.585  14.483  0.0005 -0.0638  0.1336
17979W        W35503   1.203   7.429  12.071  0.0728  0.0989  0.0962
17980W        W35504  11.995   2.774   1.249 -0.1358  0.1908 -0.1984
17981W        W35505  16.336  10.777  10.981 -0.0876 -0.0787  0.2932
17982W        W35506   9.601  12.876   3.277  0.3075  0.0613  0.1866
17983W        W35507   6.531  17.689  15.513 -0.4146 -0.1442  0.1234
17984W        W35508   3.479   6.952   2.201 -0.0110  0.2840  0.0876
17985W        W35509   0.823   3.503  14.044 -0.0136  0.2149  0.3950
17986W        W35510   6.452  15.782   0.993 -0.2153 -0.4911 -0.0826
17987W        W35511   0.176   7.793  14.302 -0.3282  0.1431 -0.1218
17988W        W35512   6.068   4.097   0.542  0.1152 -0.4013  0.1829
17989W        W35513   0.362  15.612   4.431 -0.0133  0.3444 -0.1768
17990W        W35514  14.163  12.656  12.403  0.2257  0.1571  0.1283
17991W        W35515   7.390  10.618  12.138  0.1842  0.0944  0.3467
17992W        W35516  16.488  11.973  13.198 -0.0265 -0.0997 -0.1008
17993W        W35517   5.909  11.109   1.934 -0.1165 -0.0023  0.0708
17994W        W35518   7.118   1.854   4.875 -0.2012 -0.2340  0.3790
17995W        W35519  10.663  11.114   5.170  0.0408 -0.1112 -0.1453
17996W        W35520  13.367   8.746  12.577 -0.0590  0.3404  0.2627
17997W        W35521  11.034   0.915   1.315  0.3794  0.1383  0.3367
17998W        W35522  18.187   4.541   2.346  0.0318 -0.1767  0.0847
17999W        W35523  18.168   7.682  14.505  0.0840  0.1348  0.1131
18000W        W35524   8.996  14.213   1.646  0.3420 -0.0047  0.0524
18001W        W35525  18.119  11.082  14.814 -0.0795 -0.0266 -0.1762
18002W        W35526   1.532   2.200  14.222  0.2643 -0.2930 -0.0642
18003W        W35527   6.410   2.239   5.724  0.0204 -0.4734  0.2772
18004W        W35528   4.259   6.108  14.189  0.1139  0.2070 -0.2232
18005W        W35529   4.109   5.265  12.401  0.1423 -0.1801 -0.1112
18006W        W35530  13.100   7.260   4.751 -0.2318  0.2627 -0.0686
18007W        W35531  12.084  12.081  12.527 -0.0353  0.0493 -0.3194
18008W        W35532  14.728   6.731  11.924 -0.2628  0.0757  0.0624
18009W        W35533  16.627   2.615  14.514 -0.0848  0.2815 -0.1649
18010W        W35534  10.425   7.603  12.102 -0.1030 -0.4065 -0.0726
18011W        W35535  17.441  15.133   5.303 -0.1130  0.0549 -0.0486
18012W        W35536  10.224   4.096   1.198 -0.0958 -0.0965 -0.3538
18013W        W35537   8.519  17.029   2.949 -0.3467  0.3578  0.1978
18014W        W35538  15.830  16.847  11.703 -0.1900  0.0085 -0.0577
18015W        W35539  12.667   4.928  14.246 -0.1394 -0.3087  0.2063
18016W        W35540   2.377  16.748   1.517  0.1785 -0.3337 -0.1496
18017W        W35541  12.225   9.098  11.381  0.1672  0.0390 -0.1206
18018W        W35542   6.247   9.344   0.141  0.0213  0.1460  0.0094
18019W        W35543   8.154   7.224   2.642  0.0087  0.1321 -0.2675
18020W        W35544   6.600  10.643  11.296 -0.0508  0.0899  0.1237
18021W        W35545   6.084   9.652  15.099  0.0772  0.1929 -0.0509
18022W        W35546   8.456   6.094   1.305  0.1955  0.4357  0.1104
18023W        W35547  18.449   8.189  13.145 -0.1166  0.0282 -0.1759
18024W        W35548  16.698   4.325  14.784 -0.0301 -0.1010  0.1985
18025W        W35549  13.153   6.866   3.749 -0.1476  0.1224  0.0053
18026W        W35550   2.103   3.353   4.423  0.0303 -0.3623  0.2189
18027W        W35551   4.574  17.833   0.492  0.1208  0.0411  0.1225
18028W        W35552  18.037   9.380  14.021 -0.1448 -0.2046 -0.4447
18029W        W35553   3.823  16.680  10.861  0.2226  0.1820 -0.1984
18030W        W35554   5.402   6.981   2.116  0.0363  0.0649 -0.3198
18031W        W35555   8.076  11.283  11.075 -0.1016  0.0506 -0.2384
18032W        W35556   1.095  15.011   4.200  0.2330 -0.2643  0.0257
18033W        W35557   4.600  18.207  15.384 -0.1273 -0.2530 -0.1376
18034W        W35558   1.753  16.614   3.051 -0.0669  0.1020 -0.0816
18035W        W35559   6.733   0.954  14.017  0.1236 -0.1246 -0.0660
18036W        W35560  11.297  17.541  13.907  0.3224  0.1945  0.5751
18037W        W35561  12.849   5.119  13.313 -0.4884  0.4991 -0.2306
18038W        W35562  17.957   1.885   3.139  0.1220  0.0738  0.1679
18039W        W35563   8.646  10.311   0.223  0.0824 -0.0663 -0.1205
18040W        W35564  11.848   6.571  13.223  0.4044 -0.1919  0.0074
18041W        W35565   2.437   7.136  12.705 -0.0872  0.2947 -0.3778
18042W        W35566  14.967   5.256   0.420  0.0575 -0.2189  0.2172
18043W        W35567   3.547  14.823  13.015  0.5147  0.3845 -0.1294
18044W        W35568  17.083  13.604  12.505 -0.0373 -0.0691  0.0541
18045W        W35569   0.990  10.574   0.634  0.0512 -0.2578  0.3589
18046W        W35570   9.995  15.931  11.474 -0.0734  0.1091 -0.0530
18047W        W35571   4.211   2.209  15.059  0.0176 -0.1629 -0.1447
18048W        W35572  10.440   7.615  15.282 -0.0864  0.1467  0.0424
18049W        W35573  11.561   8.198   1.388 -0.0063  0.2116 -0.2651
18050W        W35574   8.531   1.651  13.771  0.1214 -0.0777  0.0880
18051W        W35575  17.365  17.740  14.168 -0.2514 -0.0599 -0.1522
18052W        W35576  15.662   4.810   0.713 -0.3602 -0.1126  0.2435
18053W        W35577   5.022   2.672   4.958 -0.0980  0.1036  0.0233
18054W        W35578  18.208  10.613  12.978  0.2374 -0.3968 -0.2977
18055W        W35579  11.409   7.959   0.308 -0.2440  0.2313  0.2443
18056W        W35580  11.726   7.685   1.023  0.0525 -0.2183  0.0163
18057W        W35581   8.424  11.744  13.048  0.0884 -0.0231 -0.0339
18058W        W35582   9.846   1.086   5.564  0.1845  0.0224  0.2489
18059W        W35583  10.524   5.302   3.397 -0.0731 -0.2732 -0.0006
18060W        W35584   3.427  14.547  10.686 -0.2512 -0.4966  0.1499
18061W        W35585   1.534   4.950   2.099  0.1194 -0.0967 -0.0739
18062W        W35586   6.073   0.403   1.992 -0.0273  0.0996 -0.0350
18063W        W35587  12.208   7.526   1.996 -0.3849  0.1098 -0.0164
18064W        W35588  17.637   8.487  14.225  0.0608  0.0032 -0.0732
18065W        W35589   6.291   4.506   3.736 -0.0951 -0.0665  0.2922
18066W        W35590  12.995  17.762   2.265 -0.1798  0.0982 -0.3098
18067W        W35591  18.379   0.228   0.839 -0.0490  0.1089 -0.2338
18068W        W35592   7.408   2.545   1.769 -0.0711 -0.0719 -0.0177
18069W        W35593  16.210   1.804   4.575 -0.0670  0.2436 -0.2711
18070W        W35594   1.764  14.082  15.329  0.0406 -0.0741  0.1158
18071W        W35595   7.784   2.039  10.481  0.0372  0.0264 -0.1994
18072W        W35596   3.300   8.225   2.564 -0.0788 -0.2223  0.2765
18073W        W35597   2.483   9.117   5.585 -0.1704  0.3309  0.0458
18074W        W35598   5.960   4.477  15.258  0.0991  0.2890  0.0141
18075W        W35599   3.785   0.912   3.435 -0.0085 -0.0362  0.2055
18076W        W35600  17.371   6.515  12.400 -0.0932 -0.0888 -0.0847
18077W        W35601   3.962  12.656   0.241 -0.2373  0.2365  0.2666
18078W        W35602  12.492   7.966   1.814 -0.3101 -0.0885 -0.2216
18079W        W35603  17.694   2.296   3.254  0.2051 -0.0213  0.0534
18080W        W35604  13.958  16.899   4.402  0.0488  0.0811  0.2160
18081W        W35605  10.799  11.466  12.325 -0.4304  0.0944 -0.1177
18082W        W35606  14.484   2.465  12.752  0.2271 -0.0896  0.2247
18083W        W35607  17.848  12.656   3.617  0.4396 -0.1737  0.3030
18084W        W35608   5.481   3.956   1.390  0.2819  0.2303  0.3588
18085W        W35609   7.928  14.254  12.620  0.2065 -0.0002 -0.2538
18086W        W35610   7.367  16.964  12.901  0.1231 -0.1893  0.0463
18087W        W35611  17.465  15.932  15.599 -0.0456  0.1317  0.1015
18088W        W35612  12.817   2.022   3.149  0.0553  0.2326 -0.3550
18089W        W35613   6.294  16.677   1.398 -0.0015  0.2979 -0.0233
18090W        W35614  16.966   1.026   0.742 -0.0700 -0.3541 -0.1327
18091W        W35615   0.242  11.714  14.551  0.1609 -0.3192 -0.1415
18092W        W35616  12.620  11.548  13.615  0.0834 -0.1929  0.3225
18093W        W35617   8.601   9.884  12.838 -0.0293  0.1824 -0.1885
18094W        W35618   9.017  11.706  13.555 -0.4543 -0.1725 -0.0246
18095W        W35619   2.108  14.215   0.434 -0.2035 -0.4209 -0.1046
18096W        W35620   3.958  12.058   3.007 -0.3482  0.0023  0.0298
18097W        W35621   9.780   1.069   2.459  0.1163  0.4639 -0.0167
18098W        W35622   7.023   3.362   0.265  0.0007 -0.0602 -0.0225
18099W        W35623   5.680  14.325  15.504  0.0767 -0.1012  0.0475
18100W        W35624  18.169  11.288  15.317  0.1042 -0.0794 -0.1151
18101W        W35625   8.276  11.653   4.067  0.1242 -0.2121  0.1191
18102W        W35626   1.507   3.022  11.726  0.0668 -0.0534  0.2683
18103W        W35627   3.012   4.332   2.420 -0.3457 -0.1563  0.0794
18104W        W35628   6.897   3.650  13.107  0.0983  0.0483 -0.0988
18105W        W35629   1.045  15.424  13.435 -0.0129 -0.0401  0.0654
18106W        W35630   3.872   2.624   4.465 -0.2799 -0.1665  0.1193
18107W        W35631  14.356   3.751   3.067 -0.0017 -0.0268 -0.1690
18108W        W35632  18.216   9.675   1.077  0.1599 -0.0382  0.2190
18109W        W35633   4.078   4.368  14.213 -0.3394  0.0868  0.1561
18110W        W35634  13.512  12.545   5.168 -0.1525 -0.1263  0.0856
18111W        W35635   6.909   7.093   1.560  0.0647  0.1364  0.2780
18112W        W35636   1.031  15.859   1.126  0.0003  0.2584 -0.0045
18113W        W35637   0.542   7.473  14.461  0.1419 -0.2506  0.0012
18114W        W35638   8.031   5.501   0.739 -0.2984  0.0164  0.0745
18115W        W35639   2.966  15.745  12.580  0.0949 -0.2841  0.1243
18116W        W35640  10.532   7.979   3.323 -0.1310  0.0423 -0.2857
18117W        W35641  15.876   4.069  14.265  0.0516 -0.0333  0.0724
18118W        W35642   7.843  13.653   3.425 -0.0848 -0.4389  0.0279
18119W        W35643  13.541  16.659   5.987  0.0274 -0.2855  0.0261
18120W        W35644  13.767   9.159   3.806 -0.0923 -0.0209  0.2058
18121W        W35645   1.273   1.828  13.458  0.0653  0.3413 -0.0725
18122W        W35646   1.238   4.741  10.751  0.3553  0.0380  0.0620
18123W        W35647  13.734  12.807  15.412 -0.1028 -0.1333  0.2176
18124W        W35648  18.322  12.092  13.405  0.1060 -0.0108 -0.1861
18125W        W35649  13.879   8.128   5.346  0.0104 -0.3185  0.2056
18126W        W35650   1.637   5.219  13.863 -0.0261  0.0670  0.1899
18127W        W35651  14.039  12.045  12.325  0.1785  0.1378 -0.2166
18128W        W35652   7.305  17.550   1.927 -0.0906  0.0531 -0.0200
18129W        W35653   7.736  14.397   0.006 -0.0630 -0.0475 -0.0196
18130W        W35654   1.578   0.818   4.945  0.1341  0.0886  0.1170
18131W        W35655   4.335  13.142  14.017  0.1724  0.0265  0.0759
18132W        W35656  12.309   4.469   1.507  0.0287 -0.2368  0.1086
18133W        W35657   9.020  13.165   0.132  0.0950 -0.0265 -0.3555
18134W        W35658  15.392  13.313  14.662  0.0992  0.0107 -0.1004
18135W        W35659   7.779   0.029  15.491 -0.1755 -0.1310  0.1379
18136W        W35660   1.504  12.967   0.768  0.3563  0.1813  0.0710
18137W        W35661  13.748  12.330   1.193  0.0145  0.5229 -0.3593
18138W        W35662   3.591  10.102   3.879  0.1546  0.0907  0.0808
18139W        W35663  12.767   9.921   0.553 -0.0165 -0.1440 -0.0142
18140W        W35664   6.141   8.447  14.143  0.0358  0.0914 -0.3840
18141W        W35665   7.375   9.181  10.340 -0.2554  0.1558  0.0904
18142W        W35666   2.270   3.668   2.138  0.3350 -0.1481  0.2655
18143W        W35667  11.218   7.212  12.182 -0.2714  0.3647 -0.0930
18144W        W35668  10.623  11.011  15.251  0.0465  0.0305 -0.1151
18145W        W35669   2.936  13.040   1.637 -0.0422  0.0778  0.1476
18146W        W35670   8.357   5.567   4.381  0.2339 -0.3512  0.2305
18147W        W35671   9.052   2.074   5.660 -0.0407 -0.0314  0.0914
18148W        W35672   2.144  17.860  12.741 -0.3158  0.1391  0.2571
18149W        W35673   0.096  18.327   1.128 -0.0431  0.1926  0.1251
18150W        W35674   6.780   7.750  11.404 -0.0197 -0.3265  0.1791
18151W        W35675  11.094   9.055  10.761 -0.3710  0.1225 -0.0595
18152W        W35676  17.052   2.117   2.683  0.2393 -0.0883 -0.0020
18153W        W35677   1.362  13.992  15.607 -0.1195  0.0676  0.3023
18154W        W35678  14.804   0.038   1.059  0.1763 -0.2199  0.0052
18155W        W35679   9.264   0.365   0.277  0.0911  0.0208  0.2483
18156W        W35680  17.996  15.937   0.579  0.0465 -0.1120  0.1505
18157W        W35681   0.993   1.829   0.507 -0.2695  0.4045 -0.1977
18158W        W35682   7.929  11.500   0.462  0.0268 -0.1012  0.2837
18159W        W35683   2.843   8.724   3.407  0.2230 -0.2648 -0.1748
18160W        W35684   8.129  18.000  13.067 -0.0432 -0.4613 -0.2385
18161W        W35685   1.960  10.759  14.783  0.3735  0.0110 -0.3645
18162W        W35686   1.553   4.718   4.285  0.3099 -0.1768  0.2529
18163W        W35687  13.529   5.737  13.377  0.2507 -0.0662  0.0426
18164W        W35688   4.373  10.990   4.382  0.3005 -0.2538  0.1479
18165W        W35689  10.616   9.906   4.267  0.1093  0.1134  0.3218
18166W        W35690  15.671  16.292   4.569 -0.0048  0.1947 -0.2720
18167W        W35691   8.200  14.333   0.232 -0.0155 -0.1299  0.4652
18168W        W35692  14.976  11.293   4.522  0.0681 -0.2047 -0.0762
18169W        W35693  12.464   7.159  13.544  0.2149 -0.2552  0.0374
18170W        W35694  16.194   0.058   2.133  0.1134  0.0862 -0.2414
18171W        W35695  12.432  16.543   2.885  0.2788  0.2719  0.0221
18172W        W35696  10.172  15.922   6.193 -0.1275 -0.2430  0.0222
18173W        W35697  15.616  16.556  13.572 -0.2951 -0.2051 -0.0043
18174W        W35698  11.794  11.311   4.447  0.0950 -0.2811  0.1211
18175W        W35699   3.406  10.655  12.763  0.1196  0.2438 -0.0751
18176W        W35700  13.831   8.891  13.826 -0.0367  0.0008  0.0654
18177W        W35701  14.206  16.428   2.037  0.0610 -0.1589  0.0561
18178W        W35702  11.796   2.283  13.722  0.0091 -0.0437 -0.3289
18179W        W35703  12.290   7.205   3.121 -0.0082 -0.4418  0.1013
18180W        W35704   1.757   6.784  15.470 -0.0838 -0.0500 -0.2518
18181W        W35705   4.911  14.793   0.216  0.1760  0.1190 -0.4292
18182W        W35706  18.093   0.308  13.872 -0.2263  0.2338  0.1527
18183W        W35707   3.936   4.021  15.451  0.3277  0.1307 -0.1054
18184W        W35708   8.528   2.715  14.428 -0.0517 -0.1041 -0.0314
18185W        W35709  13.428   1.974   0.941 -0.0372 -0.0812  0.2174
18186W        W35710   7.031   6.519  11.787 -0.1233 -0.1267  0.0717
18187W        W35711  17.547  14.796   1.308 -0.1290 -0.3404 -0.1714
18188W        W35712   5.408   2.797  13.229  0.1161 -0.0840  0.2485
18189W        W35713   6.241   1.651  11.630  0.2465  0.0582  0.5240
18190W        W35714  13.788   6.999  13.914 -0.2603  0.5171 -0.3861
18191W        W35715   9.151  14.136   4.529  0.0055 -0.1542 -0.0744
18192W        W35716   5.289  15.779   5.462  0.1039 -0.0268  0.3548
18193W        W35717  16.316   5.809   2.578  0.0655 -0.0002 -0.0189
18194W        W35718  14.107  14.815  14.192 -0.0174 -0.0560 -0.2563
18195W        W35719  11.101   3.408   4.176  0.1748 -0.0278  0.0785
18196W        W35720   2.866  10.936  11.472 -0.3224 -0.2776 -0.2668
18197W        W35721  16.290   5.255   1.356 -0.0746 -0.1632  0.5895
18198W        W35722  16.247  16.715   0.011  0.4919 -0.1250  0.3627
18199W        W35723   8.063  12.750   1.854  0.3550 -0.1457  0.0003
18200W        W35724  11.826  17.660  13.940 -0.2037 -0.3461 -0.2007
18201W        W35725  11.666   1.820  11.247  0.0480 -0.0937  0.1382
18202W        W35726   1.759  15.726   2.128 -0.2110  0.0051  0.1788
18203W        W35727   6.713  17.055  11.533 -0.0296 -0.0251  0.1526
18204W        W35728   6.515  10.075  13.230  0.0517  0.1336  0.0189
18205W        W35729  18.460   0.233   4.761  0.1769 -0.0698  0.1356
18206W        W35730   3.177   2.969  15.537  0.1221 -0.2765 -0.2864
18207W        W35731   8.225  11.085  11.544  0.3872  0.1664 -0.0963
18208W        W35732  12.763   9.041   4.769 -0.0649 -0.4519 -0.0683
18209W        W35733   7.195   6.310  12.812 -0.0557 -0.3976 -0.1007
18210W        W35734  14.263   2.547   2.897 -0.1684  0.0959 -0.1274
18211W        W35735  15.106   2.523  12.058  0.1189 -0.0317 -0.1595
18212W        W35736  17.244   0.080  15.671 -0.3478 -0.1672  0.4788
18213W        W35737  14.576  16.249   2.862 -0.1082 -0.1205 -0.2532
18214W        W35738   8.609   5.328   1.998 -0.0979  0.2200 -0.0385
18215W        W35739   7.581   7.049  13.472  0.0067  0.0485 -0.1922
18216W        W35740   5.291  12.395   5.281  0.0351 -0.0653  0.1531
18217W        W35741   6.065   3.241  14.794  0.2380  0.0728 -0.0307
18218W        W35742   9.831   0.067  11.106  0.3907 -0.2722  0.2547
18219W        W35743   5.091   9.245   1.595 -0.4580  0.0121  0.0823
18220W        W35744  17.242  12.787   2.315  0.0487  0.5194 -0.1058
18221W        W35745   4.079  10.679  13.451 -0.1925  0.2901 -0.0664
18222W        W35746  10.445   5.346  12.352  0.3881  0.0542 -0.0200
18223W        W35747  17.545   1.003   4.642  0.4072  0.0979  0.0848
18224W        W35748   7.423  12.954   5.000  0.0379  0.2262 -0.0868
18225W        W35749   7.490   9.750  15.253  0.0265 -0.0192 -0.1680
18226W        W35750  16.879   0.010   4.194  0.0515 -0.0092 -0.2803
18227W        W35751   9.396   8.345   2.560 -0.2269 -0.1180 -0.1231
18228W        W35752  18.024  12.219  14.268  0.2084 -0.2062 -0.0199
18229W        W35753   4.831  16.112   4.572 -0.0037 -0.3062 -0.0570
18230W        W35754  11.064   2.039  12.211  0.0993  0.4830  0.0134
18231W        W35755  16.491  18.338   5.451  0.1535  0.2209  0.0426
18232W        W35756   1.830   9.032  10.986  0.5783  0.1235  0.0941
18233W        W35757   2.364   8.835   3.096  0.0451  0.0253 -0.0540
18234W        W35758   3.404  12.723   3.256  0.1513  0.0287  0.0573
18235W        W35759  10.136   4.364   3.572 -0.0443  0.2244 -0.0579
18236W        W35760   8.340   3.058  13.062 -0.3251  0.0911 -0.3775
18237W        W35761  11.754   9.877  11.204 -0.1814 -0.1604 -0.1085
18238W        W35762   2.774  12.650  12.329  0.2645 -0.2570  0.2270
18239W        W35763  14.893   9.674  15.577 -0.1309 -0.2159 -0.2060
18240W        W35764   7.195  15.927   0.485  0.1566 -0.1585 -0.3080
18241W        W35765   6.696   9.673   3.101 -0.2616 -0.1646 -0.1930
18242W        W35766  13.005   3.503  13.559 -0.1587 -0.1107 -0.1856
18243W        W35767  16.108   7.402  11.267  0.1005 -0.1210 -0.0913
18244W        W35768  10.848   0.573  10.489 -0.1938 -0.0376  0.3202
18245W        W35769  15.284   0.722  13.921  0.0263 -0.2788  0.0018
18246W        W35770   2.056   1.168  12.731 -0.0526  0.1338  0.2212
18247W        W35771  11.303  13.182   0.152 -0.1415 -0.1956 -0.0142
18248W        W35772   7.363  17.084  10.165 -0.3478 -0.0766  0.0526
18249W        W35773   4.499  16.493   4.526  0.2056  0.2269  0.0351
18250W        W35774   9.158   6.725   0.527  0.3395 -0.0692 -0.0504
18251W        W35775   7.889   3.489  10.106  0.0458 -0.1393  0.1797
18252W        W35776  12.607  17.040  13.369 -0.2993  0.3912 -0.2038
18253W        W35777  11.477   2.259  12.434 -0.2381 -0.0342 -0.3440
18254W        W35778  11.313   5.796   3.498 -0.1515  0.0534  0.0157
18255W        W35779   3.258  13.926   2.756 -0.0884 -0.0790 -0.0156
18256W        W35780  13.394  11.119   0.012  0.0405  0.0104 -0.4769
18257W        W35781   2.189  12.298   0.240  0.0970  0.1136 -0.0025
18258W        W35782  11.781   4.097   3.024  0.1298 -0.0364 -0.3183
18259W        W35783   2.841  10.399  11.220 -0.1782  0.2741 -0.1644
18260W        W35784  10.516   9.732   3.604 -0.0341 -0.1200  0.0837
18261W        W35785   4.581   9.340  13.889 -0.2534  0.1730  0.3575
18262W        W35786  10.642   8.003   1.285  0.2187  0.2216 -0.2061
18263W        W35787   4.550  13.085  11.171  0.0311 -0.0957  0.0090
18264W        W35788   6.516   5.117  15.051 -0.0183 -0.0959 -0.1320
18265W        W35789   8.974   9.581  11.495 -0.0865  0.4993  0.2273
18266W        W35790  17.513   4.400   4.429  0.1257 -0.1747  0.0281
18267W        W35791   1.177   6.220   2.696 -0.0454  0.0013  0.0316
18268W        W35792  16.492  18.153  10.473  0.1659  0.0369 -0.4837
18269W        W35793   3.190   2.527  12.268  0.0049  0.2729 -0.0509
18270W        W35794  13.329   8.809  10.741  0.1628 -0.0108  0.0043
18271W        W35795  12.740  15.457  15.236 -0.0993 -0.2033  0.1185
18272W        W35796   3.336   4.645  15.264  0.0944 -0.2833  0.1281
18273W        W35797   4.933  11.929   3.067  0.0247  0.1778 -0.0333
18274W        W35798   0.417  12.041  12.104  0.0952 -0.2114  0.1033
18275W        W35799   5.186  16.665   0.546  0.1683  0.0965  0.0048
18276W        W35800   6.153  13.174   3.693  0.0214  0.0998  0.3409
18277W        W35801   3.804  10.971  12.796  0.0107  0.0208  0.1658
18278W        W35802   1.781   5.210   5.185 -0.1122 -0.1689 -0.0993
18279W        W35803   0.439   3.762   3.450 -0.1638  0.1393 -0.1323
18280W        W35804  10.860  15.749   1.780  0.0317 -0.5450  0.2759
18281W        W35805   1.927  13.691   0.535  0.2243 -0.1092  0.0385
18282W        W35806  16.471  11.433  11.928 -0.2506 -0.0550 -0.2762
18283W        W35807  17.450  10.097  10.859 -0.1627 -0.2361  0.1453
18284W        W35808   6.751   2.138   3.540  0.0437 -0.0549 -0.1834
18285W        W35809  15.598   9.536  15.471 -0.3056 -0.0620  0.3168
18286W        W35810  16.397  15.288   0.053  0.2165  0.2637  0.0782
18287W        W35811   1.629   1.733   1.203  0.3314  0.2721  0.0303
18288W        W35812   0.777  12.605   0.259 -0.1030  0.0482  0.0995
18289W        W35813   1.531   8.648   3.764 -0.0890 -0.2378  0.0674
18290W        W35814   9.769   7.990   1.909  0.0516 -0.0144  0.1322
18291W        W35815   3.435  15.935   0.997  0.5265 -0.0936  0.0774
18292W        W35816  12.648   1.309   2.722  0.1625  0.0069  0.2097
18293W        W35817  16.362  15.233  10.557 -0.0867 -0.0656  0.0638
18294W        W35818   2.967  16.557  12.594 -0.0881 -0.2886  0.0940
18295W        W35819  18.048   0.703  15.596 -0.1150 -0.1749 -0.0057
18296W        W35820  18.480  12.422   2.159  0.1208  0.0138  0.1103
18297W        W35821  13.821  12.066  13.742  0.0503  0.0695 -0.2302
18298W        W35822   0.955  11.360  15.262  0.4261  0.0194  0.0505
18299W        W35823  14.005   9.559  14.643 -0.2809 -0.2440 -0.0469
18300W        W35824   5.552   4.680  13.438 -0.0740 -0.1951 -0.1972
18301W        W35825   2.840   4.624  14.934 -0.0796  0.2076  0.1603
18302W        W35826  10.390   6.242   4.295 -0.2791  0.0029  0.1825
18303W        W35827   5.360   9.803  11.888 -0.1428  0.2400 -0.3576
18304W        W35828   6.568  12.309  14.516  0.0879  0.0611  0.2154
18305W        W35829   7.971  12.591   4.499  0.0419 -0.0390 -0.2282
18306W        W35830   7.022   5.862   4.875 -0.0454  0.1283  0.3619
18307W        W35831   5.485  15.737   0.956  0.1096 -0.0531 -0.0968
18308W        W35832   6.998  17.320   1.590 -0.1902  0.0278  0.1396
18309W        W35833   0.519   8.751  13.694  0.1453  0.0379  0.1269
18310W        W35834  12.946  15.940  15.233 -0.1316 -0.2779  0.3037
18311W        W35835  16.013  10.031   3.588  0.4712  0.0276 -0.1386
18312W        W35836   7.036   6.572   3.014 -0.1279 -0.0358 -0.0806
18313W        W35837   3.823   2.810  12.072  0.2903 -0.2087  0.0421
18314W        W35838  15.230  12.941  10.801  0.0510 -0.1659 -0.2777
18315W        W35839   1.284   4.681   1.209  0.0917  0.0554  0.0461
18316W        W35840   5.719  11.606   2.873 -0.2323  0.1849  0.0973
18317W        W35841   5.666   6.229   0.002  0.4805 -0.1867 -0.1207
18318W        W35842  14.340   2.090  11.451  0.2311  0.1445  0.0166
18319W        W35843   1.875   2.089  14.638  0.1089  0.0432 -0.0355
18320W        W35844  10.517  17.859  11.169 -0.3211 -0.0790  0.1977
18321W        W35845  15.534  13.030   3.692  0.1254 -0.0219  0.5316
18322W        W35846   8.639  14.190  12.721 -0.2807 -0.0049  0.2482
18323W        W35847  12.333   2.330  11.709  0.0970 -0.1926 -0.0281
18324W        W35848   0.024  10.138   3.747 -0.2329 -0.2345  0.0411
18325W        W35849  12.554   3.411  13.825  0.1041 -0.3588 -0.2715
18326W        W35850   3.532  11.031  12.352 -0.0421  0.0004  0.0626
18327W        W35851   4.620  10.471  11.743  0.1165 -0.1167 -0.2178
18328W        W35852   0.379   8.212   0.080  0.0439  0.0126  0.1017
18329W        W35853   5.387   0.108  11.705  0.0210 -0.0785 -0.1626
18330W        W35854   0.855   5.805  15.540  0.2007  0.2979 -0.4687
18331W        W35855  11.620   8.385   0.197 -0.0742 -0.2229  0.0691
18332W        W35856   6.981  12.343   4.000 -0.0820 -0.0732  0.0003
18333W        W35857  13.344   3.429   4.796 -0.0519  0.0636 -0.2580
18334W        W35858  14.787   7.626   1.859 -0.1728  0.1375 -0.0723
18335W        W35859   2.074   5.951   0.228  0.2134  0.0718 -0.1958
18336W        W35860   3.043   3.427   4.589 -0.1552 -0.1820 -0.2113
18337W        W35861   9.970   6.745   1.108 -0.3300  0.1957  0.2247
18338W        W35862  11.600  16.200   0.075  0.1153 -0.1306  0.1366
18339W        W35863  13.972   0.655   0.490 -0.2914  0.0008 -0.1982
18340W        W35864   3.260   7.797  14.720 -0.1495  0.1243 -0.0383
18341W        W35865   4.746  12.396   1.273  0.4801  0.2240  0.1492
18342W        W35866   9.311   6.845   0.038  0.0744  0.2016 -0.1000
18343W        W35867   2.667   9.026  14.700 -0.1544 -0.3642 -0.0827
18344W        W35868   4.994  12.261   4.860  0.0504 -0.3086 -0.5098
18345W        W35869  16.920   8.225  11.979  0.1574 -0.1787  0.0453
18346W        W35870   7.643  11.898  12.450 -0.1502 -0.3884  0.0238
18347W        W35871  12.697  14.834  13.305  0.0921  0.5336  0.1667
18348W        W35872  13.489   8.282  12.830 -0.2318  0.0675  0.2431
18349W        W35873   0.118   0.620   4.330  0.1058  0.0545  0.0397
18350W        W35874   1.659  11.817  14.674 -0.1422  0.1628  0.0810
18351W        W35875  12.137  18.009   0.044  0.2567 -0.0759 -0.4045
18352W        W35876  11.699  13.327   1.548 -0.2601 -0.1214  0.0254
18353W        W35877  11.323   4.229  13.917  0.2095  0.0219 -0.0253
18354W        W35878  16.674  16.745  11.441  0.2791 -0.2573  0.1297
18355W        W35879  12.321   6.288   1.312  0.2127 -0.3091 -0.3024
18356W        W35880  12.232   3.586   2.704 -0.2041  0.0985  0.2946
18357W        W35881  15.431   1.791  13.480 -0.0703 -0.1442  0.0958
18358W        W35882  16.486   1.087  13.786  0.0733 -0.1970 -0.2880
18359W        W35883  11.371   7.127   4.967 -0.0797 -0.0893  0.2581
18360W        W35884   3.948  10.258   2.895 -0.0856 -0.2758 -0.0307
18361W        W35885   1.348  12.645   0.288  0.1701  0.1147  0.0224
18362W        W35886   9.499  11.949   1.567 -0.3022  0.1403 -0.0320
18363W        W35887  15.199  11.234   2.341 -0.0079  0.0509  0.1560
18364W        W35888  16.088  10.763   1.014 -0.0659  0.1664 -0.0097
18365W        W35889  13.810  11.120  10.886 -0.4390  0.0855  0.1616
18366W        W35890  11.856  14.908   0.461 -0.1459 -0.2327 -0.0141
18367W        W35891   1.066   3.699  11.698 -0.2233  0.1990  0.1424
18368W        W35892   2.380   1.789  12.277 -0.0157 -0.3562 -0.0084
18369W        W35893   0.135  17.393   1.239 -0.3919 -0.0403 -0.5114
18370W        W35894  16.733   8.258   1.879 -0.0795 -0.0507 -0.1512
18371W        W35895   5.472   8.474  12.169  0.6805  0.1844 -0.1420
18372W        W35896  11.166   2.533   0.206  0.2563  0.0255  0.1334
18373W        W35897  13.058   4.727  15.620 -0.0918 -0.4943 -0.1698
18374W        W35898   6.754  17.935   5.311 -0.0127  0.0149  0.1339
18375W        W35899  16.850  15.722   4.562  0.3691 -0.1359  0.0146
18376W        W35900   1.043   2.933  12.332 -0.2382  0.1448  0.3043
18377W        W35901  18.122  15.606   1.002 -0.3427 -0.0941  0.0295
18378W        W35902   3.658   0.217  15.645  0.5160  0.2980 -0.1025
18379W        W35903   2.895  16.628   2.329  0.1088  0.2216  0.3472
18380W        W35904   4.830   8.765   2.980 -0.0293 -0.0908  0.0899
18381W        W35905   9.252  11.009   4.076  0.0965  0.0613  0.0863
18382W        W35906  17.417   1.298   0.912 -0.2730  0.0541 -0.1043
18383W        W35907   6.806  10.862  10.844  0.0416  0.0428 -0.3351
18384W        W35908   8.514   6.157  11.171 -0.1014  0.3213  0.1628
18385W        W35909  16.610   3.719  10.051  0.1629  0.0069  0.1659
18386W        W35910   5.636   8.005   2.949 -0.0204 -0.1924 -0.1957
18387W        W35911  11.986  11.590  14.983 -0.1744 -0.0147  0.1298
18388W        W35912   9.809  16.611   3.093  0.0168 -0.2066 -0.0610
18389W        W35913   0.358  14.898   3.631 -0.1515 -0.2508  0.2872
18390W        W35914   0.829  15.810   0.044 -0.2140  0.0308  0.0161
18391W        W35915  18.471   2.291   2.006 -0.1910 -0.2079 -0.3640
18392W        W35916   6.328   3.768   4.362  0.2560 -0.0509  0.0682
18393W        W35917   8.890  16.967  14.753  0.1429 -0.1254  0.1359
18394W        W35918  13.091  10.796  11.588  0.0433  0.1126  0.1559
18395W        W35919  15.081  11.401  10.630 -0.1086 -0.3780 -0.1200
18396W        W35920  13.904   8.893   1.567  0.0133  0.2181 -0.1230
18397W        W35921  15.206   7.555  10.319  0.0991  0.0810  0.1720
18398W        W35922   7.220   5.193   3.119  0.1740  0.0077  0.3218
18399W        W35923   6.467  12.592   0.203  0.0074 -0.1728  0.4178
18400W        W35924  17.977  14.574  15.621  0.2056  0.0551  0.1991
18401W        W35925  17.279  12.323  15.678 -0.2494  0.1515 -0.0623
18402W        W35926  13.295   7.371  14.612  0.0541 -0.0722 -0.0008
18403W        W35927  15.346   4.878  14.082  0.1570 -0.0385  0.0206
18404W        W35928   3.142  10.751   2.025  0.1978 -0.0082  0.0288
18405W        W35929   4.439   9.823   4.116 -0.1223  0.0543  0.1550
18406W        W35930  12.475   7.162  12.662  0.1012 -0.1639  0.0496
18407W        W35931  15.450  13.046  13.548  0.1219 -0.1771  0.0321
18408W        W35932   9.782   2.376   4.460 -0.3767 -0.1919 -0.4174
18409W        W35933  10.842  14.422   3.259  0.0845  0.2692 -0.1458
18410W        W35934  10.010   7.153   1.638  0.1634  0.0022 -0.2565
18411W        W35935   8.603  17.185   1.620 -0.2030  0.0118 -0.3917
18412W        W35936   2.701  15.627   2.301  0.2780 -0.1785  0.2483
18413W        W35937  14.510   3.364  13.153 -0.2712  0.1926  0.1101
18414W        W35938   7.515   9.965  11.457  0.2006 -0.3343  0.0344
18415W        W35939   1.540  15.259  14.772 -0.2620  0.0284  0.0297
18416W        W35940   2.727  16.526  11.201 -0.0429 -0.2237 -0.1645
18417W        W35941  17.291   2.210  15.355  0.2194 -0.1386  0.1297
18418W        W35942  10.109  17.412   4.942  0.3164 -0.2579  0.4027
18419W        W35943  15.697   2.708   3.822 -0.1996 -0.3303 -0.4024
18420W        W35944   2.835   6.138   1.106  0.2722 -0.0329 -0.1069
18421W        W35945   4.869  17.642   3.882 -0.2019 -0.1680 -0.1486
18422W        W35946  13.755   5.496   4.061  0.0340 -0.0528 -0.2643
18423W        W35947   3.127   8.595  10.904 -0.0548  0.1838  0.3553
18424W        W35948   3.522   8.996   2.200 -0.2613 -0.0549 -0.2557
18425W        W35949  11.986  13.921   0.490  0.1186 -0.0623  0.2083
18426W        W35950   5.559  12.622   4.892 -0.2040  0.0183 -0.2662
18427W        W35951   1.909  11.329  13.031 -0.1995 -0.0084  0.3773
18428W        W35952   1.867   6.257   3.587  0.0245 -0.1876  0.0197
18429W        W35953   5.047  14.571  12.460  0.0463  0.0950 -0.0879
18430W        W35954  13.916  17.364  13.693 -0.4551 -0.0031  0.0058
18431W        W35955  14.489   1.256   0.741 -0.0963 -0.0027 -0.2323
18432W        W35956   4.328   9.688   1.729  0.0459  0.2154  0.1487
18433W        W35957  14.105   4.532  10.833  0.0792  0.0505  0.0083
18434W        W35958   1.208   0.518   4.800 -0.1989  0.1017  0.3013
18435W        W35959  16.025   9.042  13.262  0.0839 -0.1070  0.0336
18436W        W35960  17.565   1.048  14.862 -0.3777  0.1881  0.0215
18437W        W35961  15.915  15.033  13.022 -0.1739  0.1355 -0.2108
18438W        W35962   4.803   4.979   0.978  0.1274 -0.2682  0.0752
18439W        W35963   1.733   3.014  11.103 -0.1163 -0.0600 -0.1870
18440W        W35964   6.739  13.234   4.642  0.0260 -0.1481  0.1872
18441W        W35965   1.279  13.768   3.534 -0.0289  0.1436 -0.1241
18442W        W35966  17.755  18.052   3.541  0.2346 -0.0378  0.0315
18443W        W35967  15.328  18.286   4.539  0.0237  0.0617 -0.1682
18444W        W35968   5.219   5.444   4.985 -0.3458  0.1092 -0.1167
18445W        W35969   7.151   9.576   2.856 -0.3053 -0.1605  0.1651
18446W        W35970  11.103  15.075  13.222 -0.0751 -0.0608 -0.0718
18447W        W35971   7.626   9.982  13.360  0.0614  0.1756  0.0434
18448W        W35972   2.099  18.282   0.357 -0.0216 -0.4131 -0.3226
18449W        W35973  10.289   7.512   2.526  0.4412  0.1865 -0.0027
18450W        W35974   6.566   2.465  13.174  0.1738  0.0097  0.1373
18451W        W35975   1.646   8.789   1.995  0.0466  0.0267 -0.0817
18452W        W35976   6.990  10.491   0.737  0.1055  0.0718  0.0942
18453W        W35977  10.266   5.062   4.376  0.0941  0.0077  0.1027
18454W        W35978   9.671   2.531   0.142  0.2070  0.0894 -0.1210
18455W        W35979   6.941   2.531   1.606 -0.0782 -0.1241 -0.1489
18456W        W35980   5.490  17.967   4.646 -0.1481  0.1018  0.0502
18457W        W35981  13.752   9.007   4.674  0.1200  0.0426 -0.0244
18458W        W35982   3.267  11.164  13.891  0.0223 -0.1663 -0.0711
18459W        W35983   2.540  17.076   2.790  0.0043  0.2521 -0.1700
18460W        W35984  13.021  17.331   2.502 -0.1337  0.1650  0.0905
18461W        W35985   4.290   0.836  15.644  0.1471  0.3648 -0.2738
18462W        W35986  16.082  14.665  14.513 -0.0528  0.0605  0.1286
18463W        W35987  17.244   9.594   1.373 -0.3692 -0.1199  0.2838
18464W        W35988   9.102  14.810   0.452  0.0987  0.1649  0.1196
18465W        W35989   9.507   2.687  13.373  0.0954  0.4161 -0.0856
18466W        W35990  15.689  15.311   3.003 -0.2563  0.0325  0.2120
18467W        W35991   8.369   8.666  12.974  0.1474  0.0208 -0.4948
18468W        W35992   6.826   0.210   1.643  0.0907 -0.2855 -0.2050
18469W        W35993   9.771   1.026   1.372  0.1132 -0.2661 -0.0048
18470W        W35994  13.222  10.543  14.587  0.0069 -0.0275  0.1835
18471W        W35995  16.563  14.314  13.188 -0.1172  0.1914 -0.0757
18472W        W35996  15.937  16.593   5.163  0.1472 -0.2630 -0.2229
18473W        W35997   8.146  12.082  11.250  0.1069 -0.1276  0.2385
18474W        W35998   3.341   6.092  11.463 -0.0478  0.3577  0.0907
18475W        W35999   0.043  18.451   5.468 -0.3225 -0.2034  0.0001
18476W        W36000   7.572   0.441  13.921  0.1748 -0.0937 -0.1610
18477W        W36001  16.711   7.713  13.581  0.0202 -0.0875  0.3015
18478W        W36002   8.350  10.193   1.374  0.1128  0.2056 -0.1724
18479W        W36003   7.324  17.288   0.799  0.1978 -0.2135 -0.3067
18480W        W36004  13.613   1.145   1.865  0.0387 -0.1172 -0.0467
18481W        W36005  16.955   4.143  12.616  0.0743 -0.2310 -0.1975
18482W        W36006   4.169   5.194   1.970 -0.0536 -0.3151  0.0789
18483W        W36007   2.345   6.814   0.233  0.1083 -0.0122  0.0449
18484W        W36008   0.494  11.816   9.662  0.0087 -0.2782  0.1160
18485W        W36009   7.207  17.092   4.054 -0.2439 -0.2158  0.0254
18486W        W36010   3.842   2.553  13.754 -0.7275 -0.0610  0.0084
18487W        W36011  16.637  17.718   1.072 -0.1911 -0.0606  0.2862
18488W        W36012   9.329  16.785   4.101  0.0372 -0.0298 -0.3754
18489W        W36013  10.265   8.473   0.056  0.0692  0.0466 -0.1687
18490W        W36014   5.760   3.747   3.590  0.3781 -0.1416 -0.0280
18491W        W36015  16.142   8.847  12.809  0.0415 -0.2449  0.2254
18492W        W36016   3.970   1.488  15.706 -0.3148 -0.1908 -0.0103
18493W        W36017   7.179  16.047   2.542  0.3697 -0.0740  0.2020
18494W        W36018  13.422  17.331  12.054 -0.2093 -0.0939 -0.1192
18495W        W36019   7.863  11.331  13.698  0.0086 -0.3494  0.0177
18496W        W36020  17.584   2.765   3.331  0.2865 -0.5125 -0.1636
18497W        W36021   3.896   7.441   3.823  0.2998 -0.3565  0.3392
18498W        W36022  13.179   3.011  13.118 -0.2099  0.0344  0.3020
18499W        W36023   8.421   8.572  12.434 -0.1185 -0.0333  0.0203
18500W        W36024  14.155  12.546  13.260  0.0676 -0.0055 -0.0709
18501W        W36025   0.766  11.895  13.621  0.0979 -0.2897  0.1260
18502W        W36026  17.164   8.202  12.502 -0.0340 -0.0698 -0.0993
18503W        W36027  14.690   0.307  14.763 -0.0268 -0.1424  0.4541
18504W        W36028   1.564  13.535  13.073 -0.0736 -0.2861  0.1776
18505W        W36029   6.279   3.025   2.642 -0.0905  0.0853 -0.1653
18506W        W36030  18.445   4.588  11.756  0.0888 -0.1151  0.0294
18507W        W36031   4.496   9.064  11.184 -0.1760  0.3360 -0.0154
18508W        W36032  17.509  17.011   2.321 -0.0248  0.1576  0.1060
18509W        W36033  17.688   5.271  11.632 -0.0138  0.3973  0.1437
18510W        W36034  14.994   3.622  12.194  0.0311  0.0561 -0.0487
18511W        W36035  13.632   4.904   4.287  0.0184  0.1222 -0.0683
18512W        W36036  10.893   8.479  12.989  0.1802  0.1029 -0.0030
18513W        W36037  13.890   3.609  10.648 -0.2890  0.0299 -0.0569
18514W        W36038   2.154  10.525   2.858 -0.4319 -0.1653  0.0323
18515W        W36039  17.775   0.913   4.064  0.2703 -0.0389 -0.0048
18516W        W36040  15.295   2.316  14.292 -0.0821  0.0009 -0.0083
18517W        W36041  18.036   3.952   3.066 -0.0113  0.1546  0.0921
18518W        W36042   7.160  16.414  13.276 -0.0685  0.1364  0.2412
18519W        W36043   7.848   8.322  11.227 -0.0938  0.1997 -0.0203
18520W        W36044   1.313   9.999  14.805  0.0055 -0.4139  0.4395
18521W        W36045  15.830  13.073   3.286 -0.1273 -0.1011  0.2453
18522W        W36046   2.975   8.923   0.673 -0.1760 -0.2162  0.0051
18523W        W36047  14.899   4.961  11.798 -0.2132 -0.5869 -0.3753
18524W        W36048  10.997   1.418  14.543 -0.0828 -0.0178 -0.1261
18525W        W36049  13.848  16.668  12.870 -0.1354 -0.3247 -0.2672
18526W        W36050  17.888   8.030  13.177 -0.1413 -0.0378 -0.0452
18527W        W36051  14.972   2.832  15.203  0.1939  0.3163 -0.3609
18528W        W36052   6.121   5.684   3.245  0.1174 -0.0182  0.0184
18529W        W36053   9.909  12.918   4.598 -0.1237  0.0320  0.1160
18530W        W36054   1.953   0.889  13.165  0.3066 -0.0866 -0.1509
18531W        W36055   9.430  17.215  14.005 -0.0964 -0.1566 -0.0526
18532W        W36056  11.272   4.923   3.131 -0.0177  0.0905 -0.4473
18533W        W36057   7.441   7.713   3.900  0.1123 -0.0599  0.1994
18534W        W36058   3.426  12.150  11.627 -0.2038 -0.4654 -0.0457
18535W        W36059  15.814   4.075   0.050  0.0413 -0.1468  0.0826
18536W        W36060  15.117   8.790   0.707 -0.0438  0.2132 -0.0665
18537W        W36061   7.161   8.347  15.242  0.1827  0.1226  0.1007
18538W        W36062   6.321   4.195   0.994 -0.4295 -0.4734 -0.0281
18539W        W36063  11.032  17.918  11.276  0.2799 -0.3289 -0.2195
18540W        W36064   9.950   5.240  13.270 -0.1534  0.0380  0.1558
18541W        W36065   9.124   6.704  14.677  0.2149 -0.0118 -0.1711
18542W        W36066  14.496   5.455  12.400  0.0652 -0.0505  0.2246
18543W        W36067   0.554  16.770   0.018  0.0409 -0.0835  0.2399
18544W        W36068   5.773  16.034   0.334  0.2901  0.0227 -0.2227
18545W        W36069   2.132  10.290  14.293 -0.1918  0.1331 -0.1559
18546W        W36070   9.237   0.196   2.582  0.1426 -0.2193 -0.1659
18547W        W36071  16.944   1.552  13.112 -0.0237  0.0568 -0.2144
18548W        W36072   4.172   5.316   0.184 -0.0750 -0.1682 -0.0502
18549W        W36073  12.204   7.733  13.888  0.0444  0.0725  0.2844
18550W        W36074   9.969   9.190   0.086  0.1342  0.0968 -0.0205
18551W        W36075  13.906   9.965   4.254 -0.0186  0.0641  0.0147
18552W        W36076   5.637   4.721  11.612  0.1834  0.1169  0.0623
18553W        W36077  14.956   8.170   4.099  0.0110 -0.3599 -0.2117
18554W        W36078  16.054  13.185   2.186 -0.1424  0.0033  0.0342
18555W        W36079   0.203   9.913  10.733 -0.1205 -0.0664 -0.2073
18556W        W36080   2.400   7.646  13.293  0.0638 -0.1631  0.1981
18557W        W36081  11.160  11.564   3.751 -0.0695 -0.1656  0.0224
18558W        W36082   0.314   6.042  11.308 -0.0036 -0.1956  0.3993
18559W        W36083  16.526  10.117   0.506 -0.2384  0.2008 -0.0737
18560W        W36084  12.754   3.713   0.279  0.1935  0.0388  0.0490
18561W        W36085  12.960   5.770   0.390  0.1176  0.0815  0.1545
18562W        W36086   3.441  15.666  12.813  0.0837  0.1894  0.2208
18563W        W36087   8.555  11.995   4.452 -0.0442 -0.2230 -0.2431
18564W        W36088  11.506   6.389  12.134 -0.3846 -0.1508 -0.1157
18565W        W36089  14.597   9.571  11.782  0.4310 -0.2841 -0.0139
18566W        W36090  13.096   0.796  12.836  0.0548  0.3635  0.0789
18567W        W36091   6.929   0.847   0.151 -0.0002 -0.0889  0.0797
18568W        W36092  10.251   2.081  13.149 -0.0989 -0.0128  0.1321
18569W        W36093   5.199   9.001  12.297 -0.1972  0.3300  0.4743
18570W        W36094   9.770  17.904   3.128 -0.1348  0.0683  0.2265
18571W        W36095  11.878  16.206   0.464 -0.1187 -0.3776 -0.0441
18572W        W36096  13.782   9.781   1.402  0.0481 -0.0286  0.3044
18573W        W36097   2.268   6.990   1.621 -0.0957 -0.0483 -0.1794
18574W        W36098   8.274   8.545   2.917  0.4017  0.1129  0.1492
18575W        W36099   8.229  18.194  11.019 -0.3528  0.3597 -0.1268
18576W        W36100   1.157  12.449  11.949  0.1092 -0.0096 -0.0996
18577W        W36101   5.618  10.530   4.372  0.3427  0.1372 -0.0257
18578W        W36102  10.379  17.646   5.313  0.4494  0.4216  0.3134
18579W        W36103  17.883  16.647  12.117 -0.0117  0.0296 -0.2286
18580W        W36104  17.768   4.296  13.386  0.1544 -0.0451 -0.0717
18581W        W36105  15.748   8.337   5.389 -0.0374  0.2105  0.1647
18582W        W36106   1.092   6.276   4.429 -0.3563  0.0737  0.0003
18583W        W36107   6.220   7.014   3.301 -0.3737 -0.2814  0.0556
18584W        W36108   0.515   0.420  13.127  0.0638  0.0070 -0.1071
18585W        W36109  11.455   5.732  12.345 -0.1630  0.2066  0.0781
18586W        W36110   2.815   5.052   3.461 -0.0531 -0.1962 -0.1388
18587W        W36111  15.298  13.005   0.618 -0.0135  0.0457  0.1759
18588W        W36112   8.693   2.108  13.819  0.0652 -0.0577  0.2145
18589W        W36113   5.653   6.628  14.508 -0.0859 -0.1695 -0.1455
18590W        W36114  12.010  16.820   2.973 -0.2180  0.0579  0.0812
18591W        W36115  18.151  13.408   5.175  0.0487 -0.2309 -0.0102
18592W        W36116  13.235   7.248  15.546  0.1255  0.6532 -0.0234
18593W        W36117  11.736   5.615   2.646  0.2865  0.3730 -0.0938
18594W        W36118   7.779   6.971  11.367  0.0088 -0.5065 -0.1504
18595W        W36119  12.273  16.225   1.950  0.1086  0.4102  0.1408
18596W        W36120  13.290  13.150  12.131  0.3056  0.2148 -0.0959
18597W        W36121  10.894  11.210   1.680 -0.0185 -0.2189  0.2664
18598W        W36122   9.208  11.385   4.400 -0.1051  0.2674 -0.0673
18599W        W36123   6.793  10.524   3.070 -0.1420  0.0782  0.0312
18600W        W36124   3.646  12.936  11.208 -0.0093  0.1992 -0.0047
18601W        W36125   9.893   9.545   4.288  0.2476 -0.1272 -0.0558
18602W        W36126   6.631   9.903  12.778  0.0893 -0.0036 -0.1393
18603W        W36127   3.803  13.971  15.286  0.0650 -0.0408 -0.2695
18604W        W36128  14.190  15.810  10.903  0.0440 -0.2614 -0.2980
18605W        W36129  15.052   3.198   4.009 -0.2845  0.3102  0.3036
18606W        W36130   5.155   2.723   3.792  0.1514 -0.2213 -0.0185
18607W        W36131   1.615  11.953   1.740 -0.2253 -0.0645 -0.1326
18608W        W36132   7.828  13.506  12.001  0.0366 -0.1023  0.1693
18609W        W36133  16.905   1.628   5.252 -0.1339 -0.2445  0.1489
18610W        W36134  16.815  12.779  13.403  0.6043  0.1698  0.1675
18611W        W36135  11.257   0.781  14.557 -0.2791 -0.1929  0.0612
18612W        W36136   4.442  13.960   1.928 -0.0610  0.0611 -0.0494
18613W        W36137   0.010   3.416   1.880  0.1479 -0.1004  0.1288
18614W        W36138   5.194  12.921   2.534 -0.3924 -0.4257  0.0066
18615W        W36139   8.793   7.727   0.536 -0.0562  0.1621  0.2999
18616W        W36140  15.766  18.109  12.519 -0.0552  0.1912  0.0504
18617W        W36141   2.232  10.167   3.645  0.0042 -0.2939  0.2367
18618W        W36142   8.233  17.894  11.760  0.1476  0.0560 -0.0345
18619W        W36143  13.271   8.460  11.890  0.0984  0.3297 -0.1330
18620W        W36144   5.647   4.805   1.945 -0.0772  0.1545  0.4712
18621W        W36145   7.492   7.944   3.014  0.1633  0.2308 -0.1316
18622W        W36146  12.133  17.185   0.420  0.1387 -0.1927 -0.0483
18623W        W36147  12.875  16.974   3.450  0.0108 -0.1064 -0.2648
18624W        W36148   2.459   1.399  12.993 -0.1110  0.1417  0.1952
18625W        W36149  14.318   0.692  11.362  0.2308 -0.0021  0.0759
18626W        W36150  17.556  10.887   2.642  0.1874  0.3694 -0.0369
18627W        W36151  16.701   6.496  13.867 -0.0274 -0.1804 -0.4187
18628W        W36152   5.918  16.211  14.016  0.0859  0.1101  0.3491
18629W        W36153   4.661  18.040   4.034 -0.0600  0.1448 -0.2441
18630W        W36154   4.612   5.224  11.163 -0.0586  0.4126  0.0913
18631W        W36155   8.270  11.579   1.536 -0.4614 -0.1337 -0.4192
18632W        W36156   0.228  14.028   0.220 -0.1484  0.0160 -0.1189
18633W        W36157   8.565   6.932  13.566  0.2270  0.1333  0.2602
18634W        W36158  11.107  11.836  13.787  0.2659  0.2001  0.0439
18635W        W36159  14.475  16.369  11.785 -0.1341 -0.0703  0.0892
18636W        W36160   8.571   7.069   2.974  0.2147 -0.3438  0.0956
18637W        W36161   9.377   7.889   2.272  0.2030 -0.2418  0.0181
18638W        W36162   8.919  18.355  14.890 -0.0586  0.0705 -0.3663
18639W        W36163   5.194   4.634   1.053 -0.1908  0.1212 -0.3054
18640W        W36164   4.051   8.928  11.477  0.1085 -0.0647 -0.2647
18641W        W36165   5.333   3.175   0.314  0.1103 -0.1580  0.0537
18642W        W36166  11.919   2.157   4.347  0.2547 -0.2292  0.0867
18643W        W36167  15.778  13.058  15.014  0.0072  0.1886  0.0653
18644W        W36168  17.861   4.124   1.546  0.1485 -0.2099 -0.1365
18645W        W36169  10.717   4.249  12.115 -0.1953  0.2010  0.0077
18646W        W36170   6.529   0.151   4.825  0.2209  0.0509  0.1219
18647W        W36171  17.396   3.784  12.058  0.0154 -0.1813 -0.4423
18648W        W36172  11.228   3.719  13.938 -0.0468  0.0198  0.2339
18649W        W36173  16.539   4.832  11.665  0.0773 -0.0566  0.2284
18650W        W36174   7.462   4.392   2.670  0.0972 -0.0024  0.4336
18651W        W36175   6.616  16.099   1.967 -0.2214 -0.1677  0.0955
18652W        W36176   5.550  16.819  11.116 -0.1323  0.0339 -0.0756
18653W        W36177   3.715  15.779   1.395 -0.0787  0.0925  0.2647
18654W        W36178   5.419   7.991   1.246  0.1413  0.1605 -0.1830
18655W        W36179   7.201  13.657   0.581 -0.1111  0.2218 -0.1765
18656W        W36180  10.772  12.858   1.361 -0.3979  0.0283 -0.0927
18657W        W36181  17.454   4.821  14.836 -0.0122 -0.2497  0.1669
18658W        W36182  14.803   7.944   3.473  0.0622  0.2566  0.0135
18659W        W36183  12.569  15.920   2.528 -0.0292 -0.2801 -0.2029
18660W        W36184  13.826   3.877   0.927 -0.1833  0.0481  0.1086
18661W        W36185   3.195  12.634  13.232 -0.1510 -0.1992 -0.0885
18662W        W36186   0.531  11.635   5.068 -0.0152  0.0698 -0.2776
18663W        W36187   1.740  13.595   1.042  0.0441  0.1824  0.1849
18664W        W36188  12.809   2.689  12.036 -0.1397  0.3935 -0.0701
18665W        W36189   0.176   0.092  13.331  0.2803  0.2246  0.2222
18666W        W36190   9.693   5.594   3.837  0.1349 -0.1831  0.1737
18667W        W36191  18.383  12.694   5.664  0.0459  0.0193 -0.2027
18668W        W36192   4.666  14.600  15.485  0.2199  0.1687 -0.3909
18669W        W36193  13.956  16.807   0.278 -0.0105 -0.0835 -0.0021
18670W        W36194   4.855  18.220   3.617  0.3260 -0.3046 -0.0099
18671W        W36195  15.016  17.699   2.476  0.3904 -0.0532  0.0319
18672W        W36196  13.019  10.095  12.736 -0.1519 -0.1574  0.0609
18673W        W36197  11.778   5.558  15.231  0.1220  0.0416  0.2639
18674W        W36198   4.155  16.567   3.278 -0.1894  0.1009  0.3554
18675W        W36199   1.638   6.213  13.335 -0.1890  0.0484  0.1467
18676W        W36200   1.753  16.843   1.855 -0.0018  0.0578 -0.0052
18677W        W36201   8.010  16.235   2.184  0.1774 -0.2038  0.2303
18678W        W36202   9.103   5.392  14.099 -0.1805  0.1943  0.0384
18679W        W36203  14.641   9.584   4.479 -0.1013 -0.2701  0.1078
18680W        W36204   3.987  11.605  11.050 -0.1799  0.0059 -0.0143
18681W        W36205   6.798   3.759  15.326  0.1497  0.5156 -0.2187
18682W        W36206   7.100   7.624   0.374  0.0633 -0.0065  0.0379
18683W        W36207   1.121   6.002   3.149  0.5069  0.0895 -0.1382
18684W        W36208   9.317   6.503   1.020 -0.0887 -0.0608  0.2680
18685W        W36209   4.061  17.560   0.313 -0.1349  0.1091  0.0463
18686W        W36210   3.109   0.227   2.182  0.1166 -0.1457 -0.2070
18687W        W36211  16.279   0.801  12.261  0.2728  0.2123 -0.0064
18688W        W36212   1.648  16.142  13.715  0.0301  0.0200 -0.0027
18689W        W36213  15.764  16.527   4.065 -0.1565  0.0988  0.2453
18690W        W36214   9.599   2.377  12.607  0.3093  0.1856  0.2699
18691W        W36215   9.031   3.834  13.598  0.1679  0.2039  0.0987
18692W        W36216  14.838   3.269  14.866 -0.1811  0.0180  0.2678
18693W        W36217   9.945  16.935  13.599  0.3754  0.3190  0.0152
18694W        W36218  16.673   5.300   0.403  0.1421  0.0699 -0.2834
18695W        W36219   7.988  14.810   2.245  0.1306  0.1638 -0.0622
18696W        W36220  11.273  18.388  12.277 -0.0463  0.0185 -0.0387
18697W        W36221  10.126  13.287  13.383  0.1380 -0.0787 -0.1251
18698W        W36222   4.427   3.257  13.941  0.2580 -0.2814 -0.0533
18699W        W36223   5.243   1.883   4.810  0.2559  0.0184 -0.0343
18700W        W36224   7.555  15.158  12.609 -0.0376  0.0983  0.1277
18701W        W36225   1.965  17.237  15.516 -0.0371  0.1572 -0.3890
18702W        W36226   3.489   4.658  14.814  0.1433 -0.0713  0.0464
18703W        W36227   8.701   0.242  14.528  0.0827 -0.3125  0.2460
18704W        W36228  10.591  12.605   1.797 -0.0764 -0.1803  0.0562
18705W        W36229  18.453   9.728  13.772 -0.0018  0.0136 -0.1475
18706W        W36230   7.815   9.351  12.597  0.2017 -0.3336  0.3163
18707W        W36231   4.649  11.908  15.253  0.4111  0.1387  0.1015
18708W        W36232   5.172  18.399   2.792 -0.0910 -0.2998  0.1233
18709W        W36233  14.329  12.827   4.344  0.2744 -0.2213 -0.1285
18710W        W36234   9.205  18.301  13.570 -0.0319 -0.2195 -0.1643
18711W        W36235  16.725   1.889   0.416 -0.1710 -0.2243  0.1521
18712W        W36236   4.035   5.654   4.278 -0.1006 -0.0412  0.3160
18713W        W36237  10.977  13.578  13.286 -0.1065 -0.0652 -0.0756
18714W        W36238   2.114   8.013  12.983 -0.1781 -0.2273  0.0618
18715W        W36239  12.331   6.120  14.887  0.0054  0.2026 -0.0828
18716W        W36240   0.699  11.823  12.663 -0.1634 -0.2389  0.1202
18717W        W36241   2.012  17.270  14.607  0.1716 -0.2746 -0.0374
18718W        W36242   3.871   5.517  13.641  0.0477 -0.1427  0.2483
18719W        W36243   9.136   1.408  13.979  0.0366  0.2654  0.1419
18720W        W36244  15.572  15.337   3.538  0.0115 -0.0442 -0.1461
18721W        W36245  15.783   2.769  10.906  0.1335  0.3209 -0.0114
18722W        W36246  12.192  14.578   4.301  0.2698  0.0453  0.0653
18723W        W36247   6.644   7.498   1.625  0.1526  0.0283 -0.2234
18724W        W36248   1.512   5.855  11.990 -0.0045  0.2757  0.0247
18725W        W36249  15.463  16.164   0.237 -0.1947  0.0658  0.0051
18726W        W36250   3.846  17.490  11.160  0.3603 -0.0022  0.3805
18727W        W36251   9.565   5.400   0.096  0.0488  0.0222  0.1322
18728W        W36252  16.545   4.540  12.955 -0.1956 -0.1756  0.2289
18729W        W36253   8.265  11.173   1.250 -0.2138 -0.0562  0.2766
18730W        W36254  16.238  10.280   2.702  0.2029 -0.2022  0.1142
18731W        W36255  10.696  16.507   3.599  0.1081 -0.2960  0.3602
18732W        W36256   1.734   7.370   1.780  0.0027 -0.2743  0.1022
18733W        W36257   2.417   7.254   4.383 -0.0510  0.1858  0.2074
18734W        W36258   2.137  17.363   2.783  0.0167  0.1573 -0.0844
18735W        W36259   0.067   3.878   2.075  0.1214  0.0454 -0.1428
18736W        W36260   9.377   7.635   3.834 -0.0929 -0.0472  0.0391
18737W        W36261   5.810   8.086  15.225  0.1286 -0.2513 -0.0165
18738W        W36262  14.612   2.558  11.305 -0.0662 -0.2006 -0.0417
18739W        W36263   1.308   5.572   3.326 -0.2148  0.3467  0.1574
18740W        W36264  10.491   5.829   3.435  0.1115 -0.6067  0.0736
18741W        W36265  13.865   3.488   1.794 -0.1208 -0.2979  0.1435
18742W        W36266  15.824   7.439  13.053 -0.1094  0.1059  0.3474
18743W        W36267   5.407  13.626   0.055  0.1208 -0.1622 -0.1455
18744W        W36268  17.816  14.249   5.388 -0.2613  0.2606 -0.0095
18745W        W36269  12.149  12.615   4.460  0.1557  0.1096 -0.1196
18746W        W36270  13.160  11.384  12.286  0.1827  0.4180 -0.0461
18747W        W36271   5.827   7.283  11.851 -0.3560 -0.1036  0.0368
18748W        W36272   4.469  14.527   5.690  0.1366  0.0485  0.2879
18749W        W36273  14.936   2.577  10.360  0.0596  0.1971  0.2754
18750W        W36274   1.434   4.285   5.135  0.2386  0.2593 -0.1103
18751W        W36275   6.169  15.878   2.801 -0.1035 -0.1346 -0.0208
18752W        W36276  14.372   9.636   3.217  0.3398 -0.0730  0.0272
18753W        W36277  13.212   9.019   5.554  0.2244  0.0495 -0.1969
18754W        W36278  18.282  11.032  11.089  0.4144 -0.2733  0.0988
18755W        W36279  17.352   5.669   3.806  0.2143 -0.0664 -0.0255
18756W        W36280  16.691  13.011  15.438 -0.1091 -0.1492  0.0589
18757W        W36281   7.003  13.908  11.396 -0.1010 -0.0824  0.1811
18758W        W36282   4.991  16.439   0.949 -0.2453  0.0312  0.2192
18759W        W36283   5.982  15.327   4.397  0.1196  0.1924  0.2894
18760W        W36284  18.485   3.521  13.972  0.1766 -0.4405  0.0395
18761W        W36285  16.683   0.968   2.542  0.0327 -0.0323 -0.0625
18762W        W36286   7.730  11.799   4.057 -0.3770  0.0169 -0.1453
18763W        W36287   4.033   3.130   4.495 -0.5931 -0.1178 -0.1309
18764W        W36288  11.018   8.361  14.591  0.1797 -0.0643  0.1494
18765W        W36289  18.337  16.434   1.461 -0.0216  0.0122  0.5584
18766W        W36290   5.108  17.563   3.133  0.1410 -0.2146  0.2394
18767W        W36291   5.977   2.365  10.773 -0.0237  0.0121  0.0922
18768W        W36292  12.799  14.736  11.450 -0.0122  0.1904 -0.1314
18769W        W36293   1.209  13.748   1.230  0.0315 -0.0474  0.3947
18770W        W36294  10.327  15.442   3.038 -0.0157  0.1680  0.1552
18771W        W36295   6.084  11.774   4.428  0.0844 -0.1073  0.0992
18772W        W36296  14.898   9.852  15.100  0.1033  0.1325 -0.4541
18773W        W36297   6.454  12.198   1.077  0.0244  0.4043 -0.3113
18774W        W36298  15.253  16.593   2.583  0.0849  0.0732  0.0140
18775W        W36299  15.440  18.178  10.559  0.1030 -0.0859 -0.2754
18776W        W36300   7.655  17.310  12.437  0.1619 -0.0991 -0.3055
18777W        W36301  10.476  11.024  11.905 -0.2153 -0.0136 -0.2209
18778W        W36302  12.662  17.479   1.256 -0.2341 -0.1191  0.2678
18779W        W36303   6.210  11.790  12.803 -0.0611  0.2873  0.2460
18780W        W36304   1.937   5.855   3.920  0.0402 -0.3248 -0.1774
18781W        W36305  12.644   1.655  12.935  0.3633 -0.3449 -0.0724
18782W        W36306  10.312  16.395   1.525 -0.2938 -0.0465 -0.2847
18783W        W36307  10.952  11.005  12.440 -0.0033 -0.0158 -0.0470
18784W        W36308   2.463   8.919   0.263 -0.0922  0.2958 -0.1657
18785W        W36309   7.080  18.126   3.186  0.0434  0.1327 -0.1072
18786W        W36310   1.354   7.196  15.258 -0.1481  0.0263  0.0339
18787W        W36311   7.533  17.695  12.179 -0.0705  0.0389 -0.2297
18788W        W36312  11.787   1.983  14.170 -0.0455 -0.2439  0.1877
18789W        W36313   7.886  14.964   3.540  0.1248  0.2215  0.1920
18790W        W36314  13.142   8.783  15.055  0.2279  0.1597 -0.0225
18791W        W36315   6.030   3.031   3.833 -0.0338 -0.0494 -0.2183
18792W        W36316   1.583   3.025   1.598  0.0692 -0.0341 -0.2212
18793W        W36317   8.567   7.756   1.756 -0.1814 -0.0175 -0.2435
18794W        W36318  13.730  14.057  13.251 -0.0422  0.0487 -0.1253
18795W        W36319  12.098   0.928   3.437 -0.1577  0.1998 -0.3899
18796W        W36320  13.013  17.600   5.174 -0.0378 -0.0091 -0.3583
18797W        W36321   0.985  18.331  13.614 -0.4599 -0.3348 -0.3710
18798W        W36322  14.918  16.020   3.766 -0.0644  0.3240 -0.0775
18799W        W36323  12.528  14.260   2.477 -0.3256  0.4661  0.4757
18800W        W36324  13.646  11.025  13.348 -0.1953  0.2632  0.3048
18801W        W36325   9.307   6.262  12.740  0.0299  0.0021 -0.1186
18802W        W36326  12.047  17.258  14.693 -0.1799 -0.0137 -0.1253
18803W        W36327   7.739  15.656   5.412  0.1894  0.0234 -0.1523
18804W        W36328   0.695   2.293   4.067 -0.1423  0.1436 -0.0306
18805W        W36329  11.007   7.075   2.266  0.1115  0.2533 -0.1666
18806W        W36330  13.067  14.136  12.390 -0.1355 -0.0906  0.1731
18807W        W36331   1.152   3.245   4.345  0.2072  0.3655  0.0552
18808W        W36332   3.397  17.134   4.351  0.0728 -0.1946  0.0626
18809W        W36333   7.868   5.251   3.136 -0.0367  0.2155 -0.1434
18810W        W36334   4.786   7.537   3.679  0.0351 -0.2543 -0.3463
18811W        W36335   7.748  17.361  10.037  0.0039  0.1385  0.1361
18812W        W36336  10.716   0.617   2.298  0.2274  0.2268  0.0510
18813W        W36337  17.670  13.979   9.920 -0.0045  0.2692  0.1303
18814W        W36338  15.642  11.590  12.193 -0.3622  0.0329 -0.0454
18815W        W36339  13.376   9.516   1.205  0.1337 -0.0597  0.1244
18816W        W36340   8.968   0.000   0.534 -0.0565  0.4251  0.0276
18817W        W36341  13.371   2.539  11.352  0.1442  0.0181  0.0115
18818W        W36342  10.113   8.083  13.502  0.0266  0.1729 -0.0222
18819W        W36343  12.251  12.570  12.652  0.3504  0.0570  0.3499
18820W        W36344   0.987  12.728  12.314  0.3804 -0.1005  0.3006
18821W        W36345  10.964   4.680  12.277  0.0782  0.1408  0.1112
18822W        W36346  17.328  15.828  11.467  0.2994 -0.0258  0.3029
18823W        W36347  13.274   8.210  14.958  0.1970  0.2637  0.1929
18824W        W36348  12.372  10.031  10.679  0.0794  0.0806 -0.1516
18825W        W36349  14.262   4.866  14.973 -0.3505  0.0002 -0.2960
18826W        W36350  18.209  13.446  12.595  0.1678  0.0508 -0.0891
18827W        W36351   5.777  10.083  10.738 -0.1326  0.0802  0.0267
18828W        W36352  11.901  12.912   3.477  0.0188  0.0198  0.0044
18829W        W36353   6.197   9.519   4.993 -0.0799 -0.1328  0.1400
18830W        W36354   4.844   8.526   1.756  0.1587 -0.3121  0.5026
18831W        W36355  10.072  12.266  13.333  0.2193  0.3653  0.1199
18832W        W36356  12.767  13.684  14.838  0.1050  0.0294  0.1459
18833W        W36357   4.766  14.783  13.554 -0.1494 -0.0251 -0.0178
18834W        W36358  16.330   2.009  13.730  0.0228 -0.2259 -0.3518
18835W        W36359   6.456  16.867  14.603  0.4615 -0.1086  0.0402
18836W        W36360  11.352   0.831  12.263  0.3177 -0.2000 -0.0113
18837W        W36361   2.300  11.405   0.273 -0.0607  0.1433  0.1147
18838W        W36362  11.381   9.657   3.826  0.2135  0.0623  0.0840
18839W        W36363   9.593  10.134   1.909 -0.1436  0.2630 -0.1691
18840W        W36364  10.263  14.114   3.829  0.1931  0.0243  0.0599
18841W        W36365   5.590   3.310   3.770 -0.3711 -0.2417 -0.2334
18842W        W36366   6.114   7.431   0.297 -0.4623 -0.1968 -0.2161
18843W        W36367   8.412   5.078  12.553 -0.1463  0.1030 -0.3632
18844W        W36368  11.506   3.568   0.186  0.2194  0.4523  0.2363
18845W        W36369   5.954  15.282   3.518 -0.0431  0.0436 -0.0133
18846W        W36370   2.934   6.330   2.483  0.0197  0.0196 -0.3426
18847W        W36371  12.843   5.448  12.904 -0.2669 -0.6804 -0.3873
18848W        W36372   5.342  14.224  14.254 -0.4842  0.0116  0.2084
18849W        W36373  13.704   6.404   4.832  0.1899  0.1489  0.1014
18850W        W36374  11.933   0.028  12.581 -0.0765 -0.1714  0.1421
18851W        W36375  13.143  13.484  14.682 -0.1829  0.2461  0.1684
18852W        W36376  15.222   9.464   1.778  0.2611  0.0562 -0.1573
18853W        W36377   7.329   6.474   1.791 -0.2979  0.1375  0.1835
18854W        W36378   0.218   9.520   0.346  0.0831 -0.1045  0.0709
18855W        W36379   9.074   0.633  13.826  0.2295 -0.3347  0.0618
18856W        W36380   8.249   0.572   0.412  0.0786 -0.0248 -0.2147
18857W        W36381   3.643  16.479  14.375  0.0534  0.2160 -0.0371
18858W        W36382   6.275  18.283  14.431  0.3326 -0.0752  0.1518
18859W        W36383  14.629  17.685   2.126  0.0600 -0.1848 -0.2339
18860W        W36384   2.013   3.401   2.759 -0.1230  0.1442 -0.0097
18861W        W36385  13.742  16.155   4.595  0.1259  0.1546 -0.0886
18862W        W36386   4.896   2.153   2.299  0.2662  0.0948 -0.0307
18863W        W36387   9.031  14.026   2.491  0.0801  0.1612  0.2173
18864W        W36388   7.145  11.225  11.339  0.0644 -0.0005  0.0252
18865W        W36389  10.541  15.512  14.770 -0.0514 -0.0734  0.1559
18866W        W36390   0.448  12.465  12.953 -0.1332  0.0416  0.0204
18867W        W36391   8.675  10.204  14.129  0.0711 -0.0283 -0.0082
18868W        W36392   5.286  17.741   1.457  0.0078  0.0455 -0.1834
18869W        W36393  16.052  14.362   0.194 -0.0055  0.1854 -0.1594
18870W        W36394   0.220   7.471   4.608 -0.1233 -0.4353  0.0900
18871W        W36395   1.594   4.036   4.726  0.0934  0.3233 -0.0696
18872W        W36396  11.720   7.526  12.944  0.0704 -0.2053  0.0176
18873W        W36397  14.802  14.769  13.795 -0.2107  0.0619  0.1465
18874W        W36398   5.040   8.416   2.605  0.0963  0.2194  0.1019
18875W        W36399   6.487  11.859   2.816  0.1007  0.0277  0.0950
18876W        W36400  18.283  11.241   4.674 -0.0782  0.2270 -0.0344
18877W        W36401   6.870   6.934  15.197  0.1791  0.0232  0.1648
18878W        W36402  17.254   2.205   4.016  0.0546  0.0239  0.0508
18879W        W36403   8.351  16.589  13.957 -0.1661 -0.3162 -0.0404
18880W        W36404   3.539   6.639  14.133  0.0954  0.0102 -0.0679
18881W        W36405  13.268   6.359  14.319  0.2055 -0.1102  0.2003
18882W        W36406  12.012   3.859  15.619  0.1464  0.0164  0.0266
18883W        W36407  11.868  13.845  12.205 -0.0362  0.2596  0.1283
18884W        W36408  12.216   9.694   4.057 -0.2248  0.0156 -0.2584
18885W        W36409  16.704   3.614  13.947  0.0335  0.1748  0.0358
18886W        W36410   1.594   2.345  12.134 -0.2369 -0.1134 -0.0209
18887W        W36411  15.794  12.353  12.193 -0.0705  0.1403  0.0566
18888W        W36412  11.433   0.803   1.568  0.1378 -0.2429  0.2346
18889W        W36413   1.462  15.527   1.699 -0.0726 -0.0891 -0.0039
18890W        W36414   8.918  17.954   1.797  0.0215 -0.0215 -0.1750
18891W        W36415   5.810  16.684  12.617 -0.0560  0.0313  0.0447
18892W        W36416  11.406  14.255  13.866 -0.1052  0.0874  0.0563
18893W        W36417  14.316   0.277  13.565  0.3548  0.2321 -0.1642
18894W        W36418   0.139  14.750   2.490 -0.3324 -0.0476  0.2124
18895W        W36419  17.233   6.520  13.593 -0.0091  0.1139 -0.1799
18896W        W36420  12.610   5.134   3.269  0.1962 -0.0102  0.0621
18897W        W36421   8.741  12.700   2.672  0.2453  0.1198  0.2593
18898W        W36422  11.259  16.430  14.949 -0.2327  0.0529 -0.1991
18899W        W36423   6.508  14.843  15.270 -0.0900 -0.6624  0.1558
18900W        W36424  17.200   2.489  14.490 -0.1277  0.0512 -0.0108
18901W        W36425   7.514  16.431   2.912 -0.1502 -0.0267  0.3746
18902W        W36426  15.076   0.952   1.530 -0.0760 -0.2863 -0.3426
18903W        W36427   1.191  14.153  14.186  0.0357  0.0116 -0.0542
18904W        W36428  14.723   9.981   1.582  0.0293 -0.3960 -0.0953
18905W        W36429   2.427  18.022   5.081  0.3385  0.0558 -0.0224
18906W        W36430  16.621   8.206   0.638 -0.0128  0.1027  0.0267
18907W        W36431  10.764   3.273   1.862 -0.1267  0.0504  0.2035
18908W        W36432  11.190   6.999  10.793 -0.0191 -0.0137  0.3434
18909W        W36433   7.382  14.376  15.154  0.0616  0.1394 -0.0054
18910W        W36434   1.512   3.756  14.987  0.1128  0.1654 -0.1174
18911W        W36435   1.368   7.665  12.515 -0.1671 -0.0904  0.0824
18912W        W36436  15.386  17.341   4.058  0.1519  0.0827  0.0223
18913W        W36437   7.097   8.789   2.639  0.0176 -0.0399 -0.0992
18914W        W36438  14.116  16.836   3.367 -0.3848 -0.0323 -0.3462
18915W        W36439  10.358   1.240  13.560 -0.1534 -0.0935  0.0493
18916W        W36440  15.371  12.189   0.093 -0.0397 -0.1350  0.0596
18917W        W36441   2.825   1.920   2.182 -0.0518 -0.0816 -0.4031
18918W        W36442  12.461   8.617  12.273  0.0763 -0.0425  0.0911
18919W        W36443  17.709  15.120  14.399 -0.2072  0.0046 -0.2932
18920W        W36444   8.957   0.641  12.613  0.2225 -0.0792  0.1232
18921W        W36445  16.395  12.122   0.320  0.2416 -0.0293  0.1831
18922W        W36446   5.707  16.355  11.306  0.0456 -0.1279 -0.3335
18923W        W36447  18.338   4.297  11.362 -0.1576  0.1416  0.3052
18924W        W36448  17.950  16.057  14.010 -0.0324 -0.2248 -0.1543
18925W        W36449  13.369   1.919   6.235 -0.2838  0.1261 -0.1359
18926W        W36450   4.531   5.425  11.610  0.1541  0.3013 -0.3859
18927W        W36451   2.004   7.377   1.360 -0.0548  0.1358 -0.0738
18928W        W36452   4.170  10.391  11.546 -0.1581  0.2988  0.0795
18929W        W36453  10.931  11.087   2.279 -0.1120 -0.0480  0.1138
18930W        W36454   3.504  10.103   3.256  0.1061  0.0098 -0.2668
18931W        W36455  11.608   6.632  11.264 -0.0755 -0.1342  0.0964
18932W        W36456   2.983  17.254   3.312  0.1519 -0.1838  0.2057
18933W        W36457   8.269  12.994   4.326  0.3248  0.2074 -0.1430
18934W        W36458  17.012   6.876  12.205  0.1568  0.1748  0.0589
18935W        W36459   5.407   3.083   0.999 -0.1889 -0.1424 -0.4870
18936W        W36460   0.096   4.623   3.145  0.2600  0.0853  0.0870
18937W        W36461   5.994   8.972  13.447 -0.2703  0.2061  0.2188
18938W        W36462   0.743  10.959  14.033 -0.0504  0.0204 -0.1606
18939W        W36463   6.018   0.364   3.406 -0.1972 -0.2782  0.0023
18940W        W36464   0.338   8.652   5.611  0.1823  0.1161 -0.1803
18941W        W36465   3.160  17.071   5.113 -0.1399  0.2512 -0.1092
18942W        W36466  13.556   2.678  13.205 -0.3054  0.0639  0.3281
18943W        W36467  10.565   1.659  14.307 -0.0435  0.1618 -0.0033
18944W        W36468  17.139   0.886   2.823 -0.0640  0.3798 -0.1179
18945W        W36469  17.444  16.685  14.916  0.1892  0.2429 -0.1098
18946W        W36470   0.374   5.127  14.455 -0.2150 -0.0051 -0.2185
18947W        W36471   3.761  11.357  10.165 -0.1586  0.0989 -0.3455
18948W        W36472  16.479  17.866   5.637  0.1525  0.0399  0.1346
18949W        W36473   5.106   8.375   1.282  0.1857  0.2054 -0.1779
18950W        W36474   4.215  10.321   1.934 -0.1421  0.0482 -0.0340
18951W        W36475  14.766   2.570   2.949 -0.0803  0.0894  0.0266
18952W        W36476   5.704   1.628   4.821  0.0688 -0.0584  0.3742
18953W        W36477   8.249   5.535  14.596 -0.2464 -0.0136  0.0923
18954W        W36478  14.736   4.269  12.997  0.2434  0.3707 -0.2181
18955W        W36479  12.902   6.721  12.584  0.1707  0.0678 -0.1385
18956W        W36480   9.019   1.672   5.257  0.0164 -0.1668  0.2737
18957W        W36481  14.341  18.416   1.315  0.1631 -0.2377  0.2174
18958W        W36482  17.988   3.769  13.480 -0.0724  0.0639  0.2421
18959W        W36483   2.819  11.274   4.574  0.1306 -0.0305  0.2667
18960W        W36484   3.876  10.711   3.386  0.1442 -0.0066  0.0160
18961W        W36485  10.461   0.986   0.701 -0.2069  0.0511 -0.0498
18962W        W36486  17.435   7.929   1.542  0.1451  0.1101  0.2397
18963W        W36487   5.931   1.973  15.408 -0.0850 -0.0364  0.1279
18964W        W36488   6.541  13.751   3.931 -0.0477  0.0770 -0.1056
18965W        W36489   3.798   5.302  11.026  0.0414 -0.1273  0.3855
18966W        W36490  11.260  11.926   0.370 -0.0942 -0.1249  0.2787
18967W        W36491  14.445   6.259   2.080 -0.0253  0.3163  0.2438
18968W        W36492  12.640  16.069  10.862 -0.1036  0.2062 -0.1626
18969W        W36493   7.517  10.379   5.745 -0.0947  0.1192 -0.0099
18970W        W36494  15.381  14.719  15.473 -0.2001  0.4774 -0.0014
18971W        W36495   0.467  12.431   1.674 -0.2270  0.1338  0.0192
18972W        W36496  13.586  13.281  13.058 -0.1045  0.3826  0.0275
18973W        W36497  14.874   2.804   2.448  0.0219 -0.1980  0.2285
18974W        W36498  12.535  13.406   4.277 -0.0872 -0.1705  0.2331
18975W        W36499   8.752   5.183  12.976  0.0565  0.4749  0.1271
18976W        W36500   6.478  12.135  13.330  0.0054  0.0250  0.0875
18977W        W36501  16.550   2.942   2.324  0.2236 -0.0228 -0.1503
18978W        W36502  17.603  14.565  12.782  0.1309  0.0940  0.0427
18979W        W36503   8.649   9.802  10.076 -0.1167  0.2287 -0.1223
18980W        W36504  13.615   9.622   2.511  0.3531 -0.2070 -0.1318
18981W        W36505   1.680  11.532   2.055  0.2532  0.3227 -0.0571
18982W        W36506   2.447  13.527  14.144  0.1642  0.1666  0.1244
18983W        W36507   5.515   7.146  12.166  0.1926 -0.1146 -0.0779
18984W        W36508   1.145  14.094   0.370 -0.0619 -0.4126 -0.0030
18985W        W36509   7.208  12.764   4.082  0.1042 -0.0455 -0.0798
18986W        W36510   6.039  13.493   2.408 -0.2556 -0.1874 -0.0014
18987W        W36511   2.371  14.004  13.738  0.5916 -0.1456 -0.0081
18988W        W36512   3.620   1.290   1.354 -0.2923 -0.0245  0.3023
18989W        W36513   6.916  12.561   1.985 -0.2108  0.1366 -0.2192
18990W        W36514   0.708  16.233  11.361  0.0597  0.1685  0.0214
18991W        W36515   5.446   3.909   2.904  0.2884  0.2133  0.0484
18992W        W36516  16.379  18.247  14.094 -0.1132  0.1550 -0.0342
18993W        W36517  18.031   1.626  13.104 -0.2587  0.2500  0.0041
18994W        W36518   8.331   4.983   4.754 -0.1112 -0.1837  0.1023
18995W        W36519  15.690   1.198   0.101  0.2005 -0.3675 -0.2406
18996W        W36520  12.840  13.867  13.342 -0.0513  0.1322 -0.1441
18997W        W36521  17.474   4.666  11.702 -0.4077  0.1206  0.0932
18998W        W36522   6.385   1.349   3.021 -0.0679  0.2259 -0.0449
18999W        W36523   0.436  10.796  13.681 -0.0612  0.3144 -0.1271
19000W        W36524  14.654  14.343  13.537 -0.0176 -0.0410 -0.1847
19001W        W36525  13.700  16.609  13.343 -0.1897 -0.1331 -0.1191
19002W        W36526   5.180   8.839  12.917 -0.1954  0.2107 -0.1103
19003W        W36527  11.586  17.473   1.862 -0.4373 -0.0762  0.3553
19004W        W36528   7.405   7.356   2.230  0.3880 -0.1342 -0.2664
19005W        W36529   5.850  10.272  14.050 -0.1641  0.0616  0.0938
19006W        W36530   1.451   9.268  11.852  0.0141 -0.0807 -0.0000
19007W        W36531  17.219  18.112   3.447 -0.0382  0.0982 -0.1413
19008W        W36532   7.433   0.630  12.209 -0.1736 -0.0684  0.0494
19009W        W36533  17.009   9.848  15.299 -0.3151  0.0706 -0.2680
19010W        W36534   4.833   5.410  13.121  0.0597  0.0636  0.1872
19011W        W36535   8.351   9.042  11.189 -0.2016  0.3326  0.1324
19012W        W36536  17.717  12.854  10.591 -0.0337  0.1004 -0.0516
19013W        W36537  18.165   7.404   4.694 -0.0411  0.1962  0.1774
19014W        W36538  13.468   0.206   4.271 -0.2525 -0.1115  0.0824
19015W        W36539   1.233  17.802  11.580 -0.5316 -0.1174  0.2581
19016W        W36540   0.957  15.281   1.927  0.3589  0.0200  0.0772
19017W        W36541   3.998   3.073  15.470 -0.2615  0.0573 -0.2201
19018W        W36542  11.082  16.593  13.089  0.2105 -0.0331 -0.1069
19019W        W36543  17.675   9.110  12.402  0.2786 -0.0896  0.0693
19020W        W36544   2.562   1.286   4.523  0.0631 -0.0719 -0.1431
19021W        W36545  12.440  10.751  15.231  0.0248  0.0915  0.2818
19022W        W36546   3.301  15.499  14.216 -0.1527  0.1462  0.2932
19023W        W36547   1.878   9.014  13.560 -0.2638 -0.1448 -0.2949
19024W        W36548   2.529   3.090   4.450 -0.2135 -0.1332  0.3068
19025W        W36549  13.228  17.009   3.897 -0.1962 -0.0197 -0.2444
19026W        W36550  16.366  10.803  14.944 -0.0030  0.0533 -0.3564
19027W        W36551   9.494   8.717   0.626 -0.0159 -0.0498  0.1807
19028W        W36552   7.389   8.052  12.711 -0.0520 -0.1034 -0.1262
19029W        W36553   4.371   2.154   0.696  0.2943  0.3529  0.1055
19030W        W36554   9.377  13.650  14.118  0.0153  0.2496  0.1762
19031W        W36555   7.624  15.366  14.208  0.1291  0.1543 -0.1741
19032W        W36556  15.264   0.688   0.918  0.0556 -0.1226  0.2499
19033W        W36557   0.740   1.402   3.307  0.1417 -0.1088  0.2249
19034W        W36558  13.739   6.889  12.030  0.2583  0.0641 -0.3931
19035W        W36559   7.249   1.069   3.815 -0.1192 -0.3245 -0.2144
19036W        W36560  17.449   2.256   2.317 -0.1934 -0.3027  0.1326
19037W        W36561  12.125  15.052   2.263 -0.1372 -0.1689  0.0306
19038W        W36562  13.765  10.159  15.441 -0.1042  0.1868 -0.1896
19039W        W36563   2.489  14.097   5.612  0.0582  0.1794  0.1140
19040W        W36564   5.298   5.929  12.090  0.2361  0.2382 -0.0081
19041W        W36565   9.261   3.679  15.701  0.2780  0.0682 -0.2997
19042W        W36566  12.993  15.819   0.719  0.1218  0.1420  0.0819
19043W        W36567  14.901  14.779   5.238 -0.1049 -0.1045 -0.0704
19044W        W36568  12.323   0.935   2.201 -0.0220  0.0510  0.0386
19045W        W36569  15.600   2.744  13.556 -0.0212  0.0881  0.1255
19046W        W36570   1.892  14.188   4.847  0.3340 -0.1265  0.1467
19047W        W36571   2.920  12.146  14.379 -0.3270 -0.0520  0.0545
19048W        W36572   2.620   3.854  12.545  0.0148  0.1525  0.0716
19049W        W36573   4.431   3.036  14.860  0.1598  0.0143  0.2801
19050W        W36574  17.380  17.103   0.506 -0.2250 -0.0360  0.1240
19051W        W36575   1.638   7.863  15.152  0.3753  0.1192 -0.0752
19052W        W36576  10.561  17.868   0.031  0.0028 -0.1220  0.4767
19053W        W36577  14.334  14.823   0.125  0.2870 -0.1189  0.0179
19054W        W36578  18.410  11.160   1.424 -0.1791  0.0014 -0.0260
19055W        W36579  12.155   6.162  11.614  0.0798  0.0600 -0.5058
19056W        W36580   8.932   7.066  15.198 -0.1969  0.0991  0.1315
19057W        W36581  14.044  10.563  15.159  0.0859  0.3160  0.2031
19058W        W36582   9.401   6.945  14.178  0.0890  0.1093 -0.0331
19059W        W36583  14.445   9.476   0.700 -0.0551  0.0722 -0.0345
19060W        W36584   6.001   3.101   1.830 -0.1855 -0.4734 -0.3767
19061W        W36585  16.040   5.817   4.344  0.0447  0.2004  0.3780
19062W        W36586  18.007   4.717   3.637  0.2863  0.3014 -0.1118
19063W        W36587   4.334   7.756   5.057  0.0339  0.1851 -0.0467
19064W        W36588   8.992  17.644  12.704 -0.0310 -0.1712 -0.0230
19065W        W36589   1.792   1.292   2.355  0.2739 -0.3835  0.1924
19066W        W36590  18.218  16.931  13.595 -0.0289  0.2237  0.2446
19067W        W36591  12.988   1.797   1.080  0.2814  0.3003  0.0359
19068W        W36592  12.202  17.617  11.572 -0.1478  0.1985  0.3305
19069W        W36593   2.546   7.340  13.704  0.3458 -0.0014 -0.1173
19070W        W36594  17.267   9.348  12.166 -0.1868  0.2994 -0.0042
19071W        W36595   3.654   7.094   0.212 -0.1124 -0.0832 -0.2599
19072W        W36596   1.747   2.989   3.114 -0.1449 -0.0947  0.2721
19073W        W36597   9.571  17.845   4.014  0.0975 -0.1633  0.0412
19074W        W36598  14.586  16.766   2.111 -0.2469 -0.1374  0.1650
19075W        W36599   3.025   1.132  13.643 -0.1944  0.5286 -0.0629
19076W        W36600  13.859   1.172   3.069 -0.0331 -0.0865 -0.3457
19077W        W36601   0.868   2.586   2.626 -0.1425  0.1461 -0.1559
19078W        W36602  15.479   0.506  12.318  0.3257 -0.0969  0.2582
19079W        W36603  14.440  11.197   3.675  0.1118  0.0134 -0.0237
19080W        W36604  10.822   9.189  14.577 -0.2555 -0.2830  0.0193
19081W        W36605   5.849   0.648  13.935  0.1877 -0.1652  0.1349
19082W        W36606  18.091   9.348  12.538  0.2804 -0.3303 -0.0902
19083W        W36607   8.062  17.025  11.968  0.1943 -0.3816 -0.0766
19084W        W36608  17.018   8.009  13.114  0.1319  0.2019  0.1382
19085W        W36609   9.366  14.792   1.420  0.4186  0.0175  0.1502
19086W        W36610   2.965   3.659   2.793  0.3545 -0.1854 -0.3097
19087W        W36611   6.198  17.186  12.529 -0.2264 -0.0110 -0.1531
19088W        W36612   3.937  10.966   0.501  0.0599 -0.0378  0.2150
19089W        W36613   2.459  12.080  15.268 -0.0341 -0.0406 -0.2882
19090W        W36614   1.719  12.119   2.263  0.0411  0.2257 -0.0519
19091W        W36615  13.285  15.457  10.780  0.0994  0.1909 -0.3523
19092W        W36616   2.304  14.420   2.942 -0.0510  0.1478 -0.0978
19093W        W36617   0.081   3.444   3.328 -0.0257 -0.3589 -0.0778
19094W        W36618  16.532   7.839   4.734 -0.1582 -0.2220  0.0714
19095W        W36619  16.467   2.512   3.855  0.1733  0.0447  0.0114
19096W        W36620   2.869   5.569  14.950 -0.0454  0.0143 -0.1751
19097W        W36621  12.305   1.510   1.744 -0.0503 -0.1027 -0.0084
19098W        W36622   0.007  12.161  14.548  0.3133  0.1406 -0.0202
19099W        W36623  17.440   6.021  14.334 -0.0211  0.0327 -0.0153
19100W        W36624   0.715  15.381  15.590 -0.1436 -0.1640  0.1015
19101W        W36625  16.896  15.030  13.394 -0.2094  0.3991  0.1641
19102W        W36626   9.686   6.323   1.919 -0.0400 -0.1618  0.0452
19103W        W36627   4.882  13.057  14.134 -0.0149  0.0972 -0.2556
19104W        W36628   8.433  14.055   1.811 -0.0817 -0.1119  0.0797
19105W        W36629   5.910   7.851  11.645 -0.0289  0.1011 -0.0654
19106W        W36630   7.622   5.248  13.292 -0.2330 -0.0146  0.1348
19107W        W36631   8.736  16.200   4.597 -0.2820 -0.0466 -0.0561
19108W        W36632  16.333   7.366   0.235 -0.1104 -0.0287  0.1768
19109W        W36633  16.823   2.679   3.474  0.1784  0.1748 -0.1325
19110W        W36634   9.148   2.143   3.156  0.2458 -0.2347  0.4901
19111W        W36635   2.468   4.676  15.403  0.0797  0.1701  0.1863
19112W        W36636  13.406   8.969   1.873 -0.0312 -0.1988 -0.1130
19113W        W36637   4.607  10.694   1.695  0.5382 -0.2865  0.2095
19114W        W36638  16.868   6.164  13.546  0.0720 -0.1588 -0.1459
19115W        W36639   6.720  14.690   3.600 -0.4704 -0.1054 -0.1376
19116W        W36640   6.481   6.070   3.511  0.1743 -0.3687  0.0611
19117W        W36641   5.192   0.815  12.448 -0.2048  0.0279 -0.1082
19118W        W36642   9.834  11.987   3.292 -0.3743  0.1272  0.3477
19119W        W36643  14.723   6.324  11.123 -0.2045 -0.2637  0.1426
19120W        W36644   5.707   6.303   1.494  0.2718 -0.0855  0.4307
19121W        W36645   7.081   3.733  12.127  0.0982 -0.1757 -0.0709
19122W        W36646   0.986  14.449  11.773 -0.0459  0.1556  0.3594
19123W        W36647  16.876   1.270  14.026 -0.0553 -0.1318 -0.1822
19124W        W36648   4.374  12.577  11.536  0.0151 -0.1339  0.2966
19125W        W36649  18.268  13.757   2.511 -0.0533 -0.0203  0.2421
19126W        W36650  11.677   2.593   4.320  0.0849 -0.1534  0.0944
19127W        W36651  10.596  15.651   3.801 -0.2934 -0.0909 -0.2459
19128W        W36652   4.596   4.889  13.104  0.1039  0.1322  0.0676
19129W        W36653   3.188  16.853  13.810  0.2406 -0.3336  0.2190
19130W        W36654  11.720   6.094  13.103  0.1773  0.2657 -0.0414
19131W        W36655  18.178  13.857  14.486  0.2247  0.3865  0.1831
19132W        W36656  17.764  14.075  14.528 -0.3756  0.0366 -0.0401
19133W        W36657   4.612  11.247  12.201  0.1094 -0.2594 -0.1995
19134W        W36658  10.309  16.460  12.734  0.2997  0.0256 -0.1739
19135W        W36659   1.669   7.272   0.982 -0.1802  0.4359  0.1807
19136W        W36660   8.275   9.932   4.166  0.0159  0.0360  0.2193
19137W        W36661   6.619   9.769   0.559  0.0548 -0.0976 -0.1170
19138W        W36662  13.334  14.553   1.081 -0.1537 -0.0545 -0.1435
19139W        W36663  16.691   9.225  11.475 -0.3394  0.1867 -0.0151
19140W        W36664  12.029  18.149  14.102 -0.0246 -0.0775  0.3545
19141W        W36665  14.774  10.582   3.284 -0.1718 -0.0101  0.2599
19142W        W36666  10.460   4.289   0.744  0.2557  0.2011  0.1032
19143W        W36667   4.100   9.429  13.277  0.2186  0.3055  0.0500
19144W        W36668  14.781   8.828   1.145 -0.0672  0.1072  0.0264
19145W        W36669   6.432   1.818  13.899 -0.1301  0.0864  0.4282
19146W        W36670   5.271  16.133  14.431  0.0676  0.0613  0.2248
19147W        W36671   9.351   0.641  10.446  0.0098 -0.2324 -0.2305
19148W        W36672   8.963   6.226  10.851  0.0075  0.0322  0.4270
19149W        W36673   9.552   7.469   4.765 -0.0586 -0.4912  0.0176
19150W        W36674   3.256   9.315  13.611  0.2240  0.1074 -0.1287
19151W        W36675   6.024  10.595   1.994  0.0157 -0.0519  0.1233
19152W        W36676   9.076  14.852   2.160 -0.1042  0.2270 -0.0171
19153W        W36677   8.457   9.067  13.524 -0.0213  0.3350 -0.1109
19154W        W36678  17.313   3.033   0.161 -0.0528 -0.1641  0.0580
19155W        W36679  10.131   1.382   3.343  0.0737 -0.0479  0.1091
19156W        W36680   2.739   1.007   1.892  0.1410  0.0563  0.0288
19157W        W36681   2.633  17.526   5.636  0.0707  0.1106  0.0740
19158W        W36682  14.351  10.453   0.620 -0.0756  0.3806  0.2393
19159W        W36683  15.708  12.800  11.671 -0.0379 -0.0249  0.1414
19160W        W36684  11.761   2.157   3.888  0.2683 -0.3979  0.1456
19161W        W36685  17.201  12.144  14.753 -0.3076 -0.0865 -0.0728
19162W        W36686  14.588   1.789   0.020  0.1544  0.2032 -0.1572
19163W        W36687   3.741  17.162  10.729  0.1246 -0.0312  0.2579
19164W        W36688   5.316  15.628   0.463 -0.1443  0.1586 -0.1825
19165W        W36689   7.387  12.080   5.620  0.1361  0.1181  0.0516
19166W        W36690  13.884   0.183   1.377 -0.3510 -0.4304 -0.1555
19167W        W36691   1.543   3.986   0.472  0.0744 -0.1285 -0.0643
19168W        W36692  15.033   3.426   0.108  0.1380 -0.0608  0.0106
19169W        W36693   2.253  10.231  11.968  0.0783  0.1922  0.2057
19170W        W36694  11.738   3.779   1.324 -0.1782 -0.0387 -0.0033
19171W        W36695   0.013   0.811   2.419 -0.1467 -0.1486 -0.3747
19172W        W36696   1.436  17.473  14.600 -0.0842 -0.0064 -0.2142
19173W        W36697  10.451  18.390   4.875 -0.2837  0.1184  0.0163
19174W        W36698   3.215  12.324  12.439  0.3073 -0.0351 -0.0875
19175W        W36699   0.414   2.057   1.731  0.1329  0.1763  0.3106
19176W        W36700   7.907  10.892   2.349 -0.0437  0.0434  0.2927
19177W        W36701   4.062  17.132   3.767  0.0399 -0.1623 -0.2655
19178W        W36702   9.438  16.247  14.916  0.0752 -0.1028  0.0302
19179W        W36703  12.551  18.236  14.000  0.2779 -0.0157 -0.0475
19180W        W36704   7.607   4.104  12.409  0.0401  0.1915  0.1429
19181W        W36705  17.949   7.040   1.775 -0.0084 -0.0644 -0.2591
19182W        W36706  17.731  12.851  12.187  0.0359  0.0146  0.2618
19183W        W36707  10.347  12.088   3.175  0.0054  0.2462 -0.0885
19184W        W36708  16.359  13.145   5.459 -0.1161  0.0902  0.1232
19185W        W36709   2.711  12.195  12.352  0.2078 -0.3108  0.0172
19186W        W36710   3.700  11.676  15.631  0.1848 -0.1004  0.1768
19187W        W36711   4.218  18.456   4.250 -0.2287 -0.0109  0.2146
19188W        W36712  11.289   9.448   1.021  0.1050  0.1271  0.3309
19189W        W36713   9.665  13.663   3.502 -0.0229 -0.1078  0.4497
19190W        W36714  15.386  10.791  15.209  0.0099  0.0236  0.2060
19191W        W36715   0.317   4.591   0.290 -0.0148 -0.0896  0.0281
19192W        W36716   1.144  13.740  12.109 -0.0420 -0.1018 -0.0862
19193W        W36717   0.259  16.090   1.258  0.1908  0.2113  0.1471
19194W        W36718  16.417  15.762  12.038 -0.1570  0.1032  0.2106
19195W        W36719   9.294   7.828  14.139  0.1110  0.0586  0.1365
19196W        W36720   0.091  12.866  15.267 -0.2384  0.0472 -0.1311
19197W        W36721  17.416   2.470  12.815  0.2303  0.4861  0.1093
19198W        W36722  12.393   7.842   6.041  0.0697 -0.2665  0.3937
19199W        W36723   2.264   0.289   0.166 -0.1863 -0.2865  0.2566
19200W        W36724  15.276  16.664   0.190  0.2236 -0.0340 -0.0555
19201W        W36725   2.928   0.830   0.202  0.0782  0.1227  0.1282
19202W        W36726   1.871  18.045  14.673  0.2878 -0.1357  0.2138
19203W        W36727   5.181  14.178  12.171  0.1796  0.1355 -0.1739
19204W        W36728  13.236   5.000   3.037 -0.0263  0.1276 -0.0323
19205W        W36729   5.005   3.413   1.803 -0.2400  0.0370  0.0002
19206W        W36730   0.771   1.668   4.938 -0.2480  0.1435  0.0429
19207W        W36731   6.020  12.427   0.319 -0.1177  0.0800 -0.3293
19208W        W36732  11.696  10.426  11.271  0.4626 -0.0847  0.0626
19209W        W36733  17.627  13.267  15.656  0.3993 -0.1244  0.0196
19210W        W36734  13.283   3.819   2.394 -0.0571  0.1643  0.0042
19211W        W36735  14.747  12.787  10.743 -0.0284  0.1723  0.1110
19212W        W36736  15.025   0.365  12.229 -0.2382 -0.0991  0.2289
19213W        W36737   8.978  14.018  11.087  0.1803  0.2665 -0.2078
19214W        W36738  14.183  12.143   1.453 -0.0319  0.1078  0.0010
19215W        W36739   1.129   3.283  14.982 -0.1410  0.2199 -0.0636
19216W        W36740   2.967   4.936   4.714 -0.0046 -0.0462 -0.1836
19217W        W36741   0.899  11.144   2.858 -0.2218  0.1639 -0.0595
19218W        W36742   3.347  12.126  15.663 -0.1886 -0.1235  0.0647
19219W        W36743  10.046   2.193   0.004  0.2549  0.1265 -0.0811
19220W        W36744   8.263   8.748   0.045 -0.2741  0.4192 -0.1941
19221W        W36745   5.714   2.012  13.574  0.0541  0.2441  0.1104
19222W        W36746  17.305  15.313  13.414  0.2825  0.0019 -0.1086
19223W        W36747  18.376   2.753  12.495 -0.1267  0.0786  0.2368
19224W        W36748   1.449   8.154   4.971 -0.1698  0.1997  0.0191
19225W        W36749   3.958  18.013  10.949  0.0174 -0.1021 -0.3159
19226W        W36750  15.721   4.339  14.760  0.1097  0.0173 -0.3443
19227W        W36751   3.361  16.430  11.709 -0.4555  0.1363 -0.0953
19228W        W36752   3.039   9.895   4.735 -0.0841  0.0959 -0.0184
19229W        W36753  16.576  10.738   3.094  0.4011  0.0918  0.1071
19230W        W36754  11.063   2.227  14.228  0.0885 -0.1083 -0.1273
19231W        W36755  18.188   6.056   4.050 -0.2170 -0.0921  0.1273
19232W        W36756   5.232  12.913  15.037  0.0168 -0.0300  0.1073
19233W        W36757   4.466  11.238   2.845 -0.0297  0.1448 -0.1632
19234W        W36758  16.522   6.284   2.797 -0.1354  0.1436 -0.2352
19235W        W36759   9.519  16.050   0.620 -0.1822  0.3585  0.0661
19236W        W36760   1.354  12.990  15.549 -0.0299  0.2504  0.0476
19237W        W36761   7.153   2.126  11.381  0.2736 -0.2397 -0.0064
19238W        W36762  12.685   0.074   0.911 -0.0139  0.0471 -0.3330
19239W        W36763   2.724  13.580   4.076  0.2624  0.2545  0.0488
19240W        W36764   7.911   0.574   2.198  0.4473  0.1308  0.2197
19241W        W36765   5.603   7.106   5.334 -0.1451 -0.0527  0.0511
19242W        W36766   4.039   1.476  11.597  0.0617  0.0978  0.0864
19243W        W36767   2.517  16.382  13.958  0.1574  0.1843  0.1226
19244W        W36768  15.115   5.102   4.781  0.0259  0.1326 -0.2066
19245W        W36769   7.728  12.924   2.846 -0.4370  0.0769  0.2010
19246W        W36770  17.160  10.842  15.536 -0.1046 -0.0008 -0.1961
19247W        W36771  15.714  11.622  14.052  0.1170 -0.2913  0.1822
19248W        W36772  15.764  12.145  14.438 -0.2426 -0.2302  0.0643
19249W        W36773  17.845   6.319  13.052  0.0045 -0.1196 -0.1033
19250W        W36774  15.274   8.985   4.684 -0.3652 -0.1922  0.0296
19251W        W36775   2.685  14.945  14.249  0.3129  0.2285  0.0440
19252W        W36776   6.310  17.669  15.012 -0.0274  0.1236 -0.6493
19253W        W36777   9.134   3.896   0.499 -0.1009  0.0555  0.1331
19254W        W36778  10.087   0.342   1.691 -0.1512 -0.0889  0.3407
19255W        W36779   0.862  14.492   4.470  0.0097 -0.1583 -0.3444
19256W        W36780  17.054  17.730   2.144  0.1174  0.2502 -0.2941
19257W        W36781   4.030   9.486  10.394  0.0945  0.1334  0.2725
19258W        W36782   2.165   8.692  11.131  0.0153  0.1308  0.1153
19259W        W36783  17.161  14.668   4.169 -0.3302 -0.2930  0.0985
19260W        W36784  14.286  10.243  10.789 -0.1032 -0.1033  0.1155
19261W        W36785  10.450  15.678   4.279 -0.0106  0.2500  0.1954
19262W        W36786   8.123  13.462   4.697 -0.2962 -0.0664 -0.1179
19263W        W36787   1.686  17.892  11.822 -0.0580 -0.3286 -0.4818
19264W        W36788   0.386  14.008   4.825  0.1518  0.0423  0.1691
19265W        W36789   8.147  13.069   5.756 -0.0450 -0.1686  0.1576
19266W        W36790   8.082   8.030  14.950  0.0409 -0.0269 -0.3568
19267W        W36791   8.740  10.314   3.042  0.0069  0.2254  0.0567
19268W        W36792   6.404   6.650   1.234 -0.1224 -0.0258  0.1498
19269W        W36793  18.307   6.399  11.713  0.1937  0.2240  0.4246
19270W        W36794   4.547   7.289   2.159 -0.2153 -0.0826 -0.0011
19271W        W36795  15.975  11.451   3.248  0.1351  0.1522 -0.0102
19272W        W36796   5.156   8.657  13.902 -0.1685 -0.1123  0.1472
19273W        W36797  11.957  13.174  12.781  0.4938  0.0045 -0.0310
19274W        W36798  15.043  13.748  15.232  0.1323  0.3022  0.1109
19275W        W36799   2.542   7.556  12.005 -0.0998 -0.1281 -0.0521
19276W        W36800  12.705  14.152  14.648  0.1996  0.0790  0.1052
19277W        W36801   4.846   9.804  15.239 -0.1799  0.3143  0.2747
19278W        W36802   3.167   5.531   2.859 -0.1137 -0.0766  0.0860
19279W        W36803   1.001   4.907   3.053 -0.1133  0.5357  0.1099
19280W        W36804  18.357   6.514   4.870  0.1704 -0.0660 -0.0350
19281W        W36805   1.099  13.015  14.693  0.0350  0.0524  0.1642
19282W        W36806  11.135  14.051   0.365  0.1095  0.0601  0.0931
19283W        W36807  14.902  10.322   9.814  0.0520 -0.0866 -0.0923
19284W        W36808  14.728  14.926   4.312  0.0255 -0.2600  0.1176
19285W        W36809   5.971  16.783  14.328 -0.0554  0.0465 -0.0277
19286W        W36810   6.399   7.181   4.085 -0.1125  0.2011 -0.0650
19287W        W36811   3.078  16.219   5.186  0.0386  0.4233  0.1633
19288W        W36812  13.346  13.026  12.694 -0.0412  0.2441 -0.2132
19289W        W36813  11.368   6.499  13.002 -0.0617  0.1406 -0.2295
19290W        W36814  16.268   8.734  14.129 -0.1149  0.2167  0.1630
19291W        W36815  18.140   0.624  13.060  0.4067  0.1374 -0.2635
19292W        W36816  11.509  18.310   3.900 -0.1826  0.1125  0.3794
19293W        W36817  17.060   2.420  11.577  0.2691 -0.3289 -0.2502
19294W        W36818   8.685   3.115   1.710 -0.0184 -0.3150 -0.0018
19295W        W36819  17.946   7.762  13.604  0.0448  0.0185  0.1920
19296W        W36820  14.596   3.329   3.320 -0.1862 -0.1723 -0.2605
19297W        W36821  12.777   8.312  14.476  0.0690  0.1843 -0.3711
19298W        W36822  15.184   0.687   4.207  0.1864 -0.2333 -0.1497
19299W        W36823  10.485   1.928  15.574  0.2534  0.1286 -0.0253
19300W        W36824   4.587   5.742   1.401  0.1160  0.0289 -0.0081
19301W        W36825   2.689   7.674   2.610 -0.2026  0.0038  0.1676
19302W        W36826  10.048   8.198   3.900  0.0500  0.1999  0.0646
19303W        W36827  14.223  13.747   0.588 -0.0501  0.0885 -0.2167
19304W        W36828  14.370   0.357   2.861 -0.1377  0.1247 -0.1040
19305W        W36829   1.384  10.951   3.067  0.0177 -0.1322 -0.1116
19306W        W36830  13.005  18.451   1.381  0.0490  0.0030 -0.1296
19307W        W36831  15.257   7.435   0.018 -0.0831 -0.1975 -0.0519
19308W        W36832   8.008   5.065   2.671 -0.3169  0.2970 -0.0758
19309W        W36833   6.411  18.244  13.756  0.1094 -0.3937  0.2297
19310W        W36834  12.908   9.526   4.628  0.1979 -0.2509 -0.1642
19311W        W36835  14.507  16.070  14.263  0.0639 -0.2477  0.2287
19312W        W36836   8.755   4.178  10.616 -0.0932 -0.0325 -0.0855
19313W        W36837   4.707   5.776   0.402  0.1423 -0.2807 -0.1885
19314W        W36838   4.977  16.689  13.133  0.1219 -0.2276  0.0454
19315W        W36839  10.742  12.834   3.893  0.0506 -0.2096  0.0343
19316W        W36840   1.480   5.141  12.429 -0.0962  0.0954  0.0889
19317W        W36841   8.446   6.903   2.454  0.0887 -0.2192 -0.1225
19318W        W36842   5.495  10.293  11.509 -0.0104 -0.1092  0.1330
19319W        W36843   7.694  17.802   2.577 -0.1799 -0.0351  0.0696
19320W        W36844   2.532   7.997  14.698  0.1613 -0.2614 -0.0631
19321W        W36845  13.390   1.458   5.117  0.2124  0.0417 -0.0402
19322W        W36846  17.939  13.320  13.023  0.3018  0.2762 -0.0385
19323W        W36847   3.224   4.209   3.428 -0.3333 -0.1952  0.1808
19324W        W36848   7.541  12.384   4.011  0.1173 -0.0651  0.0550
19325W        W36849   6.091   4.947  15.236 -0.0051  0.0197  0.0089
19326W        W36850   8.753  17.349   4.593 -0.0127  0.1847 -0.2219
19327W        W36851   0.331   8.181   0.971  0.0478  0.3982 -0.2903
19328W        W36852   4.524   5.261   1.580 -0.2032 -0.1323 -0.1896
19329W        W36853  13.564  13.738   3.752  0.1744  0.3076  0.1659
19330W        W36854   5.207   0.735   3.307  0.0870 -0.1129  0.0188
19331W        W36855   6.148  12.976  14.816 -0.0536  0.0309  0.1097
19332W        W36856   4.363   1.145  14.804  0.2591 -0.3759 -0.1700
19333W        W36857  15.680   0.676   5.578 -0.2066  0.0961  0.1919
19334W        W36858  10.813   5.500   0.028  0.1463 -0.1175  0.1580
19335W        W36859   6.537  13.225   2.566  0.0826  0.0539 -0.0152
19336W        W36860   8.608  11.947   0.091  0.0822  0.0438  0.0430
19337W        W36861   4.310  12.602   3.615  0.1615 -0.4878 -0.4367
19338W        W36862   0.029   9.370  12.309 -0.3327 -0.0484  0.2837
19339W        W36863  17.302  17.442   1.679  0.0078 -0.1160  0.0397
19340W        W36864   5.419   3.561   4.239 -0.3381  0.3109  0.5771
19341W        W36865   2.611  10.517  11.632 -0.0717  0.0409 -0.0898
19342W        W36866   6.286  18.267  12.245  0.1600  0.0714 -0.1695
19343W        W36867  16.501  13.851  12.976  0.3441 -0.0116  0.1253
19344W        W36868   8.865  11.547  11.133 -0.0096  0.2207  0.0140
19345W        W36869  16.573   4.389  11.932 -0.1380  0.0377  0.0662
19346W        W36870   0.309  17.451  15.011  0.1257  0.2860  0.2645
19347W        W36871   1.767   0.825   0.835 -0.3256 -0.1857 -0.1873
19348W        W36872   3.173   4.356   0.141 -0.0911  0.1615  0.1415
19349W        W36873   2.415   9.790   9.981  0.0146 -0.0348  0.1184
19350W        W36874   9.623   5.861  15.442  0.3773  0.1604  0.2746
19351W        W36875  13.662  18.086  10.893  0.2421 -0.0771 -0.1756
19352W        W36876  15.685  17.595  14.719 -0.3119 -0.0902 -0.1469
19353W        W36877   6.029  11.194   2.921  0.1273  0.1142 -0.1925
19354W        W36878  10.528   6.265   1.422  0.0877  0.3066 -0.1687
19355W        W36879  13.901   4.380   1.399  0.3120 -0.2940 -0.2702
19356W        W36880   7.395  11.132   1.689  0.1183  0.0082 -0.0389
19357W        W36881  15.751   0.892  14.090  0.0364  0.2454  0.0033
19358W        W36882  17.017   3.280   4.075 -0.1755  0.2252 -0.1348
19359W        W36883   4.601  12.394   3.984 -0.1566 -0.3855 -0.0448
19360W        W36884  12.795   8.515   2.576  0.0195  0.3107 -0.2020
19361W        W36885  13.879   3.075  13.257 -0.2098  0.0763 -0.2487
19362W        W36886   1.660   8.713  11.937 -0.2266 -0.1835  0.3068
19363W        W36887  12.599  12.680   4.178  0.3669 -0.1288 -0.0119
19364W        W36888   2.123   5.366  10.714 -0.4499  0.2387 -0.0070
19365W        W36889  14.749   6.237   3.433  0.1672 -0.1405 -0.1317
19366W        W36890   8.639   6.900  14.746 -0.1774 -0.0826  0.2327
19367W        W36891  14.277   0.703  12.839  0.5050  0.1846 -0.0224
19368W        W36892   5.925   9.070  14.481 -0.1718  0.3262  0.0926
19369W        W36893   6.331   9.583   0.958 -0.0048  0.0154 -0.1414
19370W        W36894  12.029   9.587   1.873 -0.0755 -0.2120 -0.0360
19371W        W36895  13.879   1.236   4.865  0.1822  0.0357  0.0559
19372W        W36896   1.063   8.903  11.998 -0.4985 -0.1043 -0.0127
19373W        W36897   6.950   1.769  14.274 -0.2806 -0.1124  0.1642
19374W        W36898  15.770  11.175  13.094 -0.0856 -0.0794 -0.1055
19375W        W36899   3.869   8.633   0.453  0.1146  0.2829 -0.0251
19376W        W36900   1.091  16.076   0.705  0.0220  0.1012  0.1531
19377W        W36901  11.815  17.378   0.746  0.0997 -0.0122 -0.4055
19378W        W36902  13.595  12.328  14.113 -0.3808  0.2116  0.1536
19379W        W36903  13.960  13.464   3.909 -0.0323 -0.2465 -0.5253
19380W        W36904   9.508   6.647  12.478 -0.1731 -0.2312 -0.2326
19381W        W36905   3.613  17.278   0.394 -0.0139  0.0515  0.0284
19382W        W36906   7.318   3.102  13.544  0.0636  0.1070 -0.0091
19383W        W36907   4.160   5.845  12.085  0.1667 -0.0773 -0.1628
19384W        W36908   0.361  13.650  15.514  0.2366 -0.1734  0.0862
19385W        W36909  18.258   7.962  14.051  0.1228  0.1683  0.3304
19386W        W36910   7.871   4.112  14.915  0.0579 -0.0934  0.0126
19387W        W36911   1.514  18.446   2.899 -0.0333  0.1573 -0.4289
19388W        W36912  10.831   4.623  15.556 -0.0828 -0.0381 -0.0914
19389W        W36913  16.735  15.051  12.894 -0.1157  0.1356 -0.0037
19390W        W36914  12.785  14.907   5.093 -0.1039 -0.3890  0.0556
19391W        W36915  14.842   0.189  10.054  0.1687 -0.2502 -0.2655
19392W        W36916  11.497  11.550  11.631 -0.0001  0.2044 -0.1039
19393W        W36917   2.119   6.976   2.607 -0.1211  0.1473 -0.1906
19394W        W36918  13.333  11.935  15.500  0.1276  0.1368  0.0973
19395W        W36919  16.781  15.298  14.874 -0.0011 -0.0480 -0.1095
19396W        W36920  10.013   9.731  14.469  0.5038 -0.0793 -0.0727
19397W        W36921  17.210  14.891   0.385  0.0440  0.0946 -0.0533
19398W        W36922  10.245   8.096   1.805 -0.0906 -0.3559 -0.0808
19399W        W36923   3.206  13.381  14.910  0.1054  0.5364 -0.1416
19400W        W36924   0.610  14.996   2.195 -0.2866 -0.3609  0.0663
19401W        W36925  10.421  15.155   2.179 -0.0882 -0.3768 -0.2910
19402W        W36926  12.216  13.322   1.823  0.1635  0.1255  0.1281
19403W        W36927  17.593   0.807   2.041 -0.5459  0.2955  0.0394
19404W        W36928   3.749   7.556  11.368 -0.2419  0.0597  0.1978
19405W        W36929  14.276  16.193   1.556 -0.2193 -0.0118 -0.1008
19406W        W36930  10.581  18.270   2.281  0.2195  0.1082 -0.0130
19407W        W36931  11.054   7.099   0.237  0.2801 -0.0793  0.0441
19408W        W36932   9.067  14.102   0.892  0.0041  0.1914 -0.0172
19409W        W36933   3.970  16.493   2.470  0.0461 -0.0819 -0.1983
19410W        W36934  13.947  15.804  13.937 -0.0603  0.1736  0.1476
19411W        W36935  11.805  10.220   3.461  0.4560 -0.1879  0.1953
19412W        W36936  11.717  13.486   0.999 -0.2796 -0.0001  0.0535
19413W        W36937  12.699   5.124  11.961 -0.0864  0.2087 -0.1776
19414W        W36938  12.541   0.568  12.306  0.1914 -0.2041 -0.2636
19415W        W36939   8.085  14.441  13.762 -0.3578  0.0557  0.0080
19416W        W36940   9.840   4.162  12.041  0.1439 -0.2516 -0.3305
19417W        W36941  10.044  17.173   0.187  0.0258  0.1051  0.1347
19418W        W36942  16.872   6.271   4.652  0.0451  0.0600  0.2331
19419W        W36943  13.607   7.427  11.610  0.0788  0.0794  0.1125
19420W        W36944   5.536  11.437  15.153 -0.1080 -0.0458 -0.1664
19421W        W36945   1.202   2.316  13.387 -0.1005  0.2149 -0.1080
19422W        W36946  10.547   1.387  15.581 -0.1398  0.1280 -0.0033
19423W        W36947   2.627   4.059   3.010 -0.1003 -0.1929 -0.2599
19424W        W36948   8.526  13.283  14.626  0.0227  0.2327  0.1361
19425W        W36949   1.508  17.466   4.041  0.0405  0.0538  0.0212
19426W        W36950   2.362   2.338   1.760  0.1698  0.1351  0.0702
19427W        W36951  15.454  12.454   1.549 -0.2339 -0.0457 -0.2399
19428W        W36952   5.164   8.273   3.135 -0.0572  0.0154 -0.0777
19429W        W36953   4.942  15.114  13.852  0.1788 -0.0434 -0.5095
19430W        W36954   9.712  15.030   1.121  0.0290  0.1495 -0.0433
19431W        W36955   5.464   8.101   3.484 -0.4397 -0.0301 -0.0804
19432W        W36956   6.599  14.137   4.257  0.0323 -0.1834 -0.1478
19433W        W36957  16.331   8.551   1.833 -0.3164 -0.0201 -0.0277
19434W        W36958   1.883  15.125  15.355  0.0860 -0.0102 -0.2107
19435W        W36959  16.586  14.141   1.190 -0.0807 -0.0558 -0.1617
19436W        W36960  12.352   7.040  15.648 -0.0299  0.0820  0.2399
19437W        W36961   6.699  16.216  14.768 -0.1709 -0.0193  0.0077
19438W        W36962   1.800  11.464  12.237 -0.0610 -0.1396  0.3786
19439W        W36963  13.163   0.705   5.251  0.0798 -0.0962 -0.1075
19440W        W36964   3.398  12.358   4.156  0.1045  0.3392 -0.0708
19441W        W36965  13.456   5.052  10.825  0.0840  0.0371 -0.0284
19442W        W36966  14.755  15.131   0.411 -0.0025 -0.0778 -0.0411
19443W        W36967  10.473   5.520   4.436 -0.1138 -0.5094  0.1073
19444W        W36968   2.488  11.524  14.865  0.0846  0.0255  0.0843
19445W        W36969  17.258  15.294  15.358 -0.0006 -0.0275 -0.0494
19446W        W36970   2.548   6.550   1.611 -0.3838 -0.2265 -0.1499
19447W        W36971  10.687   9.231   2.361  0.2564 -0.1510  0.1905
19448W        W36972   3.766  12.500  11.459 -0.1517 -0.0118  0.2373
19449W        W36973   0.514  14.492   0.887  0.2156 -0.0389 -0.1112
19450W        W36974   4.563  12.014   0.978  0.2039 -0.3177 -0.0027
19451W        W36975  15.672   2.033   3.134  0.0880 -0.1521 -0.1504
19452W        W36976   7.753   7.171  11.867 -0.1830 -0.0644 -0.1461
19453W        W36977   4.328   8.677   1.722 -0.0519  0.4334 -0.0679
19454W        W36978  17.780   5.705   0.266  0.0136 -0.1752 -0.3906
19455W        W36979  10.962  15.310   2.896 -0.2743  0.1131  0.3002
19456W        W36980   7.059  16.422   3.507 -0.0326  0.2388  0.0583
19457W        W36981   3.159   0.686  12.408  0.3230  0.1013  0.0955
19458W        W36982  15.639  11.088   0.911  0.1683 -0.1285 -0.3392
19459W        W36983   6.292   3.438   2.977 -0.2270  0.0818 -0.1201
19460W        W36984   2.243  16.800  11.805  0.0722  0.0780  0.1085
19461W        W36985   8.105  13.291   1.070 -0.2889 -0.0395 -0.2479
19462W        W36986  10.689  13.513  14.836  0.1872  0.1026  0.0312
19463W        W36987  14.650  11.302  14.913 -0.1030 -0.1708 -0.0877
19464W        W36988  13.996   5.955   2.784 -0.0342 -0.2392  0.2697
19465W        W36989  10.122  12.183   0.382 -0.0493 -0.0631 -0.1975
19466W        W36990  13.142  15.012   3.869  0.1500  0.2219  0.1360
19467W        W36991   0.914  11.407   4.761 -0.0907  0.0213 -0.0708
19468W        W36992   1.797   4.852  11.477 -0.1210  0.3070  0.0787
19469W        W36993   4.232   9.885  14.347 -0.1769 -0.2426 -0.0622
19470W        W36994  17.907  16.899  13.175 -0.0443 -0.0951  0.1034
19471W        W36995  14.829  16.533   0.726  0.0543  0.2422 -0.1975
19472W        W36996   7.377  12.201   2.015  0.5313 -0.0189  0.0234
19473W        W36997   0.216  16.320  15.695  0.1813  0.0068 -0.0559
19474W        W36998   6.606   1.341  11.846  0.0421 -0.1134  0.2662
19475W        W36999   1.308  14.213  12.100  0.0912  0.1762 -0.1258
19476W        W37000   2.954   6.914   2.183  0.1492  0.0799  0.3685
19477W        W37001  11.654   0.083   2.978 -0.0645 -0.2128  0.1227
19478W        W37002  15.599   8.338  13.473 -0.0915  0.1657  0.1050
19479W        W37003   9.083   4.236  13.193  0.1963 -0.1443 -0.4393
19480W        W37004   3.154   3.249  11.915 -0.1328 -0.3974  0.4306
19481W        W37005  18.034   1.318  12.442 -0.1884 -0.0485  0.1695
19482W        W37006  11.302  16.752  11.829 -0.0099  0.1000  0.3934
19483W        W37007  14.307   3.421  13.606  0.0263 -0.0113 -0.0394
19484W        W37008   5.047   4.341   1.451  0.2240  0.1431  0.1850
19485W        W37009   7.722   9.652   3.366 -0.1785 -0.2784  0.1627
19486W        W37010   5.590   4.787  14.171  0.2681 -0.0797 -0.0330
19487W        W37011  16.386   1.245   4.569  0.2541 -0.0884 -0.0656
19488W        W37012   7.636  14.697  13.371  0.0103  0.0702 -0.1999
19489W        W37013   7.158   6.077  15.359  0.0709 -0.0952  0.2632
19490W        W37014  10.854  15.099  13.639 -0.0536 -0.2485 -0.1908
19491W        W37015  16.684   1.078  11.748  0.0574 -0.1329 -0.0976
19492W        W37016  10.927  15.302   4.077 -0.0003  0.0268  0.1916
19493W        W37017   7.409  15.691  14.564  0.0764  0.2553  0.1982
19494W        W37018   9.738   8.693   4.890  0.0230  0.1266  0.2160
19495W        W37019   5.300   1.047   0.016 -0.2244  0.1584  0.3199
19496W        W37020  16.329   1.633  15.538  0.0165 -0.1397  0.0335
19497W        W37021  17.470   2.853   5.525  0.2174 -0.0969  0.0654
19498W        W37022  10.355  15.957   2.952  0.2274  0.0950 -0.1730
19499W        W37023   7.111   1.344  11.666  0.1772  0.0229  0.0950
19500W        W37024   0.926  16.759  14.045 -0.1475 -0.0345  0.1201
19501W        W37025  16.428   9.608   3.339 -0.0397 -0.0043  0.0500
19502W        W37026   5.075  15.616   1.778  0.0957  0.0330  0.0896
19503W        W37027   3.803  17.997   3.147 -0.2090 -0.1456  0.2506
19504W        W37028   6.469  12.540   4.627 -0.0032 -0.1476 -0.1617
19505W        W37029  12.840   4.562  11.413 -0.3447  0.2973  0.0736
19506W        W37030   4.280  15.805  13.693  0.3798  0.1700 -0.1857
19507W        W37031   5.156  11.976  15.463  0.0654  0.0131  0.1823
19508W        W37032   1.075   3.132  13.822  0.0724 -0.2295 -0.2810
19509W        W37033  14.567   5.585  13.337  0.2302  0.0078 -0.0009
19510W        W37034  17.922  12.134  11.870 -0.0223  0.0434  0.1982
19511W        W37035   6.022   3.890  14.458 -0.4291  0.0741  0.0192
19512W        W37036   5.786  16.108  13.541 -0.2592 -0.1395  0.4417
19513W        W37037  11.959   6.264  12.311 -0.0915  0.0368 -0.2119
19514W        W37038   7.907   6.011   0.549 -0.1213 -0.0293 -0.0733
19515W        W37039  15.603   2.447   3.372  0.1497  0.0772  0.0080
19516W        W37040   2.238  18.278  12.417  0.0034 -0.3944  0.2761
19517W        W37041   5.935  17.145  10.073  0.3007 -0.1996  0.3455
19518W        W37042   9.036  17.221   2.458 -0.0348 -0.4253 -0.0860
19519W        W37043  17.767   7.198   0.454 -0.1314 -0.0672  0.1571
19520W        W37044   9.083  17.308   0.012 -0.1081 -0.0577 -0.2101
19521W        W37045  12.279  16.400   2.443  0.0896  0.0415 -0.1335
19522W        W37046   5.099   7.076   4.468  0.0157 -0.1217 -0.2482
19523W        W37047  14.434   3.390   4.300 -0.1338 -0.1092 -0.1128
19524W        W37048  10.706  15.530  11.289  0.1492 -0.1636  0.2263
19525W        W37049   4.597  17.667  10.645 -0.4072 -0.1495 -0.1893
19526W        W37050  17.345   9.058  13.844 -0.0638  0.3893  0.0358
19527W        W37051  10.506   8.993   1.421  0.2125 -0.1936  0.2181
19528W        W37052  16.997  14.237  11.117  0.0176  0.4092  0.1670
19529W        W37053   9.892   7.050   4.728  0.0367 -0.2780 -0.3215
19530W        W37054   0.528  10.826   2.595  0.1779  0.0383  0.1794
19531W        W37055  13.425  11.500  15.283  0.3011 -0.1824  0.2442
19532W        W37056  18.259  12.401   1.012  0.0700  0.2597 -0.1780
19533W        W37057  14.343   3.612   1.969 -0.2080  0.0624  0.1903
19534W        W37058  15.383  15.874   2.102  0.3077  0.1773 -0.2411
19535W        W37059   6.126   2.056   1.804  0.0463  0.0478  0.1956
19536W        W37060   8.097  13.218   0.543  0.4098  0.0102  0.1065
19537W        W37061  12.580  10.355  12.066  0.0445 -0.1099  0.1844
19538W        W37062   2.510  12.246  12.854  0.1757 -0.1612 -0.1699
19539W        W37063   2.007  10.874  10.929 -0.1543  0.2471  0.2050
19540W        W37064   0.737   8.978  11.171  0.0661 -0.0157  0.1315
19541W        W37065  18.268   2.723  14.993 -0.0352 -0.0683 -0.2967
19542W        W37066  10.590   7.735   1.724  0.0645  0.1711  0.0796
19543W        W37067  10.936   6.639   2.021 -0.0107  0.1020  0.3053
19544W        W37068  16.744   9.136  14.600  0.1257  0.0580  0.0509
19545W        W37069   3.978   6.040   2.561 -0.0361  0.0274 -0.0704
19546W        W37070   8.896   8.568   4.580 -0.0803  0.1841 -0.3302
19547W        W37071   8.252  16.760   0.012 -0.1192  0.1316 -0.0982
19548W        W37072  11.563   6.817   0.284  0.0825 -0.0407  0.2524
19549W        W37073   1.226  11.918  12.666 -0.0453  0.1072  0.0801
19550W        W37074   3.235  12.889   4.152  0.0225 -0.2118  0.0219
19551W        W37075  12.370  15.470  14.877  0.2761 -0.0204 -0.1696
19552W        W37076   5.366   4.329  14.154 -0.0708  0.1091 -0.0379
19553W        W37077   4.482  18.131  11.186  0.0941 -0.0569 -0.0540
19554W        W37078   1.130   8.641  14.756  0.0633 -0.1769 -0.0346
19555W        W37079  13.524  13.886   2.545  0.0799  0.2497  0.2053
19556W        W37080   1.538  12.534  15.480 -0.0444 -0.1261  0.0411
19557W        W37081  17.244  17.320  12.752 -0.0255 -0.0886 -0.3311
19558W        W37082  10.360  12.057   1.946 -0.1800  0.1225 -0.4643
19559W        W37083   0.695  12.122   3.801  0.2819 -0.1647  0.0765
19560W        W37084   4.379   0.108   1.611 -0.3676  0.2180  0.2717
19561W        W37085  17.741   5.521   2.504 -0.2796  0.0770 -0.1888
19562W        W37086  14.305  11.645  12.014  0.1487 -0.0250  0.0863
19563W        W37087   4.341  18.122  10.682 -0.0940  0.2323 -0.2070
19564W        W37088   6.859  10.389  15.567  0.2624 -0.0282 -0.5066
19565W        W37089   0.660   7.839  13.686  0.1048  0.2582 -0.1967
19566W        W37090   6.370   8.622  15.419 -0.0827  0.3133 -0.2131
19567W        W37091   5.179   6.354  13.137 -0.0339  0.0121  0.0629
19568W        W37092  12.992  12.338  13.300 -0.1193  0.2853  0.2245
19569W        W37093   1.827   9.940  11.919 -0.1986 -0.3662  0.1395
19570W        W37094  17.913  10.067  15.560 -0.1804  0.1317  0.1161
19571W        W37095  10.513   3.115   3.946 -0.1988  0.0285  0.3054
19572W        W37096  10.397  17.332   3.112 -0.0739 -0.1100 -0.0433
19573W        W37097   2.561   7.391   1.319 -0.2507 -0.0819  0.5290
19574W        W37098  10.677   5.949  12.632 -0.0509  0.1551 -0.1991
19575W        W37099   2.140   5.062  15.321  0.3919 -0.0309 -0.0260
19576W        W37100  14.835  15.453  13.870 -0.2617  0.0752 -0.1661
19577W        W37101   6.579   9.157   1.847  0.0726  0.1256  0.2826
19578W        W37102   9.427   4.124   5.313 -0.0773 -0.1173 -0.1654
19579W        W37103   4.450  13.818  13.828  0.2263  0.0910  0.4528
19580W        W37104   0.138   4.955   2.413 -0.1294 -0.0098  0.0701
19581W        W37105  14.442  11.420   4.243 -0.0177 -0.0025  0.1669
19582W        W37106  10.650  11.371   3.816 -0.1271  0.3378 -0.5356
19583W        W37107   6.581  10.556   2.041 -0.3658 -0.3223  0.0744
19584W        W37108   1.927   8.485  12.957 -0.1950  0.1099 -0.1695
19585W        W37109   0.166  13.164  12.664  0.0118  0.1674  0.2564
19586W        W37110   4.875  13.853   0.273  0.1449 -0.4414  0.0034
19587W        W37111   4.666   8.509   3.987  0.2611  0.1065  0.1894
19588W        W37112   5.810   8.463  11.798  0.0745  0.0401  0.1046
19589W        W37113  17.889   8.813  15.148 -0.0258 -0.1583 -0.0456
19590W        W37114  11.483  12.932  13.636  0.2725  0.0539 -0.1536
19591W        W37115  16.350   6.471   3.270  0.1111 -0.0123 -0.2563
19592W        W37116   6.064   7.404   3.707 -0.0597 -0.1360  0.0205
19593W        W37117  18.068   1.968   0.263  0.6726 -0.2102  0.0029
19594W        W37118   8.066  17.565   5.131  0.2343  0.2523 -0.0089
19595W        W37119   7.221   9.585  15.714 -0.0572  0.1772 -0.1245
19596W        W37120   6.756  14.439  11.006 -0.4264 -0.0887 -0.1566
19597W        W37121  13.321  18.481  13.798  0.0344 -0.1280  0.0751
19598W        W37122  16.226   6.140  13.876  0.2519  0.3676 -0.0508
19599W        W37123  15.297  16.832  13.273  0.3414  0.4305  0.0163
19600W        W37124  17.525   6.600   2.579  0.3892 -0.1555 -0.1894
19601W        W37125  16.945   6.293   3.556 -0.1453  0.0633 -0.1829
19602W        W37126   5.001   5.915   4.331  0.0643 -0.0972  0.0133
19603W        W37127  12.855   2.367  11.653 -0.2939 -0.0698 -0.1642
19604W        W37128  15.774   6.515  14.677 -0.0731 -0.1884  0.0666
19605W        W37129   3.830   0.535  12.951  0.3162 -0.0007  0.0480
19606W        W37130   9.408   3.476   0.449  0.1500  0.2505 -0.0816
19607W        W37131   9.164  13.557   2.267  0.0840 -0.1525 -0.4010
19608W        W37132  17.713   9.106   2.570 -0.0594 -0.0442 -0.0894
19609W        W37133  15.976  11.044  11.088 -0.0881 -0.1906  0.1708
19610W        W37134  12.721  12.255   2.050  0.0230 -0.0165  0.1124
19611W        W37135  16.993   0.115  13.108 -0.3319 -0.1093 -0.0351
19612W        W37136  15.092   2.430   3.412  0.1969  0.0946 -0.0553
19613W        W37137   8.208  10.840   5.285  0.2551  0.3242 -0.0207
19614W        W37138   4.479  17.316  15.690 -0.0239  0.2987  0.1137
19615W        W37139   9.426   4.751   1.485 -0.0858 -0.2122  0.0335
19616W        W37140   0.499   1.148  12.108  0.2021  0.1693  0.1136
19617W        W37141  16.144  16.674  12.654  0.0136 -0.0366 -0.2472
19618W        W37142   4.479   6.716   0.876 -0.0864  0.1470  0.1043
19619W        W37143   6.188   4.572   1.549 -0.0166 -0.0757 -0.1360
19620W        W37144  12.281  10.725   0.581  0.1096 -0.0849  0.0083
19621W        W37145  15.862  16.744   4.674 -0.1316  0.1998 -0.1870
19622W        W37146  13.067   8.283  13.046 -0.0233 -0.1621  0.0824
19623W        W37147   3.100  16.821   1.628  0.0191  0.0593  0.0084
19624W        W37148   1.785   6.870  14.213 -0.1240  0.3449  0.0435
19625W        W37149   2.943   1.535  12.818  0.0445 -0.0884 -0.1139
19626W        W37150   7.784  14.170  11.117  0.1876  0.0491 -0.1082
19627W        W37151  16.547   6.962  12.429 -0.1052 -0.1094  0.1390
19628W        W37152   4.754   8.569  11.162 -0.0767  0.1723  0.1883
19629W        W37153  13.299   1.432  14.132 -0.3338  0.0120  0.1692
19630W        W37154   2.645   8.444  11.120  0.0358 -0.2564 -0.2249
19631W        W37155   9.675   2.280  14.250 -0.2563  0.3402 -0.2473
19632W        W37156  13.538  12.969   2.525  0.1505  0.0152 -0.0827
19633W        W37157   3.285   6.200   4.305  0.0627 -0.1675  0.5935
19634W        W37158  18.443   2.506  15.451  0.0382  0.0364  0.2306
19635W        W37159  18.379   6.040   2.448 -0.0775  0.1208  0.0849
19636W        W37160  10.010   6.709   1.928 -0.2371  0.1695 -0.0669
19637W        W37161   2.196  17.112   1.818 -0.0112 -0.0401  0.0454
19638W        W37162   8.505  11.102  14.717 -0.2623  0.1962  0.1532
19639W        W37163  10.462  11.598  11.868  0.4378  0.1400  0.0603
19640W        W37164  10.274  11.307  12.286 -0.2331 -0.0836 -0.2949
19641W        W37165  17.301   0.163   0.801 -0.2198 -0.1326  0.1827
19642W        W37166   3.277   9.636   3.084 -0.2104 -0.0097 -0.0762
19643W        W37167   5.953  15.826  10.456 -0.2061 -0.5165 -0.2012
19644W        W37168  10.958  14.903   1.040 -0.2209 -0.0854 -0.2755
19645W        W37169  15.998  17.637  14.139  0.0305 -0.1251  0.1895
19646W        W37170   3.691  14.180  10.845 -0.1338 -0.1106 -0.0521
19647W        W37171   3.551  17.520  12.979  0.2011 -0.1967  0.0123
19648W        W37172   4.567   5.053  14.486 -0.3131 -0.1482 -0.0071
19649W        W37173   4.386   5.323  13.268 -0.1110  0.2245 -0.0025
19650W        W37174  16.184   0.403  14.191  0.3115 -0.0986  0.2512
19651W        W37175  12.744   8.457  14.932 -0.0116  0.0095 -0.1202
19652W        W37176   8.323   2.905   2.376 -0.0308 -0.1327 -0.0752
19653W        W37177   8.619  17.186  10.579 -0.2852 -0.0954 -0.1429
19654W        W37178   1.753   4.292   3.516  0.1568  0.0205 -0.1938
19655W        W37179   7.149  10.162   1.913 -0.2884  0.1292 -0.0400
19656W        W37180  18.087   1.793  14.528  0.2896  0.0170 -0.3442
19657W        W37181  17.244  13.683  13.702  0.1826 -0.0395  0.2876
19658W        W37182   8.295  15.889   4.578 -0.0953 -0.0067  0.1015
19659W        W37183   3.566  11.363  11.004 -0.0591 -0.1266 -0.1253
19660W        W37184   7.328  10.848   4.705 -0.0884 -0.0219  0.3022
19661W        W37185  16.049   7.093  13.328 -0.2849 -0.2681  0.1786
19662W        W37186  15.817   8.010   3.114  0.3840 -0.1144 -0.1076
19663W        W37187   0.128   9.376   5.345 -0.1113 -0.2306  0.0180
19664W        W37188   0.823  15.855  14.220 -0.1103 -0.0293 -0.3312
19665W        W37189   3.477   3.748   2.695  0.1199 -0.2838  0.0008
19666W        W37190   3.601   3.977   3.787  0.1670  0.3327 -0.0611
19667W        W37191   5.489  12.948  12.746  0.0542  0.0535  0.0493
19668W        W37192   3.831  15.563  14.222 -0.2824 -0.1164 -0.2349
19669W        W37193  15.870   7.387  11.902  0.1256 -0.1779  0.2259
19670W        W37194  11.215  16.356  13.716  0.3169 -0.0834 -0.2276
19671W        W37195  17.736  13.104   3.842 -0.1294 -0.0046 -0.0754
19672W        W37196   1.049  11.507  13.485  0.1922  0.0033  0.1601
19673W        W37197  16.390   9.151   3.709  0.2288  0.0535  0.1156
19674W        W37198  15.728  18.409  12.124 -0.0402 -0.2631 -0.0464
19675W        W37199  12.098   9.487   0.961  0.0765  0.3594 -0.0312
19676W        W37200   8.034  13.336   3.041 -0.0689  0.2610 -0.0551
19677W        W37201  17.105   4.595   1.393 -0.0185 -0.2234  0.2554
19678W        W37202   8.819   0.231   3.344  0.1306  0.2934 -0.0413
19679W        W37203  17.001  12.124   1.537 -0.0699 -0.1685  0.2625
19680W        W37204  13.273  10.592  12.704  0.0723  0.1851  0.1304
19681W        W37205   0.129   7.595   2.781  0.4835  0.0309 -0.1721
19682W        W37206   2.583   4.278  13.727  0.4745  0.1729  0.2523
19683W        W37207   2.138  15.657  11.935  0.0732  0.5659 -0.0033
19684W        W37208   3.054   5.262   1.594  0.1249 -0.4711 -0.4074
19685W        W37209  15.900   3.704  13.770  0.0650  0.3668 -0.2272
19686W        W37210   4.853   9.580  10.265 -0.0331 -0.1983  0.0393
19687W        W37211   3.706   2.947   3.171 -0.0208 -0.0796 -0.0582
19688W        W37212  11.682  12.828   2.317  0.0059 -0.1437 -0.0900
19689W        W37213   7.162  18.011  13.947 -0.0556 -0.0547  0.3302
19690W        W37214  14.530   4.578   0.194 -0.1450 -0.0791 -0.1708
19691W        W37215  13.009  15.992   2.239  0.1944 -0.0177  0.3822
19692W        W37216   4.077   2.826   4.866 -0.0927  0.0216 -0.2023
19693W        W37217   3.552   5.312   0.385  0.0860  0.3703 -0.3456
19694W        W37218  12.193   7.565  14.513  0.1595  0.0537 -0.1132
19695W        W37219   9.134  17.983  15.160 -0.2790  0.0703 -0.1700
19696W        W37220   6.865  13.966  14.195 -0.1358  0.0231  0.0127
19697W        W37221   4.751   2.981   1.784 -0.0456 -0.1197 -0.0489
19698W        W37222  11.344  11.104  11.580  0.3422  0.0808 -0.5116
19699W        W37223   4.462  16.760   1.626 -0.1653  0.2087 -0.0308
19700W        W37224  16.136   9.953  14.815 -0.2555  0.0690 -0.2754
19701W        W37225   8.195   7.433  10.991 -0.0299  0.1864 -0.1967
19702W        W37226  12.946   3.836   3.751  0.1074 -0.2983  0.0358
19703W        W37227  10.306  12.743  10.989 -0.2755  0.0324 -0.0602
19704W        W37228  17.753   0.265  15.697 -0.1431  0.0474  0.0956
19705W        W37229  11.909  11.105   4.030 -0.2708  0.2100  0.2822
19706W        W37230   0.620   4.898  12.835  0.1566  0.2464 -0.2347
19707W        W37231  12.182  17.847  15.294 -0.2152 -0.1014  0.1330
19708W        W37232  13.642  12.393  13.258  0.2224 -0.0599  0.2856
19709W        W37233   0.061   8.088  15.378 -0.1311 -0.1819  0.0420
19710W        W37234  10.232   3.300   0.885 -0.0003 -0.0424 -0.0195
19711W        W37235  11.276   2.818  14.991  0.1041  0.1738  0.1034
19712W        W37236  18.306  12.974  12.927  0.1110 -0.0709  0.0372
19713W        W37237   2.342   7.908   0.161 -0.2637  0.4121  0.1038
19714W        W37238   9.810  11.750  13.119 -0.2329 -0.1249  0.2987
19715W        W37239  14.453  14.221   0.421 -0.1520  0.0119  0.0248
19716W        W37240   4.861   4.732   2.358  0.1884  0.1433 -0.1865
19717W        W37241  18.080  11.284  11.500  0.1871 -0.0660  0.0530
19718W        W37242   4.227  15.949   1.527 -0.1950 -0.1933 -0.0622
19719W        W37243   2.237   3.526  12.371  0.2708 -0.0580  0.3425
19720W        W37244   3.155  11.982  12.787  0.6192  0.0425  0.0033
19721W        W37245  14.947   4.284   0.048  0.1580 -0.4977  0.7004
19722W        W37246   0.522   2.957   2.455 -0.2789 -0.1399  0.2266
19723W        W37247  11.581  17.024  11.008  0.1482  0.1510 -0.2551
19724W        W37248   5.470  10.869  14.566  0.0006 -0.2241  0.0525
19725W        W37249  12.273  12.983  10.924  0.1597  0.0859 -0.1007
19726W        W37250   1.913  10.124   4.113  0.0305  0.0107  0.0843
19727W        W37251  18.330  17.349  14.921  0.1625  0.0649  0.3684
19728W        W37252   8.268   2.611  11.518 -0.2645  0.1473  0.0820
19729W        W37253   2.667  14.614   2.622  0.3832 -0.1098  0.0447
19730W        W37254   7.442  12.080  15.703 -0.0941 -0.3966  0.0395
19731W        W37255  15.089  17.283   4.533 -0.1406  0.1380  0.0335
19732W        W37256   4.326  18.413   2.468 -0.0062  0.1573 -0.0351
19733W        W37257   7.232  15.826  15.033  0.0554 -0.0091  0.1303
19734W        W37258   7.874   1.085  13.203 -0.0363 -0.3632  0.0081
19735W        W37259   4.086   5.161   3.315  0.1083  0.1226 -0.0091
19736W        W37260  13.500   3.160  12.727  0.0061  0.1452 -0.2220
19737W        W37261   0.954  12.509  15.512  0.2869  0.1498  0.1062
19738W        W37262   8.652   7.954  15.714  0.1915 -0.0973  0.3207
19739W        W37263   2.059  18.324  12.959  0.0111 -0.2117  0.0635
19740W        W37264  14.672   1.076  11.558 -0.0474  0.0394 -0.0904
19741W        W37265   8.889  12.853   2.160 -0.0224 -0.1305  0.0564
19742W        W37266  13.481   4.413   5.013 -0.2290 -0.0543  0.4118
19743W        W37267  14.909  11.841   2.578 -0.0671 -0.3368  0.1911
19744W        W37268   0.868   8.116   2.566  0.0502 -0.1415 -0.0938
19745W        W37269   3.370  14.701   1.232  0.0051  0.0618  0.0199
19746W        W37270   7.224   1.605   1.339  0.1563  0.2029 -0.0670
19747W        W37271   1.258  17.320  11.896  0.3337  0.0667  0.2419
19748W        W37272   4.650   7.118  13.560  0.4072 -0.1470  0.3527
19749W        W37273   4.057  13.840  11.608  0.0129  0.2072  0.0516
19750W        W37274   2.593  11.416   1.905 -0.0946  0.3192  0.0706
19751W        W37275  16.950  14.538  11.517  0.3537 -0.0681 -0.0035
19752W        W37276   7.196  14.342   1.755  0.0048 -0.2257  0.0321
19753W        W37277  15.443   3.702   4.535 -0.2803 -0.0786 -0.2453
19754W        W37278   6.831  17.243   0.694  0.1858  0.1302  0.0364
19755W        W37279   4.864  16.334  15.384  0.0550 -0.1355 -0.4108
19756W        W37280   0.209   5.004  15.705  0.1653 -0.0000 -0.2270
19757W        W37281   9.141   9.265  11.114 -0.2650 -0.0636  0.0387
19758W        W37282   8.290   3.701  12.951 -0.0211  0.1791 -0.1248
19759W        W37283   8.565  13.022  15.578 -0.2644 -0.2210  0.4322
19760W        W37284  15.284   4.856   0.357 -0.0467  0.0572  0.0597
19761W        W37285  10.490  11.299   2.134  0.0370 -0.0784  0.0968
19762W        W37286   0.073   7.813  10.824  0.0195  0.1947 -0.0752
19763W        W37287  15.415  17.256  12.977 -0.0670 -0.1399 -0.0987
19764W        W37288   4.677  12.731  15.252 -0.1436  0.0699 -0.0247
19765W        W37289   3.520   6.425  15.544  0.1366  0.3382  0.0641
19766W        W37290  17.900   9.181  14.732 -0.1323  0.1710 -0.0053
19767W        W37291   5.929   0.441  14.454  0.2047 -0.2437  0.2950
19768W        W37292   2.735   2.919  13.071  0.2447 -0.2946  0.0680
19769W        W37293  11.325  16.555   1.815 -0.0927  0.1259  0.2451
19770W        W37294   3.553  16.686   4.460  0.1830  0.1637  0.1006
19771W        W37295  10.801   6.932   4.088  0.1318  0.0976 -0.0737
19772W        W37296   6.200   6.164   2.997  0.1767 -0.2212 -0.1115
19773W        W37297   5.294   2.460   1.648  0.0432  0.2028 -0.0431
19774W        W37298   1.538   6.053   1.475 -0.0463  0.3115 -0.0324
19775W        W37299  13.483   6.565   1.439 -0.0581  0.0483 -0.0358
19776W        W37300   5.184   0.388   9.767  0.0085 -0.0035  0.3083
19777W        W37301  12.294  10.375   2.189  0.0064  0.0838 -0.0519
19778W        W37302   3.603   9.670   0.657  0.4075 -0.2254 -0.1786
19779W        W37303  18.447   1.297   2.444 -0.1259  0.0955  0.1940
19780W        W37304   9.012  16.972  13.910  0.1414 -0.1299 -0.1638
19781W        W37305  10.111  17.704   9.906 -0.2990 -0.2767  0.2808
19782W        W37306  10.521  13.654   0.917  0.2056 -0.1433  0.0920
19783W        W37307   8.420  10.377   4.195 -0.1878 -0.2196 -0.1824
19784W        W37308  10.003   3.241  10.630  0.3126  0.0725 -0.2436
19785W        W37309   2.253   5.086  13.941  0.1552 -0.2109 -0.1551
19786W        W37310  14.034   2.496  13.329  0.0968 -0.0978 -0.0544
19787W        W37311   5.832   4.868   3.878  0.0930  0.1967 -0.0657
19788W        W37312  16.920   9.249   1.306  0.0343  0.2817  0.2061
19789W        W37313   1.661  11.606  11.757  0.0748 -0.0448  0.0743
19790W        W37314  15.801  12.604   2.981  0.1429 -0.0520  0.0643
19791W        W37315   7.691  12.823   0.550  0.0678  0.0702  0.1662
19792W        W37316   4.445  14.365  12.746  0.1159 -0.1383 -0.1661
19793W        W37317   9.917   2.349  11.321  0.1888  0.2753 -0.2004
19794W        W37318  10.334   2.556   0.719  0.1506 -0.1737 -0.2209
19795W        W37319  14.281  12.575   4.796  0.1449 -0.0838  0.0821
19796W        W37320   4.284  10.905   2.058  0.0537 -0.1019  0.2656
19797W        W37321   1.726   9.374  11.453 -0.0150  0.1632 -0.1235
19798W        W37322   0.767   1.025  10.860  0.0133  0.0879  0.1027
19799W        W37323   4.241   4.073  12.014 -0.3353 -0.0814 -0.1247
19800W        W37324   0.703  17.047   2.220  0.1871 -0.1485 -0.0747
19801W        W37325   8.014  14.131   4.007  0.0730 -0.2833 -0.0500
19802W        W37326   4.252  10.858  14.523 -0.0728  0.0860 -0.1285
19803W        W37327   5.010   4.667   1.881  0.2840  0.3419  0.5739
19804W        W37328   9.195  16.251   1.428 -0.0798  0.2285 -0.0522
19805W        W37329  11.452  15.288  12.525 -0.4648  0.0324 -0.0295
19806W        W37330  15.023  13.982   4.308 -0.0899  0.0128  0.1025
19807W        W37331   5.552   2.955  10.050 -0.0703 -0.2395 -0.4887
19808W        W37332  13.986  16.727  12.092  0.4132  0.0552  0.1411
19809W        W37333  11.532  10.682  15.659  0.1820  0.0108  0.1319
19810W        W37334  12.225   9.322  11.786  0.2797 -0.2156 -0.0098
19811W        W37335  12.495   0.396   0.432 -0.0963 -0.3892 -0.0518
19812W        W37336   6.968   0.257   4.087  0.1019 -0.1787 -0.0384
19813W        W37337   6.053  14.549  11.326 -0.5383  0.1042 -0.0577
19814W        W37338   3.719  15.650   2.983 -0.0394  0.1417 -0.0796
19815W        W37339   0.254  17.683   4.983 -0.2188 -0.1558  0.1387
19816W        W37340  16.647  17.606   3.729  0.3259  0.0937  0.1036
19817W        W37341  12.849  14.589  14.068 -0.1533  0.0837 -0.1790
19818W        W37342  15.318  18.215  11.764 -0.1249 -0.0996  0.0425
19819W        W37343  10.639   6.390   0.644 -0.1911  0.2725  0.1911
19820W        W37344  14.276   7.103  13.979  0.2899  0.1583  0.4677
19821W        W37345   2.262   5.036   3.960  0.1705 -0.1126 -0.0882
19822W        W37346   2.300  14.585   1.526  0.0986  0.2489 -0.1489
19823W        W37347   7.754  11.694   1.700  0.2515  0.0570 -0.0103
19824W        W37348  15.708  13.666   1.343  0.2109 -0.2029  0.0815
19825W        W37349  13.947  13.797   4.363 -0.0306  0.0282 -0.1233
19826W        W37350  13.477  11.451  14.265 -0.0050 -0.1319 -0.4386
19827W        W37351  16.919  12.841   3.941 -0.1397  0.1432 -0.2002
19828W        W37352  11.458  12.167   2.373  0.0111  0.0125 -0.4370
19829W        W37353  15.465  13.281  12.623  0.1434 -0.3890 -0.2662
19830W        W37354  12.330   3.364  14.787 -0.0343 -0.1784  0.1689
19831W        W37355  12.323  18.031  12.981  0.0250  0.0627 -0.1679
19832W        W37356   9.454   7.198  12.530 -0.2124 -0.0363  0.0066
19833W        W37357  15.996  15.725  12.808  0.1302  0.0376  0.3762
19834W        W37358  13.873   9.979  12.655  0.0014  0.0715 -0.1939
19835W        W37359   4.497  15.515   2.576  0.2221 -0.0782 -0.0778
19836W        W37360  12.200  11.848  14.512 -0.1130  0.1727  0.1310
19837W        W37361  10.527   6.749   3.418 -0.0487 -0.2451  0.2094
19838W        W37362  11.357   1.915   3.724 -0.2550  0.2521  0.0322
19839W        W37363   6.410   2.701   3.497  0.0242 -0.0440  0.2431
19840W        W37364   4.170   1.665   0.576 -0.2688  0.1770 -0.0893
19841W        W37365  13.387   4.440  13.385 -0.2697  0.0903  0.0455
19842W        W37366  13.336  11.198   3.118 -0.2753 -0.4657 -0.1431
19843W        W37367   2.489  12.311   4.301  0.4245  0.1659  0.3862
19844W        W37368  10.748  16.162  13.500 -0.1420  0.0694 -0.2082
19845W        W37369   5.591  17.724   2.483  0.3695  0.1732 -0.0385
19846W        W37370   4.006   2.372  10.799  0.0842 -0.0343 -0.0739
19847W        W37371   0.967  10.327   2.282 -0.0922 -0.0941 -0.0480
19848W        W37372  14.460   7.439  13.237  0.2189  0.1960  0.1310
19849W        W37373  16.095  11.339   0.927  0.0532  0.0242  0.1490
19850W        W37374   4.194  11.404  11.996 -0.0766  0.2474 -0.1404
19851W        W37375   6.327   2.186   3.239  0.0929 -0.1521  0.1856
19852W        W37376  16.526   5.896  14.773 -0.1398  0.1617  0.2260
19853W        W37377  14.748  10.655  12.816 -0.0131  0.0577  0.2064
19854W        W37378   2.465   7.894  13.756  0.1622 -0.2453  0.1565
19855W        W37379   6.190  10.119   0.832  0.1083 -0.2753 -0.0117
19856W        W37380  12.385   4.038  11.177 -0.1749 -0.0410  0.2385
19857W        W37381   7.606   4.285  15.340 -0.1979  0.3684  0.1487
19858W        W37382  10.770  12.858  11.656 -0.2379 -0.1429 -0.1177
19859W        W37383  14.431   6.164   2.550 -0.1901  0.2240 -0.0871
19860W        W37384   1.791   5.091  14.318  0.5550 -0.1095 -0.0170
19861W        W37385  13.880  17.314   1.781 -0.0173 -0.1095 -0.2020
19862W        W37386  10.616  12.609   2.385 -0.4336  0.1707  0.0786
19863W        W37387   6.275   1.968  12.068  0.0255  0.0527 -0.2253
19864W        W37388  13.806  12.041   4.088  0.1249  0.1458  0.4136
19865W        W37389  11.596   6.775   1.738 -0.1856  0.2063  0.2458
19866W        W37390   4.087  13.446  12.959  0.0582  0.0157  0.1007
19867W        W37391  12.317   9.343  13.108  0.1309  0.1226 -0.0333
19868W        W37392  17.853   0.131   0.709 -0.3535  0.1119  0.1025
19869W        W37393   5.231   5.992   0.741  0.1854 -0.0307  0.0108
19870W        W37394  12.115   5.043   2.717  0.1223 -0.0343 -0.1390
19871W        W37395  17.910  17.592  15.121  0.2518  0.0531  0.2014
19872W        W37396  13.845  11.786  15.415 -0.2252  0.2110  0.3686
19873W        W37397  13.099  17.886   2.827  0.3009  0.3686  0.2554
19874W        W37398   9.689   5.229   0.639 -0.2974  0.0349  0.1387
19875W        W37399   6.626  18.007   4.802 -0.0749 -0.0564  0.3927
19876W        W37400   7.022   5.783  12.747  0.2263 -0.3517  0.1573
19877W        W37401  12.738   0.762   1.996  0.0132 -0.0474 -0.0200
19878W        W37402  13.884   1.140  13.464  0.1852 -0.3358  0.1093
19879W        W37403  11.122   3.318  13.566 -0.2311 -0.1203 -0.0593
19880W        W37404   7.483  11.764   4.736 -0.2274  0.2408  0.0714
19881W        W37405  14.414  13.918   3.485  0.0602  0.1220  0.2214
19882W        W37406  14.306  10.955  11.444 -0.2940  0.0112  0.3184
19883W        W37407   7.428  18.406  12.739  0.1061 -0.0833 -0.1281
19884W        W37408  13.519   3.999  12.311 -0.1033  0.2136  0.1244
19885W        W37409   0.441   6.642   1.840 -0.0502  0.2354 -0.2530
19886W        W37410   1.386  17.161   1.616  0.0420  0.3044  0.2548
19887W        W37411   0.191  11.572  12.250  0.0848 -0.2755 -0.1873
19888W        W37412   2.693   3.960  11.173 -0.1286 -0.3626  0.3579
19889W        W37413   5.204   2.286  13.486  0.2004 -0.0856 -0.0277
19890W        W37414  13.113  14.765   1.506  0.2044  0.1018 -0.1729
19891W        W37415   5.396   5.276   4.314 -0.1345  0.2301 -0.0939
19892W        W37416   2.999   1.118   4.782 -0.0071 -0.1053 -0.0158
19893W        W37417  11.189   6.329  15.465  0.1420 -0.0435  0.2633
19894W        W37418  13.869  14.907  12.001  0.0814 -0.3597 -0.1049
19895W        W37419  16.703   6.970   2.410  0.0367 -0.0047  0.0695
19896W        W37420  11.728  16.298   2.567 -0.2357 -0.2763 -0.1492
19897W        W37421  13.913   7.787  10.669 -0.2432 -0.1576 -0.1318
19898W        W37422  15.168   6.557   0.697 -0.2329 -0.2424 -0.3004
19899W        W37423   9.331   1.479   4.448  0.2890  0.0022  0.2381
19900W        W37424  16.036   5.719  13.990 -0.0516 -0.3633 -0.0179
19901W        W37425  10.913  14.430  14.065 -0.0946 -0.0942 -0.1111
19902W        W37426   0.653  15.284   3.386 -0.0834  0.2721  0.1759
19903W        W37427  15.909  11.277  14.742  0.1082 -0.0327  0.0522
19904W        W37428   2.461  13.211   3.827 -0.0228 -0.1234  0.0801
19905W        W37429   8.948  12.448  12.402 -0.0528  0.1711  0.1646
19906W        W37430  11.566  17.933   0.195  0.2793  0.1406  0.1007
19907W        W37431   5.750   5.895   1.093  0.1405 -0.1354 -0.1060
19908W        W37432   1.880  11.507  10.091 -0.1300  0.0144  0.1901
19909W        W37433  10.225   6.235  12.150 -0.0874 -0.0918 -0.2048
19910W        W37434  10.809  15.599  12.585  0.1183 -0.0354 -0.1202
19911W        W37435   5.909  17.162   1.111 -0.4371 -0.1100 -0.2959
19912W        W37436   7.149   9.950  13.726 -0.1014 -0.1073 -0.2531
19913W        W37437   4.610  17.026   4.705 -0.1076  0.0095 -0.1998
19914W        W37438   8.624   2.905  13.932 -0.1264  0.0130  0.0285
19915W        W37439  11.613   2.722   0.372 -0.0942 -0.3519  0.1977
19916W        W37440   4.579  12.774  13.143 -0.1715  0.2814  0.2831
19917W        W37441  13.404  16.789  15.641 -0.3769  0.1794  0.1760
19918W        W37442  17.943  14.085   2.812 -0.2588  0.0028 -0.0366
19919W        W37443   2.173  11.354   2.846 -0.2718  0.0964  0.0367
19920W        W37444  13.493  13.855   4.681 -0.0495 -0.0724 -0.1706
19921W        W37445   5.206   2.806   0.559 -0.0447  0.0887  0.0726
19922W        W37446   6.834  16.840  12.065 -0.0920 -0.1629  0.3033
19923W        W37447   9.631  14.827  15.032 -0.1513  0.2795 -0.3591
19924W        W37448  15.646  10.544   0.995  0.2004 -0.0455  0.2983
19925W        W37449   2.062   9.997   2.387 -0.1261 -0.0604 -0.0237
19926W        W37450  13.301  17.839  13.073 -0.3258 -0.4218 -0.2277
19927W        W37451  10.543   3.235  12.748 -0.1788  0.2074 -0.1681
19928W        W37452   9.945  17.451   4.038  0.0717 -0.0145 -0.0094
19929W        W37453  12.024   8.486  15.551 -0.0465 -0.0998  0.1480
19930W        W37454  17.329   5.632   4.479  0.1729  0.0503 -0.0567
19931W        W37455   3.730  10.777  13.750 -0.4206 -0.0431 -0.1295
19932W        W37456   8.956   0.992   0.947 -0.0829 -0.0495 -0.0307
19933W        W37457   1.568  15.200   1.147 -0.1855  0.3089  0.1500
19934W        W37458  11.291   0.666  15.655 -0.4493  0.0499  0.0354
19935W        W37459  13.955   4.287  13.695 -0.0059 -0.2960 -0.0342
19936W        W37460   6.640   4.316   2.363  0.0277  0.1316 -0.0429
19937W        W37461  13.554   1.671  13.841 -0.1502 -0.2078  0.2577
19938W        W37462   5.948   4.095   1.386  0.1239 -0.2169  0.1003
19939W        W37463   4.100  12.548  11.120  0.1580  0.0871  0.1871
19940W        W37464   8.710  11.181   4.019 -0.0091  0.1150 -0.2913
19941W        W37465   9.428   9.689   2.171 -0.0048  0.1690 -0.0417
19942W        W37466   6.065   6.615  15.518 -0.4170  0.0492  0.0880
19943W        W37467  14.175  17.070  12.417  0.1801  0.0391  0.0057
19944W        W37468  12.468  11.767   3.001  0.1816  0.3562 -0.0627
19945W        W37469  10.467  11.637  12.657 -0.1595  0.1650 -0.2129
19946W        W37470   9.017   6.022   4.407 -0.1460 -0.3592 -0.1952
19947W        W37471  17.865  13.398   4.293  0.1736  0.2581 -0.2281
19948W        W37472   9.024  13.698  15.211 -0.3052 -0.2281 -0.1757
19949W        W37473  12.598  12.202  12.477 -0.0576  0.0283 -0.1597
19950W        W37474   9.280   7.513  15.071 -0.0829  0.1717 -0.2107
19951W        W37475   0.497  15.788   3.854  0.0792  0.1260 -0.0097
19952W        W37476  18.182   9.640  12.034  0.0795  0.2402 -0.1231
19953W        W37477   0.865   6.524  14.895 -0.4513  0.0704 -0.0271
19954W        W37478  16.151  14.660  12.707 -0.0728  0.0215  0.2893
19955W        W37479   6.824  10.347  13.793  0.2811 -0.0601  0.0640
19956W        W37480   4.035   7.377  10.937  0.0991 -0.0476 -0.0291
19957W        W37481  11.940  11.599   0.899 -0.0047 -0.1612  0.3393
19958W        W37482  10.741   6.243  14.561  0.2637 -0.1020  0.3183
19959W        W37483  13.047  11.169  11.871 -0.2850  0.0620 -0.2507
19960W        W37484  13.661   4.306  15.200 -0.1699 -0.0898 -0.0206
19961W        W37485   7.611  11.514  10.796 -0.0848  0.2594 -0.2109
19962W        W37486  16.424   1.484   2.691 -0.3231  0.2047  0.0170
19963W        W37487   5.799   3.145   0.642  0.1870 -0.0409 -0.1797
19964W        W37488  15.130  10.843   4.141  0.1641 -0.3703  0.1572
19965W        W37489  15.612   3.665   1.081 -0.1430 -0.2186 -0.1582
19966W        W37490  15.202  14.947  14.594 -0.0079  0.0313  0.1279
19967W        W37491  12.054  16.062  14.053  0.4453  0.0180 -0.1867
19968W        W37492   5.233  14.585  15.255  0.0565 -0.0125 -0.1178
19969W        W37493  18.115   9.248  15.294  0.3673  0.4011 -0.0253
19970W        W37494   5.026  14.394   0.661 -0.0366  0.2160  0.4384
19971W        W37495   1.447  16.763  12.418  0.0312  0.1272  0.1041
19972W        W37496  10.860  12.801   0.066  0.1112 -0.1813  0.0143
19973W        W37497  12.097   9.253   2.270  0.0807  0.2911  0.1591
19974W        W37498  14.924   7.571   1.299 -0.2131 -0.0542 -0.3637
19975W        W37499   3.731  17.972   4.281  0.2885 -0.1858 -0.0849
19976W        W37500   6.597   1.076   2.478  0.0136  0.0570  0.0221
19977W        W37501   0.982  16.691   2.484 -0.1169  0.2596 -0.4233
19978W        W37502   8.592   6.349   3.713 -0.0934 -0.1227 -0.4375
19979W        W37503   0.514   3.651   1.124  0.0670  0.1319 -0.2026
19980W        W37504   1.565  12.614   4.528 -0.1460  0.0320  0.2701
19981W        W37505  12.970   5.011   1.491 -0.0927 -0.2744 -0.0809
19982W        W37506   3.534  10.129   2.601  0.3418  0.1302 -0.0809
19983W        W37507  15.655  18.314  12.909 -0.1356 -0.0571 -0.1767
19984W        W37508  16.729   9.939   2.437 -0.0510  0.0680  0.0956
19985W        W37509   8.699   9.170  15.085  0.1140  0.2006 -0.1944
19986W        W37510   4.219  10.352  12.070 -0.1051 -0.1657 -0.1666
19987W        W37511  14.081  12.439  13.734  0.1337 -0.1009 -0.0700
19988W        W37512  18.326  16.040  12.170  0.2342 -0.1694  0.0327
19989W        W37513  11.155  14.480   2.877  0.0079 -0.1625  0.1861
19990W        W37514   3.474   1.831  12.926 -0.3035 -0.3064  0.0124
19991W        W37515  11.765   7.060  13.369  0.2090 -0.2544 -0.0136
19992W        W37516   4.218   6.235  12.986 -0.1794  0.0584 -0.1950
19993W        W37517   4.414  16.799   3.748 -0.0157  0.1260  0.4140
19994W        W37518   1.417  10.168  11.544 -0.1812 -0.0000 -0.1004
19995W        W37519  11.779   2.780   3.273  0.3333 -0.0480  0.0572
19996W        W37520  15.379   5.553  14.737 -0.2830 -0.2594 -0.4099
19997W        W37521  13.992   6.910  12.456 -0.6453  0.1966 -0.3622
19998W        W37522  16.137  14.203   5.844  0.0708 -0.1319  0.2281
19999W        W37523   3.404   3.917  11.466 -0.2240  0.0173  0.2179
20000W        W37524   3.245  14.129  14.255 -0.1700 -0.2445  0.2181
20001W        W37525  10.398  12.689  12.503  0.0179 -0.0045  0.0036
20002W        W37526   3.755   7.549   0.409 -0.2000 -0.1847  0.1149
20003W        W37527   8.593   5.014  13.568  0.0064 -0.0736 -0.1085
20004W        W37528  11.767  13.808   3.743  0.0098 -0.0586  0.0771
20005W        W37529   3.745   8.635  13.204 -0.0066 -0.2327 -0.3592
20006W        W37530  12.826   2.715   3.197 -0.1259 -0.0409  0.2155
20007W        W37531   4.992  15.594  15.542  0.1122  0.0636 -0.0612
20008W        W37532   4.398  13.126  12.683 -0.1331  0.2269 -0.0439
20009W        W37533   9.929   4.279  15.656 -0.4115  0.1579  0.0449
20010W        W37534   4.210   0.542   4.894  0.0550 -0.1240  0.0484
20011W        W37535   5.642  16.165   3.180  0.1536  0.0262 -0.0423
20012W        W37536   9.269   5.370   4.109 -0.0428 -0.1108  0.1067
20013W        W37537  18.184   2.519   0.643 -0.0081 -0.1810 -0.4944
20014W        W37538  16.723  12.565  12.904 -0.0294 -0.2112  0.2276
20015W        W37539   2.332   7.276   0.438 -0.0547  0.1804 -0.2954
20016W        W37540   5.318   1.828  11.842 -0.1179  0.0939 -0.2845
20017W        W37541   7.462  17.530   4.292  0.0838  0.0040 -0.2102
20018W        W37542  15.920   1.287  12.243 -0.0038  0.2879 -0.0892
20019W        W37543  17.858  13.831   1.501  0.2773 -0.3090  0.2465
20020W        W37544   9.867  11.557   4.994  0.1003 -0.2229 -0.3354
20021W        W37545  10.716   5.881  13.217  0.1430 -0.0273  0.0432
20022W        W37546   5.415  11.515  12.554 -0.1750 -0.2630  0.4195
20023W        W37547  11.473  10.081  14.072  0.0964  0.0594  0.0320
20024W        W37548   9.541   3.582   1.589  0.1460 -0.2027  0.0529
20025W        W37549   3.870   3.534   0.342  0.1148 -0.0400  0.1363
20026W        W37550  15.667  12.635   9.813  0.0593 -0.0319  0.2116
20027W        W37551  16.080   0.866  15.020  0.0234  0.0314 -0.3872
20028W        W37552   3.330  11.406   3.642 -0.0998  0.1032 -0.0472
20029W        W37553  14.680  14.447   4.186  0.1210  0.0049  0.0764
20030W        W37554   9.186   5.000   4.665  0.1016  0.0053 -0.3318
20031W        W37555   8.239   0.409   1.454  0.3949 -0.0940  0.3801
20032W        W37556   0.769   5.743  13.707 -0.1700  0.1553 -0.0845
20033W        W37557   3.026   4.950   0.786  0.2277 -0.3151  0.0224
20034W        W37558   5.794   6.330  10.991  0.0448  0.0052 -0.0616
20035W        W37559  11.765  10.152  13.323  0.1375  0.0552  0.1743
20036W        W37560  12.238  15.846   1.477  0.1556 -0.1481 -0.0435
20037W        W37561   5.886   1.674   4.114 -0.2537  0.4600 -0.0254
20038W        W37562  11.047   4.144  12.562 -0.0093  0.2535 -0.0541
20039W        W37563  15.039  16.257  11.815  0.2064  0.0569 -0.0810
20040W        W37564  16.072   7.580  13.523 -0.1397 -0.1436 -0.1092
20041W        W37565   8.786   9.047   1.023 -0.1415  0.0210 -0.1021
20042W        W37566  12.408  15.168   0.283  0.0077  0.2464  0.0723
20043W        W37567   7.735   7.145   2.982  0.1219  0.1967  0.0343
20044W        W37568  16.104  15.697  14.149 -0.1290 -0.1657 -0.2429
20045W        W37569   4.260   9.859  12.957  0.1787  0.0919 -0.1067
20046W        W37570   1.976  17.632  15.128 -0.1478  0.0246 -0.0567
20047W        W37571   5.396  16.695   4.843  0.1628  0.0233  0.4255
20048W        W37572   8.530   5.850   2.086  0.0013  0.0023 -0.1534
20049W        W37573  15.731   3.420  11.037 -0.0443  0.1202  0.0299
20050W        W37574  16.046   1.131  11.775  0.0523 -0.3499 -0.0620
20051W        W37575  17.677   3.889   1.107  0.2303 -0.0007 -0.0602
20052W        W37576  14.255   1.700   0.424 -0.1301  0.1106 -0.2974
20053W        W37577   0.674   1.495  15.112 -0.1352 -0.2323  0.1724
20054W        W37578   9.833  12.012   3.781  0.0692  0.2368  0.0594
20055W        W37579   9.278   7.355   2.404  0.3605 -0.0412 -0.3517
20056W        W37580  17.404  11.211  14.485  0.2128  0.0975  0.2600
20057W        W37581   8.712   9.882   1.252  0.0302  0.5306 -0.1387
20058W        W37582  16.803   3.273  13.464 -0.1297  0.1359 -0.2820
20059W        W37583   3.516   0.896  13.418 -0.1424 -0.2912 -0.3464
20060W        W37584   7.657   6.079  14.125 -0.1594 -0.2623  0.1310
20061W        W37585  12.181   4.987   3.432 -0.2896  0.0022 -0.3236
20062W        W37586   8.250   9.886  15.195  0.3151 -0.2010 -0.2754
20063W        W37587   3.829   3.913   2.214  0.0704 -0.1489 -0.1742
20064W        W37588  15.787   6.818  15.161 -0.0429 -0.0325  0.1254
20065W        W37589   3.960   4.010   1.733  0.2747 -0.1171 -0.1307
20066W        W37590   5.483   1.213   1.640 -0.1772  0.0431  0.0517
20067W        W37591   7.112   9.437  10.715 -0.1504  0.0656  0.1386
20068W        W37592  11.683  16.071   5.764 -0.0474  0.2263  0.0414
20069W        W37593   0.348   0.916  15.136  0.3714  0.2532  0.2489
20070W        W37594  12.648  13.667   3.706  0.1111  0.0557  0.2063
20071W        W37595   0.487  11.808  11.289  0.2291 -0.1996 -0.1569
20072W        W37596   9.861  13.341  12.044  0.0035 -0.2078  0.7820
20073W        W37597   7.519  16.832   1.048 -0.0400 -0.0057 -0.1667
20074W        W37598   6.802  10.901   4.582 -0.2294 -0.1083  0.0453
20075W        W37599   3.961  11.331   4.463  0.2000 -0.1728 -0.0092
20076W        W37600   5.844   1.511  12.256  0.0796 -0.0935  0.2668
20077W        W37601   6.131  10.385  13.171 -0.1609 -0.0044 -0.1923
20078W        W37602  14.836  10.220  13.065 -0.1934 -0.1856 -0.1357
20079W        W37603   5.604   4.806   2.462  0.1250  0.0736 -0.2382
20080W        W37604  12.883   9.271  11.603  0.0298 -0.0579  0.2619
20081W        W37605   5.092   1.478   0.780 -0.1051  0.2686 -0.3755
20082W        W37606  16.061   6.981  12.079  0.1728 -0.1958  0.1827
20083W        W37607  12.168  13.047   4.186  0.0879 -0.2257 -0.2375
20084W        W37608   9.491  10.231   1.422 -0.0681 -0.0979  0.0182
20085W        W37609  12.620   6.756  12.111  0.0856  0.3170 -0.3809
20086W        W37610   0.364   0.651  14.523  0.0636 -0.3367 -0.3195
20087W        W37611   1.246  16.170  14.873  0.3210 -0.3457  0.1569
20088W        W37612   4.313   0.901   4.082  0.0106  0.1135  0.0327
20089W        W37613  11.989  14.541   4.859 -0.1732 -0.1888 -0.1679
20090W        W37614   9.695   5.559   1.778  0.0934  0.0314  0.2671
20091W        W37615  14.921   9.283  10.599 -0.0044 -0.0136  0.0918
20092W        W37616  12.378   6.710   4.511  0.0611  0.0808 -0.3740
20093W        W37617   8.041   2.037   0.557  0.1280 -0.2862  0.1047
20094W        W37618   9.902  13.662  12.454  0.0194  0.0046 -0.3893
20095W        W37619   9.496   3.367   3.439  0.0344  0.0028 -0.1585
20096W        W37620  16.724  15.396  15.429  0.2974 -0.0092 -0.1959
20097W        W37621   9.093   5.254  13.615 -0.0545  0.2467 -0.0796
20098W        W37622   9.893   0.512  12.537  0.3320  0.0731 -0.1850
20099W        W37623   7.852   5.742  10.836 -0.2005  0.1132  0.3612
20100W        W37624   6.375   6.658   4.649 -0.0014 -0.3635 -0.1677
20101W        W37625  10.947   1.016  15.479  0.0155  0.0470  0.4665
20102W        W37626   8.480   2.394  11.106  0.0935 -0.0812 -0.1377
20103W        W37627   1.460   9.742  13.916  0.0161  0.0742 -0.1426
20104W        W37628   4.497   1.801  13.895  0.0319  0.0772 -0.4384
20105W        W37629   5.519   7.983  15.577  0.2396 -0.2873  0.2012
20106W        W37630   4.897   5.869   2.627 -0.0040 -0.0865  0.0520
20107W        W37631   5.433  16.701  14.241  0.1740  0.2456 -0.1114
20108W        W37632  12.908  14.994   2.598 -0.1968 -0.0105  0.0722
20109W        W37633   5.201  17.284  12.841  0.0341  0.0014 -0.1945
20110W        W37634  15.451  16.905   2.909 -0.0557  0.1131  0.2198
20111W        W37635  15.660  16.208  15.272 -0.0649  0.0636 -0.1535
20112W        W37636  15.951   4.151  13.641 -0.0625  0.0914 -0.0917
20113W        W37637  12.939   2.134  11.216 -0.1327  0.0964 -0.1456
20114W        W37638   0.967  13.773   2.067 -0.1969 -0.0808 -0.2503
20115W        W37639   6.764  18.048   3.636  0.0692  0.1884 -0.1737
20116W        W37640   2.464   6.955   1.104  0.0864 -0.1865  0.0034
20117W        W37641   0.704  16.244  12.979  0.3822 -0.4419 -0.0621
20118W        W37642   6.287   0.850  13.164 -0.0671  0.0741  0.1023
20119W        W37643   3.413  14.801  15.569  0.5776  0.0902 -0.0409
20120W        W37644   4.607  10.072   3.561 -0.2544 -0.2823  0.3865
20121W        W37645   1.207  11.751   1.988 -0.0910 -0.2647  0.1772
20122W        W37646   2.224  15.877   2.153  0.0380 -0.2965 -0.2532
20123W        W37647   9.581   1.060  11.919  0.0256  0.0026  0.2695
20124W        W37648  13.762   7.711   1.878  0.1711 -0.1473  0.4457
20125W        W37649   7.533   8.598  13.402  0.3071  0.0664  0.1325
20126W        W37650  15.190  17.220   0.064  0.0789  0.2247  0.0736
20127W        W37651  10.066   7.706  11.074  0.2332 -0.2081 -0.1058
20128W        W37652   3.117   5.100  14.881 -0.0872  0.4319 -0.1415
20129W        W37653   2.089  16.172   5.140  0.0554 -0.0436  0.3535
20130W        W37654   4.490  16.297   3.950 -0.0962 -0.1107 -0.1557
20131W        W37655  15.748  14.508  12.280  0.0807 -0.1712  0.1984
20132W        W37656   2.707   0.077  14.623  0.2475 -0.0838  0.2535
20133W        W37657  12.831   2.717  14.717  0.0995  0.1489 -0.1448
20134W        W37658  10.151  10.163   2.678  0.1268 -0.2315 -0.5595
20135W        W37659   0.201   3.131  10.922 -0.2183  0.0488 -0.2669
20136W        W37660   0.474   5.742   0.884  0.0671  0.0156 -0.3298
20137W        W37661   2.299   2.821   0.041  0.1454  0.1820  0.3374
20138W        W37662  16.989   3.804   1.302  0.1796  0.0208  0.0481
20139W        W37663  11.165   0.067   1.129 -0.3869 -0.0088 -0.2170
20140W        W37664  15.437   5.034   1.214  0.0425 -0.0261  0.1268
20141W        W37665   2.111  12.027   1.968  0.2230  0.1712  0.0001
20142W        W37666   7.773   4.947   4.031  0.0946  0.1025  0.3314
20143W        W37667   8.011   3.277   0.291  0.2086  0.1336 -0.2114
20144W        W37668   9.711  10.634   4.503 -0.0169  0.1658  0.1563
20145W        W37669   6.985   4.889  10.260  0.2684 -0.0695  0.2231
20146W        W37670  16.709  17.888  12.911  0.0124 -0.1277  0.1567
20147W        W37671  14.523   4.629   0.757 -0.2953  0.1368  0.2273
20148W        W37672  15.884   1.626   3.059  0.0538 -0.0559 -0.0814
20149W        W37673   7.390  13.805  14.290  0.1668  0.0902 -0.0792
20150W        W37674   4.430  17.121   5.859  0.0399  0.0462  0.0612
20151W        W37675   4.243   7.177  11.320 -0.1427  0.2069  0.0426
20152W        W37676   1.423   1.810   3.851  0.0955  0.0905  0.1601
20153W        W37677   8.625  13.645   2.468 -0.2362 -0.0545  0.3214
20154W        W37678  13.686   1.246   2.532 -0.4027 -0.2314 -0.0460
20155W        W37679   0.569   4.468   0.706 -0.0117  0.3059  0.1345
20156W        W37680   6.818   0.348  11.656 -0.2609 -0.1169 -0.1010
20157W        W37681  17.241   2.024   0.542 -0.4172 -0.1292  0.1226
20158W        W37682  15.034  16.187   5.170 -0.0255 -0.0903 -0.1465
20159W        W37683   5.937  14.961  12.578 -0.1856  0.0017  0.0990
20160W        W37684   8.655  17.996   3.738  0.0266 -0.1406  0.1396
20161W        W37685   5.393   9.527  11.038 -0.0778  0.0366 -0.2076
20162W        W37686   0.547  16.924   2.685 -0.0724 -0.0609  0.1280
20163W        W37687  16.583   1.942   0.925 -0.3932 -0.0993  0.0910
20164W        W37688   2.383  17.971  14.265  0.3829  0.1187  0.0546
20165W        W37689   8.084  15.768  11.329 -0.1825 -0.1461 -0.0775
20166W        W37690   7.730  17.123   4.266 -0.3775  0.0916 -0.1859
20167W        W37691   0.155  17.612   1.984  0.2432 -0.1444  0.2383
20168W        W37692   2.087   0.384  12.964  0.1125 -0.0875 -0.2364
20169W        W37693  11.135   5.917   0.070  0.0099 -0.2253  0.0154
20170W        W37694   6.836  12.724   1.517  0.0378  0.1105  0.2761
20171W        W37695   3.340   1.269  12.200 -0.0971  0.0111 -0.0109
20172W        W37696   5.068   7.905  14.926  0.0256  0.0391  0.3031
20173W        W37697  13.842   8.586   1.147 -0.1487  0.0333 -0.0169
20174W        W37698  11.645  12.874   0.435 -0.2460  0.3343 -0.1844
20175W        W37699   7.919  10.449  12.232  0.4490  0.1579  0.0887
20176W        W37700  18.105  15.236   4.676 -0.0179 -0.0176 -0.1525
20177W        W37701   5.702  13.250   1.410 -0.0443  0.0181  0.0214
20178W        W37702   8.005   3.581  13.809 -0.3632 -0.1679 -0.3260
20179W        W37703   7.636  18.017   4.351 -0.3424  0.1311 -0.4033
20180W        W37704   7.786  17.474   0.993 -0.1006  0.1666  0.1392
20181W        W37705  17.351  11.938   2.776 -0.0912 -0.1833 -0.0621
20182W        W37706   2.505  17.244  11.611 -0.3910 -0.0727  0.2055
20183W        W37707  12.706   6.447   2.591 -0.1611  0.0305  0.0647
20184W        W37708  15.529  17.263   1.873 -0.3361  0.0305  0.2493
20185W        W37709   6.709   7.648  13.744  0.0444 -0.2885  0.0632
20186W        W37710  17.276  15.215  14.790 -0.1217 -0.0647  0.0855
20187W        W37711   4.239   3.656   1.444  0.0641  0.1611  0.2555
20188W        W37712  14.849  11.866   5.005  0.1487 -0.0929  0.2361
20189W        W37713   6.587  11.810  13.690  0.1849 -0.2168 -0.2717
20190W        W37714   8.460   9.135   2.297  0.2526 -0.1700 -0.1655
20191W        W37715  16.020   0.319   2.945  0.0043 -0.1127 -0.1314
20192W        W37716  13.826   7.457   4.204 -0.0572 -0.1465 -0.0207
20193W        W37717   1.444  14.239   4.156 -0.4641  0.3605 -0.2518
20194W        W37718   3.343  15.641  13.302  0.1409  0.0191 -0.1609
20195W        W37719   3.582  10.639   2.540 -0.2691  0.0407  0.1138
20196W        W37720   2.280   4.154  11.009 -0.1058  0.0388  0.1311
20197W        W37721  13.716  17.395   4.724  0.0208  0.0741  0.1803
20198W        W37722   7.737   0.395   1.041  0.0904 -0.0350 -0.2971
20199W        W37723   4.658  13.517  14.177  0.0983 -0.1384 -0.0790
20200W        W37724   4.409  10.319   2.601  0.0818  0.0696 -0.3146
20201W        W37725  14.228  17.868   0.862  0.2291  0.2003  0.1576
20202W        W37726  17.917  12.307  15.333  0.0381 -0.1255  0.0278
20203W        W37727   9.347   3.640   2.070  0.0986  0.0658  0.0964
20204W        W37728   8.543   0.396   4.263  0.2063 -0.1235 -0.3255
20205W        W37729  13.732  12.614  14.572  0.0686 -0.2846  0.2347
20206W        W37730   4.793  12.226   3.536 -0.2180  0.2525  0.3338
20207W        W37731   9.669   0.849   2.905  0.0703  0.1360  0.3047
20208W        W37732  15.010   3.853  13.671  0.0572 -0.1470 -0.0154
20209W        W37733   6.704  11.909   0.751  0.0168 -0.1685 -0.2403
20210W        W37734   6.978  17.518  13.945 -0.3099  0.3804 -0.4667
20211W        W37735  16.185   1.661   0.280  0.0019  0.0080 -0.1156
20212W        W37736  16.193   2.923   3.629  0.0832 -0.0908  0.0339
20213W        W37737   0.076  11.988   3.161 -0.2000  0.1665 -0.0268
20214W        W37738  11.893  15.356  12.340  0.0750 -0.1057 -0.2112
20215W        W37739  15.955   9.951   1.662  0.0711  0.0026  0.2388
20216W        W37740  18.160  12.191   0.145  0.0812  0.0664 -0.3893
20217W        W37741  11.030  12.928   2.628 -0.0233  0.0639  0.0140
20218W        W37742  13.852   0.194  13.895 -0.0597  0.0812 -0.0125
20219W        W37743  17.997  13.348   0.742  0.1516 -0.2256 -0.2572
20220W        W37744  14.415  15.526   3.573 -0.1495 -0.0311  0.0766
20221W        W37745   9.212  17.523   1.598  0.0772  0.1542 -0.1844
20222W        W37746  13.543   3.564   3.411  0.1098 -0.2664 -0.1061
20223W        W37747  18.179  12.467  12.178 -0.1250 -0.2509  0.0821
20224W        W37748   5.162   1.257  15.309  0.0290 -0.2132  0.2852
20225W        W37749   2.925   2.052   4.700 -0.4994  0.0414  0.2988
20226W        W37750  16.363  15.537   1.278 -0.2300 -0.2275 -0.0719
20227W        W37751  15.877   4.285   3.905 -0.2729 -0.1090 -0.0122
20228W        W37752   1.278   7.247   4.128 -0.0064 -0.2945 -0.0469
20229W        W37753   5.211  14.985   5.012 -0.2286  0.4281  0.2416
20230W        W37754   0.814  13.883  10.945  0.2124  0.1123 -0.1314
20231W        W37755  13.047   4.078   1.332 -0.2518  0.2208  0.0056
20232W        W37756  13.777   6.887   5.048  0.0235  0.0835 -0.4023
20233W        W37757  11.090   0.538   5.098 -0.3265  0.2753 -0.2810
20234W        W37758   7.477   9.569   4.649 -0.0650 -0.0817  0.0768
20235W        W37759  16.942   7.963   5.018  0.2084  0.0064  0.0529
20236W        W37760  10.300  12.335   1.547  0.0305 -0.1495  0.3261
20237W        W37761   7.480   0.172  14.665  0.2200  0.2925 -0.2385
20238W        W37762  12.377  17.367   0.815  0.1816 -0.1804 -0.0305
20239W        W37763  18.189   2.877  10.949  0.2273 -0.0020  0.0589
20240W        W37764  14.673  13.529   0.668 -0.0369  0.0673  0.0700
20241W        W37765   9.590  13.733   3.000  0.1760  0.0502 -0.2621
20242W        W37766  16.274   2.657  14.117  0.0021  0.1023 -0.3988
20243W        W37767  17.823  16.009  15.260  0.0442 -0.0414  0.0658
20244W        W37768   3.214   6.168  13.336  0.0784  0.0260  0.0854
20245W        W37769   5.069  12.017  11.959 -0.2210  0.0866 -0.2813
20246W        W37770   8.002   5.092  13.644 -0.1414 -0.0455  0.0113
20247W        W37771  14.785  17.623   4.802  0.0621 -0.1098  0.0577
20248W        W37772   0.938   0.816  12.106 -0.0751 -0.3310 -0.2337
20249W        W37773  12.584   2.177   1.077  0.1180 -0.0140 -0.0899
20250W        W37774   1.894  10.234  14.726 -0.1606 -0.0058 -0.3980
20251W        W37775   2.919  10.396   4.398 -0.3075  0.1580  0.1837
20252W        W37776  12.332  11.825  12.120  0.0837  0.1387 -0.0516
20253W        W37777  10.365  15.294   3.554  0.0864  0.2589  0.1098
20254W        W37778  18.219  14.189   0.282  0.2622 -0.3699  0.1398
20255W        W37779   8.421  12.182  12.670 -0.0006  0.2028 -0.3588
20256W        W37780  17.467  18.201  11.627 -0.1466  0.4122 -0.0021
20257W        W37781  14.688   9.351   1.116 -0.1039  0.2006  0.2466
20258W        W37782  15.378   8.667   0.291 -0.0160 -0.1399 -0.3418
20259W        W37783   7.247   6.913  12.640 -0.2538  0.0204 -0.2525
20260W        W37784  15.479  16.260   2.969  0.2848 -0.1274  0.1289
20261W        W37785  10.944   1.916   2.533  0.1099 -0.1627  0.1351
20262W        W37786  10.758  12.521  12.772 -0.0412  0.1022 -0.4822
20263W        W37787  13.717   6.077   1.461 -0.0454 -0.1624  0.0617
20264W        W37788   6.123  13.485   4.866 -0.1408  0.0246  0.1451
20265W        W37789   4.062   7.355   1.231 -0.0484  0.0370 -0.0966
20266W        W37790   8.659  14.375  14.159 -0.0292  0.1927 -0.2014
20267W        W37791  17.387  12.277  15.202 -0.0432 -0.2696 -0.3786
20268W        W37792  14.765   2.769  12.484 -0.0220  0.0349 -0.3201
20269W        W37793  12.382   6.736   3.290  0.1635  0.0538 -0.1650
20270W        W37794  13.300   1.722  14.705  0.0728 -0.0692 -0.0765
20271W        W37795   9.092   6.069  11.301  0.1950  0.0014 -0.3005
20272W        W37796  10.860   9.237   4.506 -0.2647 -0.3118 -0.1988
20273W        W37797   0.283   5.429   3.458  0.2290  0.0207 -0.1263
20274W        W37798  10.041   7.987   3.409 -0.3450 -0.2610  0.0183
20275W        W37799  11.907   1.253   4.669  0.0780 -0.0604  0.0130
20276W        W37800  18.367  17.826  14.914  0.1491  0.2051 -0.0427
20277W        W37801  15.901   8.760  14.799 -0.1037 -0.0694 -0.3756
20278W        W37802   5.462   0.149  10.650  0.0089 -0.1225  0.1057
20279W        W37803   6.434   1.547  12.837 -0.0984 -0.1726 -0.1877
20280W        W37804   8.372  18.412  13.173  0.3704 -0.0874  0.1725
20281W        W37805  11.632  10.298   5.046  0.1548  0.1635  0.0176
20282W        W37806  13.168  17.232   0.605  0.1324 -0.0367 -0.0778
20283W        W37807   0.071   9.784   3.330  0.1773  0.0961 -0.0008
20284W        W37808  10.318  12.375  13.736 -0.0473 -0.2219  0.0223
20285W        W37809  14.460  13.572  14.359 -0.0563 -0.1890 -0.0178
20286W        W37810   1.608   8.890  11.499  0.1696  0.1947  0.1710
20287W        W37811   7.105   0.309   5.665  0.0557 -0.0714 -0.3563
20288W        W37812   4.362  13.566   3.630 -0.0038 -0.0878 -0.1925
20289W        W37813  17.995  15.312   0.567  0.3968 -0.1116 -0.1325
20290W        W37814   8.001   8.755  13.338 -0.1790  0.0717 -0.2727
20291W        W37815  10.559  18.348   3.439  0.0749  0.2912  0.0685
20292W        W37816  14.656  11.914  11.582  0.1922  0.1253 -0.1796
20293W        W37817   6.756   4.783   4.975 -0.0404  0.0472  0.2623
20294W        W37818   9.683   0.954  15.336  0.0605  0.0840  0.2589
20295W        W37819   9.634   2.434  13.796  0.1450 -0.1474 -0.1719
20296W        W37820   5.053   8.551   0.808 -0.6447  0.2196  0.1561
20297W        W37821  12.106  15.929   0.812 -0.1139  0.0903 -0.0592
20298W        W37822   1.420  12.901  11.938 -0.2617  0.1266  0.0840
20299W        W37823  12.736  15.206  12.922  0.4280 -0.0129  0.1138
20300W        W37824  12.922  18.252   0.458 -0.1558 -0.1448  0.2385
20301W        W37825   3.464  17.605   1.982  0.1510  0.1483 -0.2235
20302W        W37826  16.391  10.159   4.396 -0.0073 -0.0382 -0.0761
20303W        W37827  14.338  11.212  15.328 -0.0837 -0.2251  0.3510
20304W        W37828  17.297  12.806  13.541 -0.2496 -0.1919  0.2971
20305W        W37829   8.227  11.057   3.273 -0.1690 -0.0569 -0.3749
20306W        W37830  14.471   6.479  14.525  0.0410 -0.0524 -0.0329
20307W        W37831   7.600  11.481   5.895  0.1123 -0.1020 -0.1480
20308W        W37832   5.420   6.946  14.053  0.0523  0.1065  0.1335
20309W        W37833  16.049  10.520  10.480 -0.0342 -0.0997 -0.0972
20310W        W37834   6.071   9.072   2.077  0.0341  0.2754 -0.0038
20311W        W37835  13.779   3.506   2.505 -0.0182  0.2180  0.1121
20312W        W37836   0.182   8.281  14.117 -0.2369 -0.0161  0.1914
20313W        W37837   7.439  16.441  14.359  0.1514 -0.1224  0.0421
20314W        W37838   0.861  14.097   1.069  0.2040 -0.1416  0.0222
20315W        W37839   5.115  14.812  11.517  0.0251 -0.2795  0.1545
20316W        W37840  12.496   9.976   0.116 -0.0280  0.1674 -0.0304
20317W        W37841  10.985  18.016  12.042  0.0220 -0.0590 -0.0811
20318W        W37842   4.986   4.882  11.069 -0.1804  0.0140 -0.3734
20319W        W37843   1.951   4.397  11.360  0.2608  0.1126  0.3936
20320W        W37844   6.563  17.198   1.768 -0.0702  0.2627  0.2981
20321W        W37845  14.757  11.062  13.117 -0.2991 -0.3522  0.1241
20322W        W37846  16.947   2.338  12.043  0.2325 -0.4339  0.1856
20323W        W37847   2.246  13.448   2.657  0.0593 -0.0191  0.1121
20324W        W37848   3.489   3.898  10.910  0.1045  0.1200 -0.2131
20325W        W37849  10.488   8.946  15.713 -0.3200 -0.1375 -0.0891
20326W        W37850  11.774  17.482   1.322 -0.0005 -0.1539 -0.0977
20327W        W37851  18.390   6.845   1.768 -0.2901 -0.2780  0.0600
20328W        W37852   0.498   9.206  11.691  0.1839 -0.2869 -0.0976
20329W        W37853   4.015  17.152  12.169  0.1752  0.1235  0.0967
20330W        W37854  11.816   1.305   3.555 -0.0837 -0.3247  0.1601
20331W        W37855   0.007  10.471  11.863  0.1027  0.0788  0.0818
20332W        W37856   7.632  14.271  13.087  0.0378  0.3337 -0.1805
20333W        W37857  12.464  16.851   0.118 -0.1269  0.1540 -0.1349
20334W        W37858   9.325  15.166  11.796 -0.0945  0.0117  0.5423
20335W        W37859  12.843   7.525  13.712  0.3487  0.2703  0.2647
20336W        W37860  12.190   6.653   9.763  0.1133  0.1468 -0.2334
20337W        W37861   9.456   6.894  15.040  0.0762 -0.1195 -0.3549
20338W        W37862  14.433   7.502  13.717  0.1093 -0.3688  0.0717
20339W        W37863   8.174   7.900   4.835 -0.2931 -0.1306  0.2042
20340W        W37864   0.895   2.163   3.554 -0.0248 -0.2443 -0.1020
20341W        W37865   8.171   6.449  13.294  0.1121  0.0860 -0.0235
20342W        W37866   1.258  18.411   4.954 -0.1832 -0.2276  0.1454
20343W        W37867   5.836  15.622  15.183 -0.0459 -0.0174  0.0360
20344W        W37868   1.172  11.288   4.067 -0.0203  0.1811 -0.0833
20345W        W37869  15.520   4.381  10.998 -0.1488  0.2300  0.0837
20346W        W37870   1.413  12.390  12.872  0.1716  0.0948  0.0778
20347W        W37871  17.215   1.432   4.809  0.0210 -0.2418 -0.4113
20348W        W37872   2.487   9.264  15.609  0.1499  0.0272 -0.1423
20349W        W37873   6.729  10.630   1.131  0.1832 -0.4041  0.1178
20350W        W37874   3.452   1.700   2.410  0.3639 -0.0020  0.2776
20351W        W37875  11.303   8.627   4.654 -0.0273  0.2416  0.0383
20352W        W37876  15.994  13.634  11.839  0.0217 -0.0213 -0.0619
20353W        W37877  13.529  11.911  14.988  0.0295  0.0461  0.0371
20354W        W37878  14.718  17.070  15.252 -0.0006 -0.1807 -0.0416
20355W        W37879   6.221  13.325  11.496 -0.0905  0.0730  0.1745
20356W        W37880   7.793  13.437  14.086 -0.2086  0.0684 -0.3126
20357W        W37881   4.047   8.160  12.181 -0.2658  0.4228 -0.0743
20358W        W37882   3.003   9.254  12.298 -0.3031 -0.0321  0.2418
20359W        W37883  17.394  12.286  12.872 -0.2180 -0.2754 -0.0415
20360W        W37884  15.248  15.035   2.178  0.0925 -0.0121 -0.0675
20361W        W37885   5.672  15.293   3.995 -0.0393 -0.1616 -0.0459
20362W        W37886  12.068   8.854  15.095 -0.0346  0.0669 -0.0058
20363W        W37887  10.033   6.002  11.297  0.2406 -0.1882  0.0802
20364W        W37888   9.233   6.031  12.278  0.1037  0.0191  0.0234
20365W        W37889  12.519   2.354   0.069 -0.1779 -0.0108 -0.0004
20366W        W37890  11.146   6.733  12.066 -0.1346  0.1289 -0.0337
20367W        W37891  16.752  13.649   2.662  0.0262  0.1192  0.0281
20368W        W37892   3.085   7.571  11.053 -0.1001 -0.0397 -0.0055
20369W        W37893  12.362  14.567  12.024 -0.1524  0.0766 -0.1072
20370W        W37894  11.752   3.515  14.232 -0.1247 -0.3963 -0.0772
20371W        W37895  13.170   7.883  12.020 -0.1329 -0.0463 -0.2987
20372W        W37896   6.619  14.683  11.654 -0.0818 -0.0840  0.2874
20373W        W37897   9.560   8.680   9.995  0.0100 -0.0781 -0.1344
20374W        W37898   4.620   2.986   0.503  0.1962 -0.0136 -0.2283
20375W        W37899  16.104  17.226   0.201 -0.0765  0.0763 -0.2275
20376W        W37900   6.741   8.145  11.775 -0.0663 -0.0825 -0.0616
20377W        W37901   8.689   1.943  12.109 -0.0860 -0.1750  0.1893
20378W        W37902  11.586  15.797  12.300 -0.3458 -0.0948 -0.0401
20379W        W37903  10.164   1.422   2.578  0.0538  0.4223 -0.0364
20380W        W37904   8.168  15.701  12.588 -0.0005  0.1130 -0.0414
20381W        W37905   4.445  17.344  13.575  0.1749 -0.1233 -0.1658
20382W        W37906   2.570  17.527  12.820  0.0171 -0.0078 -0.0072
20383W        W37907   5.400   0.946   2.183  0.0895 -0.1600 -0.0751
20384W        W37908  14.116   9.653  12.303 -0.2544 -0.0243 -0.1326
20385W        W37909  16.956   3.734  12.353  0.1497  0.2769 -0.0996
20386W        W37910   0.104  10.596  12.621  0.3133  0.1274  0.0623
20387W        W37911   1.213   9.119  13.311  0.3311 -0.0972  0.0177
20388W        W37912   6.702   5.119  13.848 -0.2335 -0.1288 -0.2228
20389W        W37913  16.093  17.565   5.471  0.2157  0.1709 -0.1765
20390W        W37914   6.226  10.705  13.969  0.0119 -0.1502 -0.1166
20391W        W37915  14.784   5.817   2.162  0.0817  0.1005  0.0333
20392W        W37916  17.349  14.227   4.496  0.0086 -0.2139  0.1263
20393W        W37917  12.174   4.288  10.728 -0.1225  0.1841 -0.0759
20394W        W37918  17.679  10.601   1.226 -0.2851  0.1829  0.1846
20395W        W37919  17.423  16.636  14.383  0.2332  0.1459  0.0551
20396W        W37920  10.206   1.225  15.276  0.1331  0.1819  0.1755
20397W        W37921   3.465  10.490   3.543 -0.2478  0.0913 -0.3611
20398W        W37922  15.314   3.378  12.556  0.0699 -0.4257 -0.1187
20399W        W37923  11.924   7.176  14.307 -0.0150 -0.0216  0.1204
20400W        W37924   3.372   7.012  11.941 -0.0472  0.0488  0.0800
20401W        W37925  10.681  14.324   6.603 -0.0598 -0.2689 -0.0897
20402W        W37926   2.874  11.101  14.861  0.3475 -0.1242 -0.1822
20403W        W37927  14.814  12.839  15.147 -0.2727  0.0735 -0.0325
20404W        W37928   3.726  17.709  14.730 -0.1841 -0.2741 -0.3214
20405W        W37929  11.960   6.568   3.659  0.1420  0.0408  0.1483
20406W        W37930  16.168   7.002   0.599 -0.1372 -0.2409  0.1052
20407W        W37931  13.150  17.237   4.845  0.2959  0.0633 -0.5032
20408W        W37932  17.387   9.530   0.445  0.4158 -0.0054 -0.3056
20409W        W37933   8.854  16.555   1.132 -0.2339 -0.0353  0.0603
20410W        W37934   8.768   2.847   0.675  0.1062  0.1254  0.0401
20411W        W37935   7.791   3.359  11.061 -0.0928  0.1005 -0.2387
20412W        W37936  13.111   4.110   2.742  0.2053  0.0315 -0.1297
20413W        W37937   9.776  14.091   0.329 -0.0693  0.0330  0.1278
20414W        W37938  18.388   3.900  14.768 -0.0459  0.0707  0.3874
20415W        W37939  16.557  14.403   0.369  0.1034  0.1158  0.2416
20416W        W37940  18.143   6.881   2.957  0.0071  0.1583 -0.2716
20417W        W37941   3.318   7.039   1.748  0.2554 -0.2136 -0.1753
20418W        W37942   1.073  11.087  11.411 -0.0388 -0.0398 -0.0587
20419W        W37943   8.158   5.378   5.386 -0.2830  0.2302  0.2582
20420W        W37944   1.729   2.247   1.100  0.3110  0.0863 -0.3952
20421W        W37945   1.880   0.020  15.166 -0.2686  0.0380  0.2201
20422W        W37946   3.924  10.057   0.664  0.0700  0.2055  0.3432
20423W        W37947  16.919  15.237   2.738 -0.0388  0.2851  0.0236
20424W        W37948   5.844   9.414   3.397  0.0394  0.0326 -0.0949
20425W        W37949  15.116  15.119   3.377  0.3408 -0.0653 -0.3434
20426W        W37950   7.839   2.229  13.345 -0.1933  0.0257 -0.1332
20427W        W37951   0.631  15.536   1.234 -0.1036  0.2997 -0.1184
20428W        W37952   4.955  17.465  15.696 -0.0718 -0.1313 -0.1358
20429W        W37953  11.452   6.282  13.454 -0.0857 -0.0803 -0.0233
20430W        W37954  12.334   5.532  11.799  0.1124 -0.0926 -0.1753
20431W        W37955   0.510  10.090  14.949  0.3454  0.0377  0.2436
20432W        W37956  13.803   9.856   3.325  0.2419  0.0853  0.2015
20433W        W37957   4.528  15.477  11.696  0.0775  0.0722 -0.1539
20434W        W37958  10.294  11.712  11.389 -0.0735  0.0910  0.0091
20435W        W37959   3.849   4.718   3.638  0.0574  0.1262 -0.4555
20436W        W37960  13.545   3.354   1.251 -0.2848  0.0659 -0.2731
20437W        W37961   6.793  10.970   3.369 -0.0619 -0.2906  0.1336
20438W        W37962   5.774   1.050  11.647 -0.1782  0.1012  0.1810
20439W        W37963   8.231   3.098   3.365 -0.3563 -0.2069  0.1539
20440W        W37964   7.601   8.068   0.855  0.2184 -0.0129 -0.1345
20441W        W37965  17.726   2.926  12.589 -0.0659 -0.1578  0.0211
20442W        W37966  10.344  17.537   0.331 -0.1336 -0.0872  0.0601
20443W        W37967   9.814   9.758  14.968  0.0034  0.4045  0.1299
20444W        W37968  14.039  11.050   3.998  0.0066  0.0535 -0.0479
20445W        W37969   7.800   9.093  11.266 -0.0219 -0.2432 -0.1147
20446W        W37970   9.526   3.828  11.874 -0.0935 -0.0734 -0.0257
20447W        W37971   2.444  10.638   0.493  0.0364  0.0060 -0.1561
20448W        W37972   0.026   9.365  15.619  0.0242  0.2194  0.0149
20449W        W37973   7.220   7.061   2.972  0.0348 -0.1746  0.3632
20450W        W37974   7.283  17.693   3.508 -0.0259  0.0718  0.0115
20451W        W37975   0.187   5.646  10.981 -0.1402 -0.0684  0.0145
20452W        W37976  18.435   8.406   4.503 -0.0335  0.0198 -0.1481
20453W        W37977  13.783   4.773  14.906 -0.0625  0.0750  0.2917
20454W        W37978  18.020   5.451  11.232 -0.2358 -0.0381  0.1895
20455W        W37979   8.978   6.781  13.785  0.0707 -0.0385 -0.2319
20456W        W37980   7.209  10.260   0.223 -0.1732 -0.0998 -0.0828
20457W        W37981   2.207  13.739   4.028 -0.0818 -0.0152  0.0780
20458W        W37982   0.240  13.096  10.115  0.1137  0.1733 -0.1207
20459W        W37983   0.084   9.812   2.320  0.1138 -0.1269 -0.0653
20460W        W37984   8.755   6.236   2.325  0.0960  0.0365 -0.2473
20461W        W37985   4.328   6.683  13.439 -0.0733  0.3033 -0.0748
20462W        W37986   5.411  13.392  11.582 -0.0564 -0.0055  0.0078
20463W        W37987  15.417   2.088  12.815  0.0817 -0.0084  0.3182
20464W        W37988   7.648   7.659   1.534 -0.0504  0.1532 -0.0106
20465W        W37989   2.697   1.995  12.886 -0.0159 -0.0983  0.0386
20466W        W37990   5.892   1.842  13.136 -0.2879 -0.1828  0.0326
20467W        W37991   4.846   6.758  13.163  0.3045 -0.2547 -0.0949
20468W        W37992  13.112  18.481  12.513  0.0852 -0.0408  0.0438
20469W        W37993  14.985   1.899  13.728  0.2254 -0.1344  0.1298
20470W        W37994  15.684   2.877   0.430  0.0974  0.3370 -0.0750
20471W        W37995  13.522  17.310  14.353 -0.2402 -0.2313 -0.0440
20472W        W37996  15.607  12.091  15.381  0.1072  0.0630 -0.1388
20473W        W37997  11.574  14.978   4.813  0.1543  0.0400 -0.4127
20474W        W37998   0.117  11.555  15.268  0.3452  0.1160 -0.0822
20475W        W37999  14.616  12.369   4.327  0.0011  0.0127 -0.0129
20476W        W38000   8.217  17.687   0.054  0.1221 -0.4485 -0.1096
20477W        W38001  14.571   3.671   1.497 -0.1262  0.3434 -0.0217
20478W        W38002   6.662  13.303  15.177  0.2976 -0.1836  0.0082
20479W        W38003  11.931  12.028   2.096  0.1706  0.1197 -0.1822
20480W        W38004  13.254   9.119   4.637 -0.2286  0.1520  0.0190
20481W        W38005   5.942  14.046  12.424  0.1855 -0.0334  0.0199
20482W        W38006   3.921   2.336  14.211  0.0433  0.0983 -0.0208
20483W        W38007  16.739  17.104  10.425  0.4036  0.1650  0.1290
20484W        W38008  16.653  15.359   3.667  0.1976 -0.0627 -0.1706
20485W        W38009  18.136  18.348   3.246 -0.1749  0.1975  0.0657
20486W        W38010   0.770  16.847  14.562 -0.1151 -0.0492  0.1447
20487W        W38011  11.279   0.330  13.074  0.0048  0.0513  0.0472
20488W        W38012   5.645   9.303   1.755 -0.3395  0.0262  0.3894
20489W        W38013   0.270  17.072   4.200 -0.1049 -0.0282 -0.1667
20490W        W38014   4.831   2.344  13.850 -0.1857 -0.1630 -0.1268
20491W        W38015  14.232  15.180  13.080 -0.0612  0.1985 -0.0031
20492W        W38016   9.706   4.222  14.727  0.3801  0.0944  0.1681
20493W        W38017  10.470   3.615  13.075 -0.2562 -0.0576  0.1403
20494W        W38018  13.031   2.862   0.653  0.4227 -0.0450  0.3842
20495W        W38019   2.107  13.484  12.094 -0.0530 -0.2102 -0.2741
20496W        W38020  13.424   2.736   1.026 -0.0421  0.1479 -0.3461
20497W        W38021  12.908  12.125   0.014 -0.0619 -0.0776  0.3877
20498W        W38022  10.655   2.367  13.594 -0.0971 -0.2401 -0.0615
20499W        W38023   5.397   5.097   0.212  0.0074  0.3476  0.1164
20500W        W38024  18.261  17.360   0.138  0.2774 -0.2794 -0.0805
20501W        W38025  12.974  14.505   1.906 -0.1190 -0.1937 -0.2515
20502W        W38026  15.311   4.920  14.642 -0.4794  0.2647 -0.1037
20503W        W38027   9.848  11.974   0.849 -0.0204  0.1048 -0.3296
20504W        W38028  14.669  15.190  14.795 -0.2889  0.1277  0.0255
20505W        W38029  13.411  11.520   0.974  0.2899 -0.1528  0.3369
20506W        W38030   1.037  10.377  14.869  0.2423  0.1546 -0.4385
20507W        W38031   9.326   6.874   4.691  0.0323 -0.3529 -0.1010
20508W        W38032   0.135  11.241   2.711 -0.2298  0.1065  0.2402
20509W        W38033  17.075  18.339  14.009  0.2453  0.1457  0.3706
20510W        W38034   9.914   7.765  14.052  0.0366 -0.1081  0.1166
20511W        W38035   2.620  18.006  11.492  0.3009 -0.1467 -0.1097
20512W        W38036   0.844   3.618  15.285  0.0244 -0.2456 -0.2627
20513W        W38037  12.748   1.843   0.076  0.1765 -0.1295 -0.0371
20514W        W38038  11.684  10.762   0.781  0.1307  0.0130  0.0420
20515W        W38039   6.083   9.559  11.451 -0.3029 -0.1219 -0.0451
20516W        W38040   8.903  12.227   4.210 -0.0668  0.0171 -0.0245
20517W        W38041   7.059   2.608   5.227  0.0109  0.0259 -0.0123
20518W        W38042   7.055   9.481   0.505 -0.0694 -0.3059 -0.1836
20519W        W38043  18.161   1.193  15.490 -0.1489 -0.0242  0.2550
20520W        W38044  10.112   4.014   2.463  0.0371 -0.0152  0.1104
20521W        W38045   3.580   4.980   0.814  0.2839 -0.1644 -0.1240
20522W        W38046  10.247  17.230  12.854  0.2032  0.2368 -0.0725
20523W        W38047   8.250   2.380   2.362  0.0415 -0.1901  0.3111
20524W        W38048  10.347   6.102   2.782 -0.1220 -0.2036  0.3155
20525W        W38049   2.115  10.136   0.722  0.2379  0.0549 -0.5406
20526W        W38050   2.643   7.098  12.239 -0.1108  0.0564  0.1800
20527W        W38051  10.612   1.408   4.260  0.2235  0.0327  0.1899
20528W        W38052  10.876  11.310  11.632 -0.1545  0.2217 -0.0482
20529W        W38053   4.233   7.404   4.713  0.0755  0.2748 -0.0787
20530W        W38054  16.327  11.980   2.947  0.2868 -0.0378  0.0960
20531W        W38055  11.895   7.351   2.805  0.0224 -0.0758 -0.2596
20532W        W38056   1.713   6.763   3.390  0.1139  0.1405  0.1226
20533W        W38057   9.014   9.630   2.480  0.0979  0.3753  0.0531
20534W        W38058  13.793  12.837   4.819  0.0405  0.0651  0.1340
20535W        W38059  11.730  16.418  11.675  0.1780  0.0952  0.1133
20536W        W38060  14.559   0.518   3.495  0.2868  0.0853 -0.0230
20537W        W38061  18.087   1.678   4.469 -0.2427  0.6347 -0.4087
20538W        W38062   9.355   0.097  11.861  0.4840 -0.0272 -0.1003
20539W        W38063   5.593  13.872  11.292  0.0010  0.1928 -0.0726
20540W        W38064  15.856   7.272   0.876 -0.2022 -0.0971  0.5170
20541W        W38065  17.633   9.384  15.323 -0.2300 -0.2446  0.2470
20542W        W38066   2.762  17.887   4.595 -0.2759  0.0612  0.1798
20543W        W38067  10.990   4.769  11.374  0.2146  0.0814 -0.2921
20544W        W38068   3.663  16.977  12.455 -0.0963  0.0643 -0.3278
20545W        W38069   5.958   3.580  15.380 -0.2438  0.3388  0.1232
20546W        W38070   8.778  17.485  13.278 -0.0443  0.4167 -0.2208
20547W        W38071  13.372   2.405   0.073  0.1906 -0.3386 -0.1841
20548W        W38072   1.935  10.598  13.869  0.1981  0.0209  0.1172
20549W        W38073   4.870  16.568  13.699  0.0524  0.0903 -0.1157
20550W        W38074   8.831  14.103   3.633 -0.0246  0.1600  0.1192
20551W        W38075   8.697  11.229   2.669 -0.1569  0.2668 -0.2519
20552W        W38076   6.854   6.853   3.964 -0.4719  0.0538  0.2651
20553W        W38077   8.576   6.238  13.075 -0.0730 -0.3224 -0.2922
20554W        W38078  11.084  14.071  12.937 -0.3480  0.1030 -0.0160
20555W        W38079   9.886   7.019  12.624 -0.4801 -0.1024  0.1391
20556W        W38080  18.439   4.009   3.419 -0.1270 -0.1966  0.1141
20557W        W38081  13.808   0.856  11.109  0.4683 -0.0750 -0.0694
20558W        W38082  17.225  18.182  12.925  0.1487  0.0112  0.3128
20559W        W38083   1.359  10.453   3.134  0.3792 -0.0823  0.0223
20560W        W38084   6.573   3.000  14.251 -0.1472  0.1833 -0.2367
20561W        W38085  11.790   6.538  13.914 -0.1407 -0.1830 -0.4118
20562W        W38086   9.543   3.503   4.028  0.1540 -0.0368 -0.0777
20563W        W38087   0.411  15.525   2.543  0.3368  0.1992  0.2987
20564W        W38088   9.617   9.432  14.661  0.2249  0.0853 -0.0612
20565W        W38089  14.069   7.706   2.778 -0.1749 -0.1677  0.0861
20566W        W38090   0.186   3.606   0.200  0.0119 -0.0048  0.1032
20567W        W38091   5.647  18.463  15.067 -0.2137  0.1532  0.0577
20568W        W38092  12.933  15.543   1.957 -0.1391  0.4106 -0.0581
20569W        W38093  13.338  12.813  13.222  0.0860  0.2355  0.0279
20570W        W38094  14.275   6.165   1.217  0.0214  0.2779 -0.2574
20571W        W38095   5.978  10.578  15.658 -0.0855 -0.0573 -0.1248
20572W        W38096   4.335   2.404   2.149 -0.0471 -0.0076 -0.2438
20573W        W38097  11.481   0.485   4.172  0.3154 -0.1529 -0.0881
20574W        W38098  11.565   0.909   4.432 -0.2988 -0.0487  0.0442
20575W        W38099   1.776   0.129  11.625 -0.1686  0.0594 -0.1063
20576W        W38100   2.107  16.427   4.717 -0.2127  0.2766  0.1727
20577W        W38101  16.351  12.451  14.954  0.0024  0.1887  0.2128
20578W        W38102  10.507   5.551   1.339  0.2874 -0.1269  0.0290
20579W        W38103   0.492   5.366  14.023  0.0751  0.1237 -0.0413
20580W        W38104  12.379  11.724   4.090 -0.3663  0.0664  0.0770
20581W        W38105   9.577   9.300   1.909  0.0977 -0.0544  0.1966
20582W        W38106   8.027   7.965   1.737  0.0757 -0.0642  0.3279
20583W        W38107   7.710  16.017   2.792 -0.0454 -0.1421  0.2663
20584W        W38108  11.127  11.220  15.057 -0.0938 -0.0384  0.0436
20585W        W38109   2.905   2.596  12.651 -0.0630  0.2548  0.2560
20586W        W38110   6.373   0.117  11.850 -0.0902 -0.0203 -0.0112
20587W        W38111   6.016   2.294   4.480 -0.0013  0.2626  0.4279
20588W        W38112  16.495  14.932  14.649 -0.2023 -0.2196 -0.0375
20589W        W38113  16.408  11.882  12.691 -0.0136  0.1469 -0.0690
20590W        W38114  12.991  10.362   4.034 -0.0069 -0.1003  0.0122
20591W        W38115  14.229   4.449  11.291 -0.0106  0.2291 -0.0614
20592W        W38116   2.703   3.249  15.666 -0.0810 -0.1431  0.0245
20593W        W38117  10.673   4.768   1.717 -0.0376 -0.1986 -0.0893
20594W        W38118   9.258   9.052  15.225 -0.0010 -0.0763 -0.0226
20595W        W38119  16.937   9.785   3.375  0.0648 -0.0403  0.0105
20596W        W38120  13.729   2.084   3.296  0.2292 -0.0245 -0.0711
20597W        W38121   0.933  16.995   3.481  0.0438  0.0246 -0.0279
20598W        W38122   5.686   8.612  13.794 -0.2458  0.4019  0.1371
20599W        W38123  14.612  15.831   4.080 -0.2109 -0.2771  0.1937
20600W        W38124   6.850  13.527   1.055 -0.1122 -0.1047 -0.2455
20601W        W38125   5.138   3.192  15.585 -0.1567 -0.0415 -0.2236
20602W        W38126   9.886   4.821   3.810 -0.0745 -0.0187  0.3277
20603W        W38127  16.362   6.163   4.482  0.3199  0.1902 -0.2073
20604W        W38128   0.304   3.483  15.465 -0.3915 -0.0985  0.2694
20605W        W38129  14.655  13.117  15.519 -0.1309 -0.1952 -0.1367
20606W        W38130  17.106   8.880   1.052 -0.1247  0.1433  0.3996
20607W        W38131   8.201   6.277  11.588 -0.0274  0.1648  0.4568
20608W        W38132   8.149  17.754   2.355 -0.1129 -0.1517 -0.1735
20609W        W38133  16.100   6.240   2.485 -0.1574 -0.2442 -0.0854
20610W        W38134   4.885   2.849   0.166 -0.3611  0.0889 -0.1983
20611W        W38135  10.132   5.421   2.127  0.0462  0.0200 -0.2740
20612W        W38136  12.625  17.404   3.380 -0.0182 -0.1689 -0.1899
20613W        W38137  11.521  12.953  13.037 -0.1100 -0.0852  0.2505
20614W        W38138  15.763   4.270   3.393  0.0739 -0.3750 -0.0065
20615W        W38139  17.940   5.105  15.049 -0.0142 -0.2609 -0.1181
20616W        W38140  12.423   2.544   1.359 -0.0091 -0.0403  0.1040
20617W        W38141  10.498   5.544  15.223 -0.1414 -0.0994 -0.0881
20618W        W38142   7.439  12.611  11.252 -0.2201 -0.1130 -0.1200
20619W        W38143   6.104  16.905   2.627  0.0235 -0.2167  0.0349
20620W        W38144   0.542   9.766  12.367 -0.3304 -0.0072 -0.1625
20621W        W38145   7.655  12.376   0.366  0.1664  0.0254  0.0453
20622W        W38146   9.827   5.708   3.330  0.1978  0.0062  0.1844
20623W        W38147  15.297   0.193   0.855 -0.1706  0.0511  0.1624
20624W        W38148   6.202   3.597   1.955 -0.2454 -0.0318 -0.2148
20625W        W38149  11.988   0.398   5.414 -0.2789  0.0056 -0.1918
20626W        W38150  18.154   1.133  13.332 -0.0029  0.0095  0.1242
20627W        W38151  10.481  15.791  12.998 -0.0853  0.1932  0.2198
20628W        W38152   3.082  11.344   4.109  0.0394 -0.0850 -0.0667
20629W        W38153  12.196  17.709   1.091  0.0443  0.3901 -0.1501
20630W        W38154  12.832   1.110  13.682  0.0319 -0.1845  0.1485
20631W        W38155   2.252   5.986   0.809  0.0976  0.0134 -0.0827
20632W        W38156   9.371  10.807   0.664 -0.1459  0.1165 -0.2732
20633W        W38157  15.202   7.362   4.682 -0.1801 -0.1400  0.0662
20634W        W38158  17.322   0.501  13.225  0.2624  0.0570 -0.2712
20635W        W38159  15.028   1.168  14.959 -0.0860 -0.3709  0.0725
20636W        W38160   1.297  17.907   3.028  0.2442  0.0644 -0.0296
20637W        W38161  13.627   4.598  14.462  0.0870 -0.0969 -0.0940
20638W        W38162   3.939  17.135   2.723  0.3026  0.0634 -0.4196
20639W        W38163  11.203  12.374  12.946 -0.0977 -0.1075  0.2781
20640W        W38164   5.432   2.126  14.466  0.0006 -0.0376  0.2465
20641W        W38165   7.832  16.791  11.179  0.1314  0.0450 -0.1284
20642W        W38166  10.992   5.498   4.159 -0.4508  0.0354 -0.2726
20643W        W38167   5.363  12.121   3.591 -0.2387 -0.1350  0.0860
20644W        W38168   2.992  17.657   2.136  0.5417 -0.0075  0.2590
20645W        W38169   0.848   3.167  13.384  0.1628 -0.3169 -0.1191
20646W        W38170  11.267  13.152   2.217  0.2215 -0.1786  0.1417
20647W        W38171   5.486  18.256   5.040  0.2874  0.4316  0.1835
20648W        W38172  13.659  12.305  12.534  0.0845 -0.3959 -0.0164
20649W        W38173   3.586  14.271   1.475 -0.0381 -0.1546 -0.3346
20650W        W38174  16.997  14.796  14.737 -0.2293  0.1893 -0.1805
20651W        W38175   4.003  11.044   1.076  0.3150 -0.0437  0.0055
20652W        W38176  18.176  11.987   1.676 -0.2464 -0.1721  0.2899
20653W        W38177   3.674   9.930  14.091  0.1381 -0.2268 -0.0301
20654W        W38178  10.984   4.703  10.684  0.1113 -0.0826 -0.1495
20655W        W38179   1.176  16.787   5.877 -0.0913  0.1937 -0.1508
20656W        W38180  14.087  13.297  14.575 -0.1508  0.3457 -0.0747
20657W        W38181  17.486  16.165  14.117  0.4101  0.0435 -0.0173
20658W        W38182  10.268  14.341  13.526  0.0464 -0.1458  0.0081
20659W        W38183   5.432  13.320   3.488  0.2503  0.2189 -0.1290
20660W        W38184  13.327   4.319  11.039  0.1164  0.3011  0.0326
20661W        W38185   0.773  14.699  12.390  0.0999  0.1380 -0.0027
20662W        W38186   7.192  14.938   1.195 -0.0829  0.0960 -0.3847
20663W        W38187  11.916   6.485   0.529  0.0705 -0.3779  0.4364
20664W        W38188  14.092   1.644  12.251  0.2930  0.4142  0.0703
20665W        W38189   9.282  11.642  14.909 -0.1644 -0.1051  0.0767
20666W        W38190  12.302   6.708   5.042  0.2981 -0.2546 -0.1861
20667W        W38191   7.191  12.348  13.834 -0.2564 -0.2231 -0.2925
20668W        W38192  17.201   9.319  14.274  0.0317 -0.2377  0.0549
20669W        W38193   9.809   5.558  10.991 -0.2188 -0.3148  0.1409
20670W        W38194   1.163  10.517  15.375  0.0606 -0.1245  0.1096
20671W        W38195  17.914  11.571   2.096  0.2400 -0.1330  0.0639
20672W        W38196  16.290   7.833   2.742  0.0878  0.1340 -0.0095
20673W        W38197  10.334  10.971   0.724  0.2546  0.2233  0.0055
20674W        W38198   3.501   3.923   3.154 -0.1119  0.0696  0.0585
20675W        W38199  11.469   1.986  15.117  0.2069  0.0120  0.4302
20676W        W38200   3.859   0.893   3.892 -0.0431 -0.0138 -0.0199
20677W        W38201  10.508   2.751   2.955  0.1460  0.3780 -0.2504
20678W        W38202  10.256  15.354  11.883 -0.3480  0.3455  0.4172
20679W        W38203  16.052   8.204  13.571 -0.1056  0.3884 -0.1477
20680W        W38204   3.230  18.278  14.110 -0.1387 -0.1358 -0.0048
20681W        W38205   0.044   0.107   3.558 -0.0644 -0.3384  0.0994
20682W        W38206   9.332  16.419   4.896  0.1337 -0.1471  0.2868
20683W        W38207   9.727   2.557  14.712  0.0882 -0.2165 -0.0787
20684W        W38208   8.467  12.400  15.596  0.4032 -0.2026  0.4361
20685W        W38209   2.463   3.158   0.802  0.0640  0.3245 -0.0652
20686W        W38210   4.283   6.589  14.910 -0.3062  0.0189  0.1942
20687W        W38211  11.125  18.439  11.509  0.0824 -0.2805  0.1647
20688W        W38212  15.467  12.596   2.109  0.1020 -0.0578  0.2270
20689W        W38213   3.250  17.887   1.588 -0.1673 -0.0293 -0.0510
20690W        W38214  17.135   6.698   4.585 -0.0398 -0.1833 -0.2107
20691W        W38215  10.943  14.575  15.088 -0.0108 -0.2332  0.4138
20692W        W38216   3.639  14.976   0.882  0.2342 -0.1256  0.1796
20693W        W38217  11.422  15.431  13.566 -0.1236 -0.1941 -0.0519
20694W        W38218  11.947   6.818   1.439 -0.3064 -0.0409  0.1546
20695W        W38219   2.697  11.562  10.638 -0.1887 -0.0427  0.1359
20696W        W38220   4.976   9.450   1.085 -0.0228 -0.2714  0.0819
20697W        W38221  17.148   1.193  14.515 -0.0519  0.0993  0.0665
20698W        W38222  15.166   6.994   0.482 -0.3775  0.2348  0.1266
20699W        W38223  10.694  17.445  13.127  0.0838 -0.1863  0.1246
20700W        W38224   7.818   2.176  15.457 -0.2209  0.0271 -0.3538
20701W        W38225  12.636   8.039  15.718 -0.2980 -0.0803 -0.1949
20702W        W38226  12.001   2.311   3.413 -0.1383  0.2314  0.2412
20703W        W38227   4.085  16.620  12.495 -0.0165  0.1504  0.0048
20704W        W38228  17.897   6.334  12.578 -0.0707  0.2117 -0.1275
20705W        W38229   3.873   3.615  10.831 -0.3757  0.0143 -0.1569
20706W        W38230   9.406   4.855  14.166  0.3692 -0.2045  0.0194
20707W        W38231   2.251   4.498   0.743 -0.1089  0.1808  0.0490
20708W        W38232   4.652   7.342   0.292  0.0947  0.3620  0.0426
20709W        W38233   1.078   3.118   1.748 -0.2243 -0.0544  0.3987
20710W        W38234   3.239  13.175  15.713  0.1206  0.0123 -0.1709
20711W        W38235  10.654  16.564   0.676  0.0776 -0.2726 -0.1517
20712W        W38236  14.650  14.379   1.131 -0.1731 -0.0449  0.0429
20713W        W38237   4.741  13.531  12.343 -0.1868 -0.0596 -0.2904
20714W        W38238  12.867   8.210   4.170  0.2948 -0.1662 -0.1346
20715W        W38239   5.504   0.087   0.152  0.0786 -0.1020  0.2581
20716W        W38240   1.860   8.332   1.427  0.1006  0.1686  0.1229
20717W        W38241  13.053   3.950  12.604 -0.0176 -0.0082 -0.1837
20718W        W38242   9.610  17.067   3.193 -0.0969  0.3428  0.1846
20719W        W38243   4.453   4.269   0.612  0.0581  0.0848 -0.0647
20720W        W38244   0.041   1.225  11.005  0.1352 -0.3928 -0.0091
20721W        W38245  17.885  10.059   2.034  0.0796  0.1123 -0.1983
20722W        W38246  12.973   2.045   0.472  0.0851  0.1226  0.1419
20723W        W38247  13.022  13.171  13.033 -0.0133 -0.0521 -0.1903
20724W        W38248   4.826  17.805   5.241 -0.1352  0.3712  0.1631
20725W        W38249   2.956   7.386  13.971  0.3895 -0.2845 -0.3879
20726W        W38250  13.224   9.290   2.597 -0.5072  0.2666  0.0514
20727W        W38251   9.851   7.312  10.774  0.2834  0.3480  0.1060
20728W        W38252  11.990   0.719   4.119  0.1022 -0.1920  0.2365
20729W        W38253  14.132   9.713  13.795 -0.1857 -0.1302 -0.2636
20730W        W38254   7.607  13.120  14.828  0.1390  0.4318  0.1521
20731W        W38255   5.197   8.900   2.455 -0.0984  0.1176  0.0903
20732W        W38256   8.784   0.436   3.768 -0.1491 -0.1736  0.0137
20733W        W38257   3.259   9.623   0.278  0.1663 -0.2033 -0.3100
20734W        W38258   7.977  10.497   4.453 -0.0220  0.0896  0.2766
20735W        W38259   6.320  13.952  15.460  0.0524  0.0662  0.2895
20736W        W38260   0.350   7.437  13.606  0.0092 -0.2948 -0.0650
20737W        W38261   3.337   5.854  15.228 -0.2200 -0.1322  0.1077
20738W        W38262   9.845   8.442   1.745  0.0474 -0.0563  0.1161
20739W        W38263  11.571  17.795  15.421  0.0209 -0.1965  0.0877
20740W        W38264   0.738  18.011  12.916 -0.1702 -0.2459  0.1766
20741W        W38265   6.759  13.882  12.862  0.0221  0.1959 -0.2287
20742W        W38266  15.576  15.019   1.067 -0.3171 -0.0021 -0.1634
20743W        W38267  11.256  15.633  15.518 -0.1745  0.1153  0.4498
20744W        W38268   3.199   9.144   3.403  0.2306 -0.2372 -0.2463
20745W        W38269  14.922   6.562  12.325 -0.2496 -0.1435 -0.6569
20746W        W38270  14.812  17.886  14.558  0.0255  0.0290 -0.0891
20747W        W38271  16.987  14.451  14.398  0.0369  0.1959 -0.0598
20748W        W38272  10.996  12.262  14.789  0.2081 -0.0287  0.1668
20749W        W38273   7.058   2.549   1.076  0.4656  0.1448  0.1229
20750W        W38274  16.822  12.251  12.515 -0.3500 -0.2432  0.3123
20751W        W38275   8.312  10.249  10.570 -0.4110  0.0478 -0.1731
20752W        W38276  10.980   1.812   0.762  0.1326 -0.0953  0.2494
20753W        W38277   5.740  12.832   0.512  0.3421  0.0026 -0.3345
20754W        W38278   5.445  13.557  14.260 -0.0099 -0.1875 -0.1175
20755W        W38279  10.894  13.980   2.202  0.1634 -0.0909  0.2677
20756W        W38280   0.033   8.229   3.377  0.4011 -0.0684  0.3331
20757W        W38281   8.372  13.366   3.395 -0.2114  0.2352  0.1909
20758W        W38282  15.560   2.350   2.554 -0.2136 -0.1583  0.0717
20759W        W38283   8.936   6.407   4.061  0.0570 -0.0077 -0.1772
20760W        W38284  17.799   5.304  13.526 -0.0689 -0.0294 -0.0305
20761W        W38285   6.326   5.423  13.699 -0.0059  0.1295  0.0844
20762W        W38286  14.644   5.690  11.589 -0.0734  0.0720  0.0010
20763W        W38287   1.875   6.441  12.595 -0.1607 -0.1034  0.0569
20764W        W38288  11.208  12.065   1.379 -0.0413 -0.0299  0.1089
20765W        W38289  15.638   7.788  12.100 -0.0526 -0.1952 -0.0133
20766W        W38290  10.099  10.771  10.954  0.0002 -0.0118 -0.0105
20767W        W38291  17.348   9.320  10.875  0.1173  0.1021 -0.1024
20768W        W38292   7.254   9.125  11.101 -0.0022 -0.0856 -0.1284
20769W        W38293  12.403   3.732   0.729 -0.1294  0.2852 -0.0088
20770W        W38294  12.127  14.404   3.104 -0.0936  0.0506 -0.3148
20771W        W38295   1.178  18.434   1.890 -0.0513  0.3454 -0.0883
20772W        W38296   3.171  16.171  14.618 -0.1741 -0.1403 -0.2077
20773W        W38297   4.264  18.380  12.338 -0.1388  0.0422 -0.0934
20774W        W38298  14.219  12.490   2.410  0.0812  0.1136 -0.3865
20775W        W38299   8.784   0.005   1.937 -0.2910  0.2029 -0.0285
20776W        W38300  14.034  15.152   1.022 -0.0929  0.2626 -0.1904
20777W        W38301  10.465   0.024  14.736  0.3255 -0.2740 -0.0902
20778W        W38302  16.032   2.370   3.570 -0.1800 -0.0033 -0.2586
20779W        W38303   4.285  17.665   0.973 -0.1174 -0.1239  0.1884
20780W        W38304   7.871   8.683   1.430  0.1798  0.0868 -0.2110
20781W        W38305  10.823   0.436   3.387 -0.3094  0.0880  0.0051
20782W        W38306   2.455   4.585   3.687  0.2098  0.1192 -0.1636
20783W        W38307   0.447   6.304  15.062  0.0158 -0.2011  0.3115
20784W        W38308   5.953   4.406  11.889 -0.0638  0.2972 -0.2434
20785W        W38309   8.045   4.420  13.903  0.1944  0.2351 -0.0974
20786W        W38310  10.800  13.332   0.068 -0.0976 -0.2962 -0.5334
20787W        W38311  17.252   2.994   3.677  0.2132 -0.3222 -0.1502
20788W        W38312   8.448  12.219   2.060  0.0933  0.0727 -0.0155
20789W        W38313  15.564   2.923  12.799 -0.1304 -0.3780 -0.0205
20790W        W38314   9.665   1.087   0.434  0.2930 -0.0239 -0.0557
20791W        W38315   7.669  16.613  12.316 -0.1604  0.1122 -0.2816
20792W        W38316   1.816   8.532   3.253  0.5117 -0.2413 -0.1161
20793W        W38317  17.271  14.206  10.144  0.2607 -0.0957 -0.0798
20794W        W38318  16.683   1.424   2.229  0.0023 -0.0233  0.4115
20795W        W38319  10.785  13.460   3.083 -0.2711  0.0794 -0.2618
20796W        W38320  15.747  16.570   0.501 -0.2476  0.4506  0.0554
20797W        W38321   6.398   9.961   3.816  0.4137 -0.0946 -0.4236
20798W        W38322   8.796  13.688   1.000  0.1700 -0.1997 -0.0253
20799W        W38323  16.819  11.040  13.184  0.2991  0.1508  0.0667
20800W        W38324  11.641   1.517  13.508  0.0843 -0.0410 -0.0959
20801W        W38325  14.047   1.544   5.717 -0.2117 -0.2445  0.0341
20802W        W38326  18.137  16.511   3.188  0.0474  0.0261 -0.0510
20803W        W38327  11.215   0.903  11.787 -0.0404 -0.1520  0.1164
20804W        W38328  14.354  11.920  14.537 -0.2334  0.0135 -0.1924
20805W        W38329   2.755  12.264   0.758 -0.1312 -0.1283 -0.0236
20806W        W38330  15.889  16.943  13.355 -0.3271 -0.1624  0.1088
20807W        W38331   7.696   4.846  15.308 -0.2049  0.0075 -0.1745
20808W        W38332  14.053   9.731   4.734  0.0259  0.0019 -0.3496
20809W        W38333  16.027  16.722  11.252  0.0563  0.1130  0.0263
20810W        W38334   3.721   8.465   2.359 -0.1714 -0.0684 -0.0195
20811W        W38335   9.231  11.934   0.594  0.0695  0.1052 -0.1437
20812W        W38336   9.640   6.395  13.294 -0.0914  0.1173  0.0373
20813W        W38337   8.438  16.361   0.729  0.3054 -0.0087 -0.1424
20814W        W38338   7.127  16.088   4.915 -0.0125  0.0212  0.0254
20815W        W38339  17.365   6.562   1.150 -0.2703  0.0816  0.2038
20816W        W38340   2.064   7.867   2.034 -0.1623 -0.2288  0.3140
20817W        W38341   3.194  14.374   3.014  0.3326 -0.0639 -0.0190
20818W        W38342  11.742  14.341   5.745  0.1381 -0.0209  0.2149
20819W        W38343  16.739   0.609   5.485  0.1798 -0.3438  0.0774
20820W        W38344   1.273  10.847   0.979 -0.0163  0.1472  0.0650
20821W        W38345   2.705  12.300   2.416 -0.3806 -0.3797 -0.3226
20822W        W38346   1.849  10.243   3.327  0.3194 -0.0700  0.0414
20823W        W38347   8.951   8.863  11.903 -0.3303  0.1293 -0.3714
20824W        W38348  16.415  15.784  15.497 -0.1577  0.1060 -0.1448
20825W        W38349  17.089  11.278  14.901  0.0739  0.1234  0.2710
20826W        W38350   8.713   6.450  13.525 -0.1960  0.1864 -0.1264
20827W        W38351  17.602   0.918   1.180  0.2531 -0.2105  0.0379
20828W        W38352  17.896   1.433   4.038 -0.3031  0.0047  0.1147
20829W        W38353  12.653   4.917   0.203 -0.0698  0.0031  0.0039
20830W        W38354  11.162   1.121  15.031  0.1469  0.0859 -0.0370
20831W        W38355   0.602   0.141  12.668 -0.1393  0.0813  0.0961
20832W        W38356  16.117  17.873   1.267 -0.1591 -0.1528  0.3901
20833W        W38357   0.721   4.001  14.250  0.1170  0.0117  0.3664
20834W        W38358  10.169   8.943  11.892  0.0782 -0.0573 -0.0245
20835W        W38359  11.254   8.788  12.869  0.1780  0.0292  0.0705
20836W        W38360   1.404   8.491  15.156  0.1194  0.1289 -0.0080
20837W        W38361   7.523  13.325   0.428 -0.1165  0.1599 -0.0358
20838W        W38362   3.578  13.027  11.735 -0.1037  0.0984  0.0861
20839W        W38363   5.804   2.161   4.946  0.0205 -0.0177 -0.1064
20840W        W38364  10.169   1.853  11.464  0.0913  0.0022  0.2395
20841W        W38365  17.629  14.239  13.237  0.1136 -0.1614 -0.1246
20842W        W38366   6.238   9.738  13.515 -0.3296 -0.0215 -0.1555
20843W        W38367   1.638  17.585  15.519  0.2656 -0.0981  0.2202
20844W        W38368   0.568   0.798  11.729 -0.1257 -0.0471 -0.1423
20845W        W38369   9.707   8.874  11.664 -0.0906 -0.0281 -0.2231
20846W        W38370   2.060   7.554   3.905 -0.3383 -0.1396 -0.1954
20847W        W38371  15.260   9.010   3.886  0.0891  0.0391 -0.0642
20848W        W38372   2.031  11.998   4.271  0.2111 -0.0862  0.5353
20849W        W38373   9.584   1.616   4.846  0.2359 -0.2360 -0.2784
20850W        W38374  14.831   5.342  15.453 -0.1067 -0.0524  0.1364
20851W        W38375  13.610   7.027  10.642  0.2338 -0.1439  0.0847
20852W        W38376  17.633   6.673  14.568  0.1277  0.0804  0.3969
20853W        W38377  17.315   7.758  12.663 -0.1338 -0.2184 -0.1609
20854W        W38378   8.802  17.676   1.319 -0.2985  0.0454  0.0291
20855W        W38379   1.344   4.942  14.156  0.0797 -0.3649 -0.1023
20856W        W38380   1.252   6.508  13.380 -0.0629 -0.2369 -0.0922
20857W        W38381   2.339  14.655  14.496 -0.1424 -0.0489 -0.1716
20858W        W38382  14.746   2.535   1.217 -0.2063  0.0113 -0.0614
20859W        W38383  13.000   5.408   1.830 -0.0926  0.2037 -0.3561
20860W        W38384   5.266   3.906  15.039  0.0168 -0.2004 -0.0308
20861W        W38385   5.350  17.685  11.328  0.1451  0.2600 -0.2110
20862W        W38386  18.021   2.890  14.593 -0.2383 -0.0164  0.0248
20863W        W38387   4.494   2.285  15.485  0.2298  0.1427  0.2965
20864W        W38388  17.859  15.725   2.440 -0.1108 -0.4545  0.0231
20865W        W38389   6.357   2.546   2.007 -0.0004  0.2286 -0.0345
20866W        W38390  12.607   8.756   3.855  0.2079 -0.1110  0.3073
20867W        W38391   9.034   7.385  12.908  0.1350  0.0947  0.1012
20868W        W38392  10.605  18.407   0.049 -0.3839  0.1442 -0.0264
20869W        W38393  11.584   8.866   3.817 -0.0692  0.3227  0.0826
20870W        W38394  18.261   1.982  13.371 -0.1923 -0.1591 -0.2488
20871W        W38395   1.227  10.173   0.884  0.0539 -0.0601  0.1466
20872W        W38396  14.051  10.033   0.835  0.1977  0.1738 -0.1148
20873W        W38397   5.641   6.198  11.764  0.2705 -0.1964  0.1985
20874W        W38398  11.578  10.633  11.761 -0.3090  0.1945  0.0784
20875W        W38399   3.502   2.934  12.425 -0.1473 -0.1409 -0.1235
20876W        W38400   8.902   2.538  14.773  0.1235  0.1530 -0.0007
20877W        W38401  12.694   6.075  13.553 -0.0050 -0.0649  0.1161
20878W        W38402  15.578  14.750  11.000  0.2928 -0.0515 -0.0217
20879W        W38403   6.149  14.443   2.554  0.0854 -0.1574  0.1054
20880W        W38404  14.427  17.367  12.856 -0.3213 -0.1699 -0.1394
20881W        W38405  11.974  14.100  13.167  0.0198 -0.1125  0.0439
20882W        W38406  10.624  14.714   0.711 -0.0490  0.0372 -0.0686
20883W        W38407   3.686   9.303   0.336  0.1723 -0.1236  0.0351
20884W        W38408   6.887   5.061   3.631  0.0404  0.4789 -0.2631
20885W        W38409  11.082   5.631   1.452  0.2334  0.3212  0.0256
20886W        W38410  13.769   1.612   0.562  0.1493  0.0074 -0.2076
20887W        W38411   8.499   3.036  15.479 -0.1026 -0.3631 -0.0390
20888W        W38412   1.435  13.225   1.877  0.0307  0.1110 -0.3198
20889W        W38413  10.185  12.039  11.770 -0.1370  0.3675  0.2028
20890W        W38414   1.868  16.905   0.239  0.3222 -0.2754  0.0165
20891W        W38415   4.505  17.880  13.185  0.0373  0.3343  0.3178
20892W        W38416   6.953  13.867   0.169 -0.0167  0.0463  0.0441
20893W        W38417  12.104  10.277  11.536  0.1150 -0.2889 -0.1571
20894W        W38418  13.019   6.925   1.041  0.4633  0.1641 -0.3032
20895W        W38419  16.192  11.153  15.251 -0.0394  0.0350  0.0169
20896W        W38420   2.125  14.637   4.605  0.0632  0.1874  0.0533
20897W        W38421   1.028   1.403  14.113  0.1452 -0.0884 -0.0424
20898W        W38422  12.736  11.886  10.847 -0.0470 -0.1778  0.3422
20899W        W38423  16.788  17.594   2.595  0.0397 -0.2354  0.1054
20900W        W38424   8.081  14.568  10.223  0.2689 -0.2552 -0.0875
20901W        W38425   3.695  13.933   2.368  0.3155 -0.0290 -0.5031
20902W        W38426   7.683   1.174  15.565  0.0414  0.1996  0.2521
20903W        W38427  11.578  13.834   1.551 -0.0842 -0.5381  0.2302
20904W        W38428  18.379  13.959  13.948 -0.0443 -0.0177  0.0963
20905W        W38429   3.816   6.981   1.501  0.2792 -0.2219 -0.1420
20906W        W38430   3.288  15.994   2.907  0.3227  0.0062 -0.1371
20907W        W38431  16.952  18.023   3.846 -0.1382  0.3526  0.2937
20908W        W38432  16.337   9.332   0.799  0.1701  0.3707 -0.0823
20909W        W38433  15.747  13.007  14.447  0.1119  0.1344 -0.1513
20910W        W38434   1.185   4.483  13.347 -0.1522  0.0214 -0.1840
20911W        W38435  11.675   3.431  13.126 -0.1461 -0.1005  0.1287
20912W        W38436  11.295   6.150   2.941  0.0343  0.0595 -0.3430
20913W        W38437  15.081  12.481   2.836 -0.0367 -0.2410 -0.1577
20914W        W38438  15.178  17.233   1.208  0.1750 -0.3062 -0.1142
20915W        W38439  14.730  13.219  11.003  0.0138  0.0048 -0.0410
20916W        W38440   8.887   8.112   5.238 -0.1238  0.0694 -0.1669
20917W        W38441  13.313   0.065   2.092  0.0539 -0.1014  0.0832
20918W        W38442   8.344  11.898  15.304 -0.0183  0.1942  0.0355
20919W        W38443   0.409   6.988   4.730  0.0869 -0.2724  0.0516
20920W        W38444   6.038   5.470  12.920  0.3139 -0.2655 -0.0474
20921W        W38445   6.521   4.098  12.472 -0.0201 -0.0393 -0.3130
20922W        W38446   0.547   1.581  12.428 -0.0502  0.2896  0.3227
20923W        W38447  13.516  10.986  14.004 -0.0634 -0.1490  0.3572
20924W        W38448  12.414  15.435  11.549  0.3721 -0.4198 -0.0073
20925W        W38449   3.553   1.508   3.000  0.1671  0.0188  0.0214
20926W        W38450   8.057  12.124   4.263 -0.1026  0.0023 -0.1209
20927W        W38451   5.833  13.067  11.681  0.1163  0.1812  0.1039
20928W        W38452  13.034  16.438  15.520 -0.1399  0.0793 -0.0866
20929W        W38453  13.677   4.074  13.247  0.0408 -0.2001 -0.1062
20930W        W38454  16.023   2.273  11.122  0.1760 -0.1615 -0.0562
20931W        W38455  12.734   4.786   1.170 -0.1205  0.2784  0.5534
20932W        W38456   3.171   2.342   2.672 -0.2053  0.1440 -0.0310
20933W        W38457  15.734   0.431  12.837 -0.1401 -0.1642 -0.1573
20934W        W38458  13.955   0.793  12.409 -0.2503  0.0796 -0.0551
20935W        W38459  11.962   1.045  13.978 -0.0344  0.1910  0.2543
20936W        W38460   5.818   0.951  10.781  0.0964  0.1546 -0.0561
20937W        W38461   5.919   8.031  13.805 -0.1361 -0.0523 -0.0361
20938W        W38462  16.052   1.392  14.359 -0.2366  0.1827 -0.3169
20939W        W38463   2.088   7.355  10.743  0.0562  0.2669 -0.0578
20940W        W38464  16.271  17.704   4.482  0.2330  0.0151  0.3244
20941W        W38465  12.039  12.168  13.442 -0.1354  0.0121 -0.0474
20942W        W38466  10.127   5.087   2.616 -0.0613 -0.0136 -0.0713
20943W        W38467  16.746  16.153  11.360 -0.1168  0.1789  0.1673
20944W        W38468   0.145  12.248  10.521 -0.1406 -0.0360 -0.3110
20945W        W38469   3.169   4.986  13.305  0.3521  0.2520  0.2263
20946W        W38470   7.168  14.885   2.626  0.0416  0.0872 -0.0846
20947W        W38471   8.656   2.495   3.968  0.3604  0.0092 -0.2733
20948W        W38472  14.766  10.669   2.526  0.0384  0.0335 -0.1086
20949W        W38473  10.161  11.286   2.690  0.0345 -0.2016 -0.1757
20950W        W38474  17.691   0.298  13.524 -0.1007  0.1572 -0.2036
20951W        W38475   2.732   8.004  13.342 -0.2334  0.0052  0.3690
20952W        W38476  15.138   4.210   3.306  0.1325  0.1033 -0.1374
20953W        W38477   1.169  14.987  13.669  0.3257  0.0704 -0.3776
20954W        W38478   6.418   0.064   2.603  0.0414  0.0672 -0.3398
20955W        W38479  11.980   2.346  11.259  0.1327  0.2644  0.2307
20956W        W38480  10.096  15.969   1.789  0.1145 -0.0066  0.3198
20957W        W38481   4.890  13.145   2.185 -0.2690  0.0023  0.0823
20958W        W38482   3.230  12.797  12.070  0.1467  0.0694  0.1638
20959W        W38483   1.133   0.698  12.534  0.0160  0.0575 -0.2463
20960W        W38484   5.745   6.706   2.870 -0.1675 -0.0167  0.1014
20961W        W38485  15.897  11.346   0.092 -0.3221 -0.1403  0.2279
20962W        W38486  14.798   8.208  12.221 -0.1475  0.1406  0.3141
20963W        W38487  15.426   6.476  14.285 -0.0507  0.1751  0.0799
20964W        W38488   3.337   3.436   3.053 -0.0235  0.1736  0.1663
20965W        W38489  12.228  17.151   1.272  0.5025  0.0416 -0.4336
20966W        W38490  18.412   9.669  11.104  0.1451  0.1469  0.0813
20967W        W38491  18.228   0.857  12.220 -0.0426 -0.1458  0.1132
20968W        W38492   4.232  14.473   0.144  0.2105 -0.2094  0.0649
20969W        W38493   4.067   5.514   1.541 -0.0418  0.0588 -0.2979
20970W        W38494   7.525   7.190   1.762 -0.2877  0.2283  0.2501
20971W        W38495  15.455  13.496   0.876  0.0480 -0.3298 -0.1403
20972W        W38496  13.083   4.064  10.657  0.0548 -0.1207  0.1075
20973W        W38497   8.577  10.860  12.774 -0.0896  0.1150 -0.0139
20974W        W38498   2.244  10.232  11.408  0.1911  0.2167  0.1660
20975W        W38499  18.308  10.435   4.167 -0.0031 -0.1017  0.0848
20976W        W38500  10.620  16.920  11.273 -0.0376 -0.0887 -0.1052
20977W        W38501   7.101   4.300   4.761 -0.0935 -0.1527 -0.1627
20978W        W38502  11.135  14.736   1.719  0.0290  0.1275 -0.1883
20979W        W38503  12.560  14.306  12.376  0.0841  0.3508 -0.1236
20980W        W38504   8.690   0.287   1.458  0.0572  0.0331  0.2034
20981W        W38505  11.397   7.480  15.101  0.2943 -0.0496 -0.1184
20982W        W38506  18.174  15.335   2.081 -0.0700  0.0913  0.1167
20983W        W38507  12.009  16.529   4.289  0.0431  0.0631  0.3433
20984W        W38508  12.514   2.106  13.530 -0.2054  0.2844 -0.3120
20985W        W38509  15.385   4.647  15.048  0.1689  0.1374  0.0200
20986W        W38510  16.593  14.718  13.630  0.1520 -0.2375 -0.0081
20987W        W38511  13.545   3.284  14.771  0.0792  0.0893  0.0009
20988W        W38512  12.557  14.760   2.156  0.1043  0.0833  0.2202
20989W        W38513   8.282  12.654  13.425 -0.0267  0.0150  0.2587
20990W        W38514   7.419   7.826  10.786 -0.3058 -0.0016 -0.0839
20991W        W38515   2.656  15.945  15.195  0.0244 -0.1712 -0.0854
20992W        W38516   5.281  16.674   0.024  0.2186 -0.1052  0.2974
20993W        W38517  18.158  13.908  11.828 -0.1874 -0.3022 -0.1036
20994W        W38518  14.327   7.517   4.567 -0.0494 -0.0107  0.1317
20995W        W38519   7.163   9.822   3.817  0.1914  0.0014 -0.1797
20996W        W38520  13.972   4.603   3.437  0.1609 -0.1750  0.2421
20997W        W38521  13.421  10.494  14.139 -0.0470  0.0448 -0.1214
20998W        W38522   5.827   4.971   1.528  0.2899 -0.2346  0.0423
20999W        W38523  15.138   7.789   4.401  0.2141 -0.0177  0.0021
21000W        W38524  11.728   4.850  14.105  0.0918  0.3774 -0.0860
21001W        W38525  12.470  12.498  14.847  0.0212  0.2692  0.1011
21002W        W38526   0.413  16.262   3.843  0.1190  0.3537 -0.1455
21003W        W38527   0.235  10.179   4.325 -0.0441 -0.0129  0.0451
21004W        W38528   0.222  16.247  12.901 -0.0147 -0.0180  0.1684
21005W        W38529   3.209  10.729  13.559  0.0339  0.0815 -0.0408
21006W        W38530  15.068  10.387  15.007  0.0326 -0.3027  0.0805
21007W        W38531   2.428   3.759  12.985 -0.2154 -0.0417 -0.0342
21008W        W38532   5.074   1.392   2.249  0.2058  0.1043  0.1152
21009W        W38533   1.073   2.812  12.840 -0.2150 -0.0638 -0.1170
21010W        W38534  16.563   7.410  14.141  0.0263 -0.1139  0.1306
21011W        W38535  18.124  13.782  13.100 -0.1801  0.0535  0.1156
21012W        W38536  15.035  17.806   3.020  0.2382  0.1473 -0.0772
21013W        W38537   2.793   5.327   1.164  0.1836 -0.1140  0.1039
21014W        W38538  14.249  16.537  12.551  0.2209  0.0746  0.2606
21015W        W38539  11.316   7.265   3.519 -0.0769 -0.2059  0.0349
21016W        W38540  15.428   8.144  12.609 -0.0388 -0.2565 -0.1889
21017W        W38541  15.523  15.616   0.105 -0.3870  0.3855 -0.4670
21018W        W38542   8.920   7.762  15.335 -0.2741  0.2395  0.0027
21019W        W38543   7.798   8.925  15.675  0.0568  0.1387 -0.2407
21020W        W38544  13.743   0.516  12.917 -0.0155  0.0161 -0.0493
21021W        W38545   0.582  15.867   3.358  0.0082  0.2704  0.1786
21022W        W38546  13.439  10.104  11.382 -0.0217 -0.2515 -0.0149
21023W        W38547   3.965  15.663   1.886  0.0066 -0.2611 -0.1720
21024W        W38548   6.577  13.674   2.246  0.2654 -0.0392  0.0734
21025W        W38549  10.293  18.448   1.310 -0.0068  0.0362  0.0034
21026W        W38550  12.099   0.258   2.777  0.1546 -0.0141  0.0173
21027W        W38551   2.427   5.299  14.817  0.1406  0.2338  0.3419
21028W        W38552   0.292  17.884  14.595 -0.1206  0.0523 -0.1329
21029W        W38553  17.107   0.758  14.925  0.0382 -0.0504  0.0462
21030W        W38554   4.217   6.901   2.526 -0.2812  0.1591 -0.0961
21031W        W38555  14.471  17.968  11.224  0.0017 -0.1106 -0.0566
21032W        W38556   8.846  15.201  13.646 -0.1932  0.0411  0.1320
21033W        W38557   3.455   3.085   1.533 -0.1592  0.2303 -0.0913
21034W        W38558   2.543  18.345  13.313 -0.0865  0.1429  0.0111
21035W        W38559   7.649  12.337   2.689 -0.1821 -0.2830 -0.0484
21036W        W38560   0.047   3.785  11.382 -0.2630  0.0138  0.1129
21037W        W38561  14.650  14.178   3.106  0.2009  0.0506  0.1557
21038W        W38562  16.929   6.464  11.917  0.1031  0.2709  0.2891
21039W        W38563  16.545  14.938   5.139 -0.2390  0.2099 -0.0118
21040W        W38564   1.533   7.684   4.710  0.0025  0.0739  0.0824
21041W        W38565  12.754  13.127   1.636 -0.2243 -0.1651 -0.4267
21042W        W38566  14.591   3.245   2.312 -0.1374 -0.1530  0.0271
21043W        W38567  16.138  17.202  11.381 -0.0348  0.0740  0.0332
21044W        W38568   9.828  10.977   4.061  0.1528  0.1911  0.0639
21045W        W38569  13.609   4.991  11.842 -0.1841  0.1169  0.1892
21046W        W38570   6.625   4.279  14.534  0.2909  0.1300  0.2311
21047W        W38571  11.635  17.262  13.259  0.1064  0.0673  0.1138
21048W        W38572   2.780  14.252   5.175 -0.3104  0.0760 -0.2576
21049W        W38573   4.180  10.819  14.012 -0.0184 -0.0213  0.1912
21050W        W38574  13.289   3.582   0.120  0.1568  0.1497 -0.0477
21051W        W38575  12.629   2.226  13.075 -0.0110  0.1633  0.0330
21052W        W38576   3.654  16.834  15.229  0.2866 -0.1255 -0.1078
21053W        W38577   1.580   4.457  11.004 -0.2767 -0.3251  0.0108
21054W        W38578  12.346  12.832  10.429  0.2894 -0.0041  0.3126
21055W        W38579  10.336   8.573   2.202 -0.0741 -0.2227 -0.1067
21056W        W38580   2.881   9.006  13.663  0.1888 -0.0621 -0.3176
21057W        W38581   1.692  12.296  13.622 -0.1415 -0.0239 -0.1117
21058W        W38582   6.359  12.364  14.984  0.1588 -0.0981  0.0321
21059W        W38583  16.695   0.709  11.387  0.3154 -0.2584 -0.2309
21060W        W38584   4.517  18.089  14.872 -0.2753 -0.1038 -0.2097
21061W        W38585   6.826   9.147   4.346  0.1599  0.1885 -0.0632
21062W        W38586   5.277  11.100  11.421  0.3454  0.0554  0.1082
21063W        W38587   9.114   1.826   0.371 -0.1145 -0.0087 -0.2183
21064W        W38588   7.572   4.118   4.876  0.1467  0.1750 -0.3004
21065W        W38589  10.193   0.396  11.342  0.2491  0.1913  0.0395
21066W        W38590   1.890  17.438   1.580  0.0632  0.2635  0.2537
21067W        W38591  16.943   3.465   3.569 -0.2073  0.0703  0.0641
21068W        W38592  12.588  15.537  14.305 -0.2395 -0.0146 -0.1652
21069W        W38593  12.006   4.203  11.603 -0.1197 -0.3799 -0.0590
21070W        W38594  11.243  13.574  15.479  0.1687 -0.1664  0.1378
21071W        W38595   1.632   5.241  10.756  0.1193 -0.0191  0.0306
21072W        W38596  16.403   3.402  13.128  0.1197 -0.3170 -0.0485
21073W        W38597  11.431   6.153  15.020  0.0137 -0.0016  0.0263
21074W        W38598   7.246   5.717   2.739  0.0929 -0.0999  0.1501
21075W        W38599   5.277   0.214   4.939 -0.1185 -0.1412 -0.1757
21076W        W38600  16.427   1.880   5.199 -0.1994 -0.0351 -0.1101
21077W        W38601   0.509   6.785   3.708 -0.2230  0.0213 -0.0227
21078W        W38602  17.356   8.280   4.291 -0.1371  0.0371  0.0961
21079W        W38603   8.847   1.551  11.025  0.3020  0.1239  0.3001
21080W        W38604  15.977  16.057   0.442  0.1643 -0.0467  0.1286
21081W        W38605   6.427  12.065  11.853 -0.1680  0.3802  0.0727
21082W        W38606   3.447  13.905  14.974  0.2699  0.0255  0.2220
21083W        W38607   9.723  13.765  13.321  0.1389  0.2201  0.1812
21084W        W38608  16.649   5.062  12.649 -0.2532 -0.0481 -0.1082
21085W        W38609   3.722  11.504  15.132  0.2586 -0.3353  0.0063
21086W        W38610  13.430   3.731   3.906  0.1565 -0.0500 -0.1291
21087W        W38611   0.473  12.854  15.657 -0.1283  0.1726 -0.1442
21088W        W38612   9.445  10.804   2.516 -0.0865  0.0991 -0.0437
21089W        W38613   6.874   9.213  11.488 -0.3283 -0.3501  0.2879
21090W        W38614  15.706   7.837  13.966  0.2858  0.0838  0.1261
21091W        W38615   6.009   9.861  15.561  0.0380 -0.0506  0.2987
21092W        W38616   1.914   7.138   4.209 -0.2703 -0.3279 -0.1120
21093W        W38617  17.093   7.362  12.377  0.0898  0.0743  0.0410
21094W        W38618   0.433  13.999   0.904 -0.0298  0.1168  0.0525
21095W        W38619   5.470  18.007  14.970  0.0878 -0.2092  0.1741
21096W        W38620  15.221  14.476   4.125  0.2172 -0.2026  0.2304
21097W        W38621   0.716   6.970  14.277  0.2417 -0.0782  0.0398
21098W        W38622   5.091   3.395   3.607 -0.1274  0.1910  0.4195
21099W        W38623  15.232   8.496  11.311 -0.0096  0.1878 -0.0051
21100W        W38624  15.435   7.778  11.169 -0.1548  0.1092 -0.0881
21101W        W38625  14.165   7.927   4.124 -0.0821  0.0431 -0.0600
21102W        W38626  11.211   8.440   3.829 -0.2124 -0.1449  0.2903
21103W        W38627   0.519  13.305   1.421 -0.1834 -0.0003 -0.1970
21104W        W38628  13.355  14.836   0.638  0.0057  0.1278  0.1566
21105W        W38629   9.758  12.102   4.873  0.0468 -0.0102  0.0480
21106W        W38630   7.499   5.975   1.663 -0.0556  0.1383 -0.2337
21107W        W38631  11.724   7.664  14.179  0.1412 -0.0221 -0.0574
21108W        W38632   1.018  13.266   1.584  0.2311 -0.1241 -0.0362
21109W        W38633  14.110   0.422  10.975 -0.0317  0.0008  0.0301
21110W        W38634   9.474  13.260   0.348 -0.2916 -0.0534  0.0846
21111W        W38635   9.100  13.091   0.728 -0.1305 -0.1660 -0.1653
21112W        W38636  11.247  13.332  13.908  0.4010 -0.1104  0.0737
21113W        W38637   0.477   9.860  12.939  0.0886 -0.4326 -0.2039
21114W        W38638   6.127  16.945   2.093  0.2448  0.1729 -0.0045
21115W        W38639   1.843   5.000   2.538  0.4352  0.2009 -0.1608
21116W        W38640  11.296  16.463  15.447 -0.1621 -0.0684 -0.3975
21117W        W38641  11.313   3.507  15.071  0.0756  0.1473 -0.2432
21118W        W38642   6.732  17.840  12.931  0.0083  0.1163 -0.1099
21119W        W38643   9.765   1.905   5.652  0.0081  0.1685 -0.0666
21120W        W38644  12.056   0.602  14.290  0.0653 -0.0460 -0.3066
21121W        W38645  10.476  16.489  12.261  0.1107  0.0510 -0.2600
21122W        W38646   3.354   9.332  11.957  0.2187 -0.1779 -0.3395
21123W        W38647   9.429   6.658   2.688  0.0637 -0.2457  0.1903
21124W        W38648   5.379   0.153  13.639  0.1457  0.3395 -0.2096
21125W        W38649   1.649   7.480  13.423 -0.2607 -0.2121  0.2299
21126W        W38650  10.229   6.774   0.176 -0.0519  0.0820 -0.1283
21127W        W38651  16.673   4.315   0.098 -0.1084  0.0327  0.0802
21128W        W38652  12.697  16.442  15.184 -0.0111  0.1954 -0.0515
21129W        W38653  11.969   6.834   2.485  0.2977  0.0337 -0.0285
21130W        W38654  15.227   3.849   2.137 -0.2258 -0.1094  0.2175
21131W        W38655   8.416   6.504   0.984  0.2893 -0.0723 -0.2501
21132W        W38656   4.485   0.749   2.627 -0.4991 -0.0193  0.3415
21133W        W38657  13.472   3.152   3.825  0.1026  0.2584  0.0351
21134W        W38658  16.010   5.673   3.241 -0.3131 -0.0072  0.2118
21135W        W38659   5.197   3.910   4.719 -0.0632  0.1143  0.0932
21136W        W38660  14.978   7.543   0.468 -0.2785  0.0461 -0.1178
21137W        W38661  17.260  16.757  13.800  0.1891  0.1643  0.1185
21138W        W38662   7.616   3.374  14.941  0.2482 -0.2479  0.2542
21139W        W38663   3.837   5.573   3.396  0.0634  0.3164  0.3533
21140W        W38664  10.011   3.589  12.438  0.0381 -0.3254 -0.0971
21141W        W38665   1.889  12.568   2.533  0.2839  0.2472  0.0806
21142W        W38666  11.499  17.989  11.264  0.4072  0.0800 -0.0454
21143W        W38667   0.401  12.994  11.641 -0.0959  0.3150  0.0478
21144W        W38668   6.200   5.095   0.622  0.2000  0.0572 -0.1442
21145W        W38669   7.453  17.243  13.361 -0.1098  0.0599 -0.0830
21146W        W38670   4.935  14.951   3.736 -0.1682 -0.3380  0.0687
21147W        W38671   9.216  11.292  10.713 -0.2900 -0.0218  0.0213
21148W        W38672   6.663   9.697  10.710  0.0130 -0.1098  0.0081
21149W        W38673  13.731  11.871  12.774  0.0697 -0.0482 -0.1602
21150W        W38674  17.193   2.964  12.706 -0.1224  0.0879  0.1979
21151W        W38675   9.576   7.864  13.199  0.2153  0.0408 -0.0561
21152W        W38676  17.930  11.883   2.597 -0.0266 -0.0137  0.2090
21153W        W38677   9.538  14.627  12.071  0.0276  0.0491 -0.1592
21154W        W38678  10.902  18.114   4.855 -0.2458  0.1684 -0.0630
21155W        W38679  17.112   4.669   0.865 -0.1664  0.3690 -0.3758
21156W        W38680  11.505   7.637  11.530  0.0855 -0.0197 -0.1962
21157W        W38681  12.750   3.437   2.539  0.0795  0.2858 -0.0588
21158W        W38682  16.922   1.255   4.435 -0.0241 -0.1887  0.1121
21159W        W38683   2.720   3.432  15.210 -0.2463 -0.1902 -0.1724
21160W        W38684  11.953   9.067   1.868 -0.1200 -0.0276 -0.0779
21161W        W38685   5.576  13.456  12.925  0.3344  0.1581  0.0840
21162W        W38686   4.289   6.433  10.681  0.3453 -0.0807 -0.0676
21163W        W38687  12.110  17.117  15.639  0.3530 -0.2801  0.1412
21164W        W38688  17.845   1.541  14.963 -0.0408 -0.0000 -0.2162
21165W        W38689  12.882  11.219   2.289 -0.0300 -0.2123 -0.2114
21166W        W38690  14.192  12.999  11.505  0.1120  0.0282  0.1162
21167W        W38691  11.748  10.942  12.898 -0.2310  0.0065  0.0184
21168W        W38692   7.802   1.858  12.077  0.0349  0.1358 -0.0066
21169W        W38693   4.010  15.735  12.606  0.0003  0.2881 -0.0842
21170W        W38694   0.231  15.392   3.608  0.1302 -0.2922 -0.2780
21171W        W38695  16.147   9.541   2.852 -0.2666  0.0120 -0.3098
21172W        W38696  10.619   6.461  12.440  0.2017  0.0553  0.2103
21173W        W38697   5.385   2.404   2.177  0.0677 -0.1282  0.0984
21174W        W38698  11.270   4.654  11.902 -0.0209  0.3084  0.2872
21175W        W38699   5.715   6.136   3.032  0.0680 -0.0469  0.0551
21176W        W38700   3.183  10.982  11.032 -0.3305  0.1522 -0.1009
21177W        W38701  16.815  16.196   3.713  0.0345 -0.1211 -0.0503
21178W        W38702  12.742   5.798  15.117  0.0591  0.3719 -0.1400
21179W        W38703   3.215  10.862   4.687  0.4746  0.0236  0.1599
21180W        W38704   0.156   4.626  14.533  0.1224  0.3384 -0.0315
21181W        W38705  14.220   7.394   3.226  0.2120  0.1397  0.0270
21182W        W38706  10.065  16.003   1.251 -0.0439  0.3000 -0.2452
21183W        W38707  10.997   6.922  14.159 -0.2605  0.1017  0.1526
21184W        W38708   2.684  17.211  13.829 -0.3834 -0.1393 -0.0658
21185W        W38709  15.070  14.779  11.880 -0.2724  0.0978  0.2190
21186W        W38710  16.202   2.009   4.085 -0.2032  0.1388  0.0009
21187W        W38711  14.147   1.344   2.681  0.2135  0.0364 -0.1910
21188W        W38712  11.944  14.354  12.378 -0.4770 -0.1828  0.3771
21189W        W38713   2.157   3.862   2.935  0.2716  0.0684  0.1747
21190W        W38714  11.500  18.077   4.628  0.2149 -0.0590 -0.1647
21191W        W38715   0.866  14.865   0.923  0.1862 -0.1682  0.1899
21192W        W38716   2.216  14.676  15.492 -0.0017 -0.0792 -0.1121
21193W        W38717  16.286  14.047   3.990 -0.0166  0.0110  0.1494
21194W        W38718  11.223   6.022  13.063  0.1785 -0.1514  0.0960
21195W        W38719   0.387   8.398   4.272 -0.1891  0.1334  0.0876
21196W        W38720  16.135   8.872   4.313 -0.3614  0.0209  0.2500
21197W        W38721   3.114   1.349   2.250  0.2010 -0.0428  0.1448
21198W        W38722   5.769   2.560  11.594 -0.2084 -0.1142 -0.1217
21199W        W38723   1.972  12.856   2.986 -0.0079  0.2590  0.2849
21200W        W38724  15.342  15.224   3.932 -0.1135 -0.1220  0.0647
21201W        W38725   8.394  10.747   4.616 -0.2155 -0.0730  0.3233
21202W        W38726   5.966   6.591  11.447 -0.0402 -0.0068  0.0852
21203W        W38727  12.590  12.388  12.928 -0.1205  0.2625 -0.1027
21204W        W38728   4.501   4.141   9.807  0.1495  0.1701 -0.1563
21205W        W38729   1.471   6.495  14.460  0.1902 -0.2196  0.2845
21206W        W38730  12.580  15.029  15.468  0.3124 -0.0180  0.2238
21207W        W38731   7.196   7.160   0.335  0.0338 -0.0511  0.1172
21208W        W38732   2.986  12.655   2.867  0.1416  0.0262 -0.1500
21209W        W38733  16.646   4.104   3.828  0.2411 -0.1678  0.2296
21210W        W38734  12.959  12.763   2.095 -0.0996 -0.0266  0.1758
21211W        W38735   0.432   3.002   1.082 -0.2079 -0.1048  0.0146
21212W        W38736  12.522  11.647   2.473 -0.3275 -0.1613 -0.0969
21213W        W38737  12.870  13.125   3.551 -0.0747 -0.2674  0.2011
21214W        W38738   6.346   0.193   4.144  0.0474  0.1828  0.2217
21215W        W38739  13.732  17.760   3.255  0.0648 -0.1495  0.0863
21216W        W38740   6.507   2.869  11.447  0.1089  0.0370 -0.2061
21217W        W38741  13.786  13.881   2.039  0.0220  0.2215  0.0719
21218W        W38742   2.954   7.031   3.073 -0.0150 -0.0569 -0.1133
21219W        W38743  15.552   7.601   1.168 -0.0888 -0.0420  0.0217
21220W        W38744   8.217  10.920   4.178 -0.0223  0.0208 -0.4449
21221W        W38745  10.672  10.172   0.887  0.0963  0.1368  0.0956
21222W        W38746   1.867  10.155  13.672  0.1495 -0.0751 -0.0054
21223W        W38747  16.326  11.161  13.153  0.2490  0.0245  0.2601
21224W        W38748  10.751   1.847   0.307  0.1407 -0.1705 -0.0235
21225W        W38749  17.607   0.036   1.222  0.2735  0.0284 -0.1569
21226W        W38750   4.024   9.836  14.936 -0.2390  0.2070 -0.0945
21227W        W38751   9.812  18.420  12.016 -0.3558  0.1342  0.1386
21228W        W38752   6.682  11.844  14.349 -0.3313  0.4648 -0.0832
21229W        W38753   9.846  12.762   1.093 -0.2310  0.1366  0.2783
21230W        W38754  16.736   0.224  11.684  0.1975  0.3570  0.0756
21231W        W38755   0.642   8.641  14.688 -0.0924 -0.1428 -0.0053
21232W        W38756   3.236  11.691  15.371 -0.2923  0.2213 -0.2338
21233W        W38757   4.927  15.403  15.060 -0.3351  0.1767 -0.1539
21234W        W38758   5.559  14.426  12.371  0.0907 -0.1483 -0.0736
21235W        W38759   0.338   2.361  14.988  0.1235 -0.0357  0.0119
21236W        W38760  16.358  16.395   2.873 -0.1840  0.0231 -0.1618
21237W        W38761  16.683   2.248   1.554  0.0323  0.0271 -0.0398
21238W        W38762   6.436  13.676  11.192  0.0638  0.2529 -0.0255
21239W        W38763  14.497  17.213  12.057 -0.0040  0.3020  0.2720
21240W        W38764   6.253   0.966   5.373  0.2411  0.0012 -0.1673
21241W        W38765  13.997  11.155   1.927 -0.2075 -0.1331 -0.2448
21242W        W38766   9.038  17.858  13.495  0.0555 -0.2577 -0.4157
21243W        W38767   5.021   6.853  10.868 -0.0178  0.1254 -0.1961
21244W        W38768   0.886   2.457   1.685 -0.1982 -0.1502  0.1550
21245W        W38769   3.727   3.479   1.485 -0.0805 -0.2103  0.1987
21246W        W38770   4.238   2.967   3.004 -0.0912 -0.1348 -0.1447
21247W        W38771  17.373   1.117  11.044 -0.2604 -0.1449 -0.1120
21248W        W38772  17.432  16.628   4.971 -0.2177  0.1370 -0.1484
21249W        W38773   8.479   4.609   4.279 -0.1144 -0.0254 -0.1272
21250W        W38774   0.475   4.095   0.237 -0.1049  0.2813  0.3204
21251W        W38775  13.180  17.864  10.342 -0.0533  0.0122 -0.1574
21252W        W38776   2.723   6.363  14.604  0.1845 -0.0791  0.2155
21253W        W38777  18.230   0.925  14.196 -0.2563  0.1925  0.1558
21254W        W38778   6.311   8.586   5.062 -0.0310  0.0702  0.0946
21255W        W38779  12.248   7.890   3.177 -0.2355  0.0411  0.2847
21256W        W38780  10.526  11.781  13.999 -0.0748 -0.0390  0.0671
21257W        W38781  17.305  17.443   4.580  0.2840  0.1388  0.1791
21258W        W38782  11.074  10.001   3.035 -0.4084 -0.0049  0.1589
21259W        W38783  17.673  17.421  13.784  0.0696  0.1460  0.3931
21260W        W38784   1.648  17.450  11.618  0.1720 -0.0563  0.1052
21261W        W38785  14.725   3.611   0.575  0.1216  0.1384  0.1901
21262W        W38786   2.027   7.763  11.019  0.1207  0.1334 -0.1457
21263W        W38787   5.025   8.926  15.607 -0.2001 -0.2250 -0.1988
21264W        W38788   4.994   5.219  11.502  0.1365  0.1379 -0.1689
21265W        W38789   1.791   3.780   1.944 -0.1468  0.1668 -0.0140
21266W        W38790  10.974  14.565  14.594  0.0585  0.3663 -0.1352
21267W        W38791  17.534   2.307  10.713  0.2175 -0.1016  0.2105
21268W        W38792  15.647  13.470  13.671  0.1160 -0.3176  0.2190
21269W        W38793  16.812   4.645   2.971  0.0083  0.0062  0.1729
21270W        W38794  10.141   6.897  10.947  0.0085  0.0594 -0.0856
21271W        W38795   2.620   6.628  11.877  0.0900  0.0729  0.1200
21272W        W38796   1.993   7.007  13.079 -0.0400 -0.1627  0.3101
21273W        W38797  12.315   5.616  15.010 -0.1339  0.2489 -0.3335
21274W        W38798   2.881   9.096   2.516 -0.1541 -0.0628 -0.0483
21275W        W38799   3.459   3.411   1.916 -0.1069  0.1652  0.0082
21276W        W38800   3.306  15.732   0.561 -0.3531  0.1251 -0.0100
21277W        W38801  18.276  16.337   3.648 -0.0097 -0.2267 -0.0757
21278W        W38802   7.428   9.195   2.554 -0.0640  0.1117 -0.1546
21279W        W38803  12.354  14.438  13.299 -0.0856  0.2524  0.1663
21280W        W38804   8.823   6.413  12.501  0.1251 -0.0200  0.0783
21281W        W38805  10.400  14.054   2.304  0.1769  0.1803  0.1217
21282W        W38806   6.534   2.502   0.280  0.2183  0.1869  0.3856
21283W        W38807   2.217  14.049   6.048  0.0369  0.2482  0.1935
21284W        W38808   3.584   8.269   1.152 -0.0361  0.1404  0.0247
21285W        W38809  13.116  12.641  12.817 -0.0579  0.0980  0.0286
21286W        W38810  12.046   9.305  10.942 -0.1501  0.2028  0.0531
21287W        W38811  17.238   8.755   3.907  0.1300  0.1897 -0.2647
21288W        W38812  16.023   4.029   2.013 -0.0505  0.1358 -0.1318
21289W        W38813   0.547   6.040   3.377 -0.0365  0.0662  0.2006
21290W        W38814   8.086  17.216   0.232  0.3971 -0.1770 -0.1945
21291W        W38815  12.411  11.043   1.434  0.2218 -0.1370 -0.1604
21292W        W38816   2.407  14.138   4.259 -0.0101 -0.2881  0.4210
21293W        W38817  10.805   6.264   2.752 -0.1536 -0.1556 -0.1233
21294W        W38818  11.552  10.086  10.733 -0.4511  0.0740 -0.1847
21295W        W38819  16.808  10.420   1.611  0.0912 -0.2001 -0.0106
21296W        W38820   0.009  13.458  13.041  0.1341 -0.0366  0.0151
21297W        W38821   7.904  14.894  11.323  0.0640 -0.0657  0.1762
21298W        W38822  15.163  13.842   0.022 -0.1288  0.0455  0.2443
21299W        W38823   2.008  14.670  14.068  0.1451 -0.2132  0.0769
21300W        W38824   9.531  14.215  14.304 -0.0841  0.1837  0.2730
21301W        W38825   9.135  12.625   4.383 -0.1118  0.2219 -0.1765
21302W        W38826   5.560   0.797  14.440  0.2268  0.0074  0.1734
21303W        W38827  12.939   7.481  14.185  0.2779 -0.2899 -0.0367
21304W        W38828   8.577   2.132  15.157  0.3646  0.0465  0.0202
21305W        W38829   6.200   0.041  15.390  0.2392  0.1529  0.3067
21306W        W38830   4.559   3.118  12.226  0.0579 -0.2794  0.2347
21307W        W38831  15.856  10.817  14.911 -0.1310 -0.1820  0.1410
21308W        W38832  16.869   9.938   1.864 -0.1120  0.1298  0.0074
21309W        W38833  13.495   1.048  15.597 -0.0976 -0.0465 -0.0081
21310W        W38834   8.688   3.564   1.083  0.0196  0.1457  0.0118
21311W        W38835   6.979   1.930   3.089 -0.0421 -0.0552  0.2893
21312W        W38836   2.159   2.696   5.039 -0.1539 -0.0711 -0.1448
21313W        W38837  13.486   0.864  12.516  0.3086 -0.0153 -0.1529
21314W        W38838   3.605  12.419  13.399  0.5967 -0.0926 -0.0187
21315W        W38839   2.810   3.942   4.330 -0.3074 -0.1343  0.0866
21316W        W38840  11.296   5.484  10.621  0.4263  0.1522  0.2321
21317W        W38841   1.625  13.130   0.255  0.1136 -0.3701  0.3025
21318W        W38842   6.291   2.677  14.019  0.2056  0.2957  0.0029
21319W        W38843   6.677   3.810  11.768 -0.1295 -0.4894 -0.0452
21320W        W38844  12.542   1.950  14.384 -0.0268  0.1827 -0.0031
21321W        W38845  13.439  16.536   3.071 -0.0690 -0.1065 -0.2429
21322W        W38846   8.439   2.347  12.048  0.1684  0.1674  0.1048
21323W        W38847  13.805  11.017   3.135  0.1422  0.1000 -0.0928
21324W        W38848  11.254   1.416   5.115  0.4153 -0.3705  0.5360
21325W        W38849   8.659   0.934  11.678 -0.1329 -0.0873 -0.1208
21326W        W38850   6.731  14.274  13.151 -0.1490 -0.2990 -0.2894
21327W        W38851   3.748   5.609  14.499  0.0254  0.1709 -0.2963
21328W        W38852  10.581   3.049   1.413  0.0432  0.1354  0.0572
21329W        W38853   9.575  16.198  11.809 -0.1480  0.1598 -0.1166
21330W        W38854  16.270   6.058  13.096 -0.0900 -0.1493  0.2063
21331W        W38855  17.216   4.360   3.052 -0.0848  0.0227  0.2719
21332W        W38856  17.508   7.884  14.431  0.2476 -0.1125  0.1244
21333W        W38857   0.556  12.879  12.597 -0.1124  0.1802  0.0983
21334W        W38858   9.157   1.002  12.898  0.1087  0.0308  0.0358
21335W        W38859   7.105   4.342   4.198 -0.0701  0.0408 -0.2558
21336W        W38860   3.821   0.300   5.021 -0.0538 -0.1232 -0.0319
21337W        W38861  10.374  15.728   0.900  0.0895  0.2331  0.2364
21338W        W38862   0.975   1.093   0.180  0.0391 -0.0149  0.1268
21339W        W38863   6.808  15.094   2.914 -0.3097 -0.1926 -0.1452
21340W        W38864  17.183   7.526  11.280  0.0962 -0.1025 -0.0247
21341W        W38865   1.930  16.091   3.317  0.1604  0.1712 -0.0937
21342W        W38866  14.147   3.441   3.559  0.0350 -0.0396 -0.1026
21343W        W38867  14.222  17.340   2.254 -0.1967  0.1619 -0.0169
21344W        W38868  10.548   2.180  12.403 -0.0788  0.0068 -0.0008
21345W        W38869   6.644   3.808   2.136  0.4176 -0.1084 -0.0519
21346W        W38870  12.727  15.929   4.858  0.1736  0.1325  0.1667
21347W        W38871  11.828  16.819  11.917 -0.0349 -0.3355  0.0683
21348W        W38872   7.692  13.753   3.985  0.2446 -0.0833 -0.0188
21349W        W38873  10.593  14.543   5.209 -0.1157  0.2685  0.1780
21350W        W38874  16.185   9.268  10.794 -0.2661 -0.0112 -0.0131
21351W        W38875  18.119  11.505   5.016 -0.2315  0.2984 -0.0230
21352W        W38876  14.643  16.189  12.208 -0.0096 -0.1125  0.0951
21353W        W38877  11.860   4.096   3.667  0.0553 -0.0109  0.1912
21354W        W38878  12.905  17.509  14.526 -0.0606 -0.1508  0.1171
21355W        W38879   5.898   5.612  14.210  0.4409 -0.1457  0.2061
21356W        W38880  11.825  14.474  11.869  0.0935 -0.4865 -0.1764
21357W        W38881  16.041   1.379   3.623  0.1270  0.0852 -0.4250
21358W        W38882  14.899   8.773  14.658 -0.0222 -0.3450  0.0145
21359W        W38883  16.352  16.611   1.856 -0.0559  0.2491 -0.1477
21360W        W38884   0.746  16.415   0.579 -0.3288  0.0863 -0.0253
21361W        W38885  13.350   6.461   9.954  0.2233 -0.3105  0.4020
21362W        W38886  12.330  14.187   0.195 -0.1418  0.1246  0.0852
21363W        W38887  16.445  15.768  13.136 -0.2889  0.0038 -0.0054
21364W        W38888   1.857   0.311   4.013  0.4471 -0.4333 -0.0155
21365W        W38889  14.952   9.665   3.145  0.0685  0.1138 -0.2447
21366W        W38890  16.462   6.963  15.721  0.0595  0.0910 -0.2179
21367W        W38891   0.944  11.614  12.266  0.0988  0.1648 -0.1683
21368W        W38892  18.243   3.527  14.421  0.1310 -0.1351  0.2711
21369W        W38893   5.772   4.409   2.221 -0.2985  0.1143 -0.2106
21370W        W38894   5.641  13.565   4.849  0.1010 -0.0458  0.0601
21371W        W38895  11.749  17.853   3.821 -0.0857 -0.0318  0.0216
21372W        W38896   3.050   2.478   3.993 -0.4850 -0.1333  0.1418
21373W        W38897  16.368   1.379   1.830 -0.0429  0.1081  0.2357
21374W        W38898  16.611   0.611   3.459  0.0378 -0.2983  0.1544
21375W        W38899   4.331   0.212  12.782  0.0681 -0.1737  0.0450
21376W        W38900  18.224   8.170  10.787  0.2529  0.0135 -0.4567
21377W        W38901   1.014   1.844  14.242 -0.1596 -0.1485  0.1379
21378W        W38902  14.761   5.462   1.246  0.0371  0.1554 -0.1516
21379W        W38903  18.083   3.862   0.259  0.0697  0.0506  0.1946
21380W        W38904  14.982  13.795   0.895 -0.4980 -0.3322 -0.2768
21381W        W38905  16.809   5.973   0.307  0.0326 -0.2382  0.2184
21382W        W38906  18.486   2.422  11.246  0.1677 -0.2218 -0.1988
21383W        W38907  14.677  18.426  12.936 -0.2649  0.1867 -0.2641
21384W        W38908  18.044   9.447  11.577 -0.1856 -0.1096 -0.2858
21385W        W38909   4.688  16.436  14.683 -0.0853  0.0504 -0.0106
21386W        W38910   0.700   1.543  10.948  0.0211 -0.0450 -0.1362
21387W        W38911  11.253  16.975  14.946 -0.1196 -0.1563 -0.0457
21388W        W38912   5.614   6.174   4.451 -0.0705  0.0751  0.0582
21389W        W38913   4.638  10.552  15.156  0.4328 -0.2868  0.2498
21390W        W38914  13.681   5.395  15.253 -0.0895  0.1664  0.4120
21391W        W38915   2.204  10.945   2.530 -0.0316  0.0653 -0.1041
21392W        W38916  15.744   6.712   2.422 -0.0187 -0.3519  0.1240
21393W        W38917   9.904   8.493  12.574  0.2358 -0.0392 -0.1301
21394W        W38918   3.476  12.333  12.917 -0.1134 -0.2345 -0.1744
21395W        W38919   8.722   0.824   1.409 -0.1749 -0.0142  0.1513
21396W        W38920   7.052   5.434  13.938 -0.3504 -0.0879  0.2764
21397W        W38921  16.469  12.098   1.248  0.0309 -0.1898  0.0327
21398W        W38922  14.214  18.159  13.024 -0.1551 -0.1767  0.2519
21399W        W38923   5.739  16.071   1.565  0.2252  0.2061  0.3550
21400W        W38924   8.328  16.622  11.630 -0.2454 -0.1353  0.1198
21401W        W38925  10.064   8.345   4.733  0.0874 -0.1805 -0.1939
21402W        W38926   0.263  17.794   4.098 -0.0735 -0.0577 -0.0652
21403W        W38927   5.591   6.381   1.016 -0.2774  0.0549  0.2714
21404W        W38928   9.245  18.417   1.839 -0.2041  0.0989  0.1788
21405W        W38929   0.196   2.566  12.124 -0.4685 -0.2474  0.3788
21406W        W38930  14.275   6.537   3.374 -0.1906 -0.1865  0.1316
21407W        W38931   9.513   4.524   3.848  0.1072  0.1732 -0.0285
21408W        W38932   0.285  14.021  11.794  0.2952  0.0120 -0.0958
21409W        W38933   5.242   7.523   1.001  0.2610 -0.1100  0.0009
21410W        W38934   9.210   8.159  14.527  0.0738 -0.1662  0.5073
21411W        W38935  14.605   1.065   2.712  0.0647 -0.0755  0.1667
21412W        W38936   5.467  12.305  12.028  0.2278 -0.1465 -0.4929
21413W        W38937  10.420   4.272   1.617  0.1372  0.0856 -0.0430
21414W        W38938  18.364   9.043  14.333  0.1570 -0.1283 -0.0990
21415W        W38939  11.939   4.259   1.207 -0.1565 -0.3386  0.0550
21416W        W38940  17.306   5.548  14.157  0.2925  0.1762  0.0803
21417W        W38941   1.562  16.048  11.375 -0.1293 -0.0213  0.1177
21418W        W38942  17.066   8.888   1.796 -0.1993 -0.2679  0.2436
21419W        W38943   2.116  11.080   4.058  0.0044  0.0219 -0.1688
21420W        W38944   5.614   5.887   5.723 -0.0072  0.0490 -0.2051
21421W        W38945   5.844   0.357  10.861  0.1314 -0.1031  0.2295
21422W        W38946  11.206   3.128   2.067 -0.0498  0.1732 -0.1281
21423W        W38947  14.576  15.011   3.540  0.0724  0.0331 -0.1600
21424W        W38948  12.002   8.383   3.240  0.4220 -0.2197  0.5103
21425W        W38949   8.920   0.205  14.060 -0.2387  0.2151  0.1112
21426W        W38950  17.336  11.887  13.276  0.0952  0.1374 -0.3368
21427W        W38951   6.841  14.186  11.764 -0.2194 -0.0556  0.0404
21428W        W38952  13.212   5.690  15.220  0.0061 -0.1516  0.1393
21429W        W38953  10.843  10.733   0.970 -0.0602 -0.1619  0.0048
21430W        W38954  17.031  17.756  12.591 -0.1118 -0.0552 -0.0655
21431W        W38955   4.590   1.191   1.519 -0.0966 -0.2512  0.0996
21432W        W38956   8.176  12.604  12.071 -0.1168 -0.1038  0.1671
21433W        W38957  11.793   8.113  11.411 -0.0023 -0.0250 -0.0486
21434W        W38958   9.028   7.893   4.140 -0.1191  0.0707  0.3984
21435W        W38959   4.940   9.395   4.235 -0.0568 -0.0127  0.0231
21436W        W38960   0.550  13.781   3.936  0.1884  0.2628 -0.0828
21437W        W38961  12.616   8.933  13.258 -0.1069  0.0213 -0.1288
21438W        W38962   5.390   4.082  13.661 -0.1043  0.1089 -0.0445
21439W        W38963   2.281   2.648   4.541 -0.0998 -0.0679  0.1807
21440W        W38964   2.099   9.904  13.166  0.1265  0.2173  0.2557
21441W        W38965  14.996  15.417  15.538  0.0295  0.3419 -0.0743
21442W        W38966  11.030  18.130   2.144  0.0543 -0.0506 -0.0389
21443W        W38967  10.930  15.077   0.539  0.0956  0.2022  0.2320
21444W        W38968  10.501   9.088  15.179  0.2146  0.0862 -0.0081
21445W        W38969   9.674  13.427   2.559  0.2284 -0.1306  0.0271
21446W        W38970  10.033   4.705  14.909  0.1808 -0.1509 -0.0567
21447W        W38971   1.850  11.662   4.635  0.0079 -0.0751 -0.2493
21448W        W38972   5.214   3.799  12.514 -0.0017  0.1511  0.0281
21449W        W38973  13.540  17.224  15.110 -0.2117 -0.1485 -0.0454
21450W        W38974  12.528  14.004  10.850 -0.0947  0.2377 -0.1820
21451W        W38975  15.467  17.800  12.925  0.1453  0.0791  0.2398
21452W        W38976   8.148  10.205   0.078 -0.4903  0.1349  0.2018
21453W        W38977   5.663   4.789  15.599  0.1127  0.0308 -0.3251
21454W        W38978   1.694  15.232  11.207 -0.2771  0.1896  0.1676
21455W        W38979   9.100   2.459   0.361  0.0351 -0.1869 -0.0247
21456W        W38980  14.242   2.570  14.337 -0.0714 -0.2065  0.0797
21457W        W38981   0.480   7.443  11.559  0.0852 -0.0052 -0.1560
21458W        W38982  14.404   2.770   2.516  0.1603  0.1980 -0.2585
21459W        W38983   9.821  12.426  11.863 -0.0128  0.5740 -0.2356
21460W        W38984  14.254   1.246  15.544  0.1425  0.1122 -0.0959
21461W        W38985   9.053  17.212  14.355 -0.3103  0.0863 -0.2121
21462W        W38986   8.830   8.146   1.556  0.2229 -0.2398  0.0579
21463W        W38987   8.161  15.453   3.675  0.1877  0.0240  0.0776
21464W        W38988  11.469  10.190   4.423 -0.1023 -0.0585 -0.0528
21465W        W38989   6.198   6.656  14.577 -0.1061  0.3119 -0.3252
21466W        W38990  14.555   0.404   2.031  0.1896  0.0369 -0.0231
21467W        W38991   4.439  16.657  15.575 -0.0885  0.0061  0.0073
21468W        W38992  14.598   0.569   2.512  0.0036  0.0364  0.0744
21469W        W38993  13.824   8.665   2.556  0.0511  0.2199  0.0229
21470W        W38994   6.321   8.821  14.936  0.1345 -0.2649 -0.1534
21471W        W38995   7.207  15.890   3.051 -0.0263  0.0017 -0.0574
21472W        W38996  14.629  15.438  13.374 -0.1246 -0.0007  0.0846
21473W        W38997   3.525   9.045  11.597 -0.2323  0.0866 -0.2099
21474W        W38998   7.215   5.184  15.416 -0.0515  0.0509 -0.1580
21475W        W38999   8.309  10.257   3.652  0.2305 -0.0137 -0.3100
21476W        W39000  15.137   3.278   3.030 -0.1618  0.0319  0.0383
21477W        W39001   6.719  17.946  12.415  0.4292 -0.2152 -0.0281
21478W        W39002  17.223   6.707   0.022 -0.2965 -0.0374 -0.1943
21479W        W39003   0.676   6.858   2.994  0.2161 -0.2644 -0.0852
21480W        W39004   9.318   4.947   0.373  0.0111 -0.2894 -0.0130
21481W        W39005  14.322   8.845   2.291  0.0719  0.1811  0.1072
21482W        W39006   2.157   8.696   1.847 -0.0142  0.1836 -0.3870
21483W        W39007   7.452  17.683   0.469 -0.3386  0.0251 -0.0466
21484W        W39008   2.559   4.584   2.076  0.4946  0.1414 -0.0811
21485W        W39009   8.404   0.520  11.927  0.1762 -0.2587 -0.1721
21486W        W39010   3.428   0.773  11.973 -0.0546 -0.3712  0.1784
21487W        W39011  12.703  10.840   3.521  0.2729 -0.0092 -0.2562
21488W        W39012   4.019   7.373  13.668 -0.1111  0.0230  0.0546
21489W        W39013  16.884   3.551  10.465  0.3254 -0.2565 -0.0296
21490W        W39014  17.132  16.963   5.220  0.0702  0.1248  0.1378
21491W        W39015  15.381   2.746  10.667  0.0632 -0.0027  0.1686
21492W        W39016   5.741   3.602   2.148 -0.3338 -0.0372 -0.1180
21493W        W39017   7.649   3.929  11.264 -0.2100 -0.1006  0.0062
21494W        W39018  16.276  17.177   3.709  0.1551 -0.0285  0.1368
21495W        W39019  13.803   1.098   5.899 -0.0144  0.0446 -0.2627
21496W        W39020   5.424  14.935   3.092 -0.0315 -0.0629  0.1895
21497W        W39021  11.950   6.073  13.514 -0.2493 -0.0313 -0.2547
21498W        W39022  11.751   9.411  15.025 -0.0646  0.0179 -0.1002
21499W        W39023   4.865  10.684  11.014  0.0955  0.1907  0.1756
21500W        W39024   5.834  13.588  11.712 -0.0063  0.4831 -0.0157
21501W        W39025  16.441   5.843  13.549  0.0391  0.2804 -0.0775
21502W        W39026  11.301  15.014  11.235  0.0817 -0.2457 -0.1514
21503W        W39027  14.698  10.085   3.284  0.2409  0.0247 -0.2616
21504W        W39028  14.691   1.569  12.464  0.0510  0.0564  0.3575
21505W        W39029  13.391   0.396   4.713  0.0169 -0.0194  0.1013
21506W        W39030   7.111  15.417  11.109  0.0542 -0.1866 -0.0012
21507W        W39031  16.082  17.710  12.337 -0.2532 -0.0422 -0.0243
21508W        W39032  10.685   4.692  11.746  0.3181 -0.1418 -0.0067
21509W        W39033  13.983   7.824  11.575  0.0167 -0.0058 -0.0989
21510W        W39034  17.493  11.431   0.936 -0.1806  0.1680  0.3915
21511W        W39035   3.244   7.353  14.959  0.3790 -0.1259  0.0622
21512W        W39036   0.656   4.230  14.667  0.1945  0.1242  0.0614
21513W        W39037   9.502  16.198   1.876  0.0655  0.1507  0.0607
21514W        W39038  14.163  13.460   2.156 -0.2024 -0.1145  0.0087
21515W        W39039   2.437   1.094  13.866 -0.0572 -0.3141 -0.2402
21516W        W39040   5.036  13.615  15.493 -0.1885 -0.2007 -0.0674
21517W        W39041   6.339  11.450  14.532  0.3843 -0.0082 -0.2516
21518W        W39042  16.183   4.512  14.487  0.0062 -0.0733 -0.0666
21519W        W39043   8.477   8.288   2.520 -0.1017 -0.2128 -0.1718
21520W        W39044  12.626  11.546  11.870  0.1840 -0.0361 -0.0606
21521W        W39045   3.839   3.569  13.784  0.0919  0.1745 -0.0942
21522W        W39046  18.287  10.232  13.343  0.3937  0.1171  0.2428
21523W        W39047   4.938  11.913  11.463  0.1238 -0.4672  0.0548
21524W        W39048  12.863   5.446  11.639 -0.2031  0.0163 -0.0913
21525W        W39049  15.708   9.983   1.141 -0.2281 -0.0182 -0.2754
21526W        W39050   9.938   9.634   0.430 -0.2158 -0.1300  0.1235
21527W        W39051  12.057   0.600  14.811  0.4600 -0.0702  0.0030
21528W        W39052  11.100  12.579  15.367 -0.3947 -0.2710 -0.0834
21529W        W39053   0.524  16.094   0.298  0.1683 -0.1211 -0.1011
21530W        W39054  17.426   2.477   2.880 -0.6112 -0.1294 -0.1673
21531W        W39055   3.623  12.587   1.162  0.0239  0.2492  0.1625
21532W        W39056  12.112  15.584   4.225  0.1366 -0.0451 -0.0671
21533W        W39057   4.508  11.651   1.901  0.0852 -0.1421  0.1380
21534W        W39058   4.757   1.001  15.121  0.2892  0.4738 -0.0270
21535W        W39059  13.307  17.559  14.831 -0.1508  0.1506 -0.0476
21536W        W39060  12.202  11.365  14.560  0.1772 -0.0095 -0.2000
21537W        W39061  17.058  12.801  11.202  0.0694 -0.1098 -0.0298
21538W        W39062  11.706  17.614  11.617  0.0943 -0.4582 -0.1824
21539W        W39063  17.534  12.415  13.474  0.0391  0.0082 -0.1534
21540W        W39064  17.169  12.815  12.892 -0.0471  0.0524  0.1292
21541W        W39065   4.304   8.404  11.170  0.1951 -0.4283  0.1583
21542W        W39066  14.650  17.685  11.955 -0.1020  0.0794  0.1461
21543W        W39067   8.958  18.095  14.035 -0.0458  0.0755 -0.2116
21544W        W39068   2.824  14.886  11.844  0.2212  0.0020  0.0191
21545W        W39069   2.644  10.285   0.727  0.0130  0.1598 -0.2645
21546W        W39070  13.467  12.073   2.627  0.2528  0.1058  0.0006
21547W        W39071   7.635   2.938   4.034 -0.0537 -0.0005  0.4152
21548W        W39072  16.262  12.504   1.679  0.3026 -0.0021  0.0910
21549W        W39073   4.813  11.106   3.426  0.0689  0.0025 -0.1580
21550W        W39074  13.206  13.257   2.093  0.2414 -0.1810  0.0121
21551W        W39075  12.092   3.832   4.239 -0.0435 -0.0250  0.0704
21552W        W39076   6.098   3.554  11.820  0.3913  0.4225 -0.3606
21553W        W39077   8.442   0.271  15.719  0.0040  0.4817 -0.0677
21554W        W39078  12.454   8.512   0.120 -0.2101  0.1828 -0.1237
21555W        W39079  10.551   5.642   5.517  0.2492  0.3902 -0.0829
21556W        W39080   1.076   5.525   0.177  0.0137  0.0252  0.0628
21557W        W39081  11.321  16.172   0.476 -0.1914 -0.2523 -0.2609
21558W        W39082   1.357  12.650   2.235  0.0111 -0.1817  0.1541
21559W        W39083   7.214   9.713   2.324  0.1085 -0.0937 -0.0611
21560W        W39084  16.172   4.670   0.385 -0.0340 -0.2120  0.2277
21561W        W39085   3.172   5.233   3.866 -0.1330  0.2073  0.0715
21562W        W39086   4.051  18.042   3.866  0.5474  0.0162  0.0726
21563W        W39087  14.469  15.691   1.767  0.0965 -0.0461  0.2832
21564W        W39088   5.119   5.477  11.085 -0.0877 -0.1001  0.1272
21565W        W39089  12.042   8.237   2.730 -0.0693 -0.1745 -0.3201
21566W        W39090   8.556  10.591   2.594  0.5543  0.2830  0.1405
21567W        W39091  13.689   7.935   4.143 -0.5066  0.0167 -0.2016
21568W        W39092   8.190  13.720  14.257 -0.1518  0.0047  0.3846
21569W        W39093   7.760   3.914  10.278 -0.0321 -0.0310  0.0851
21570W        W39094   8.777  10.650   3.957 -0.0692  0.0064  0.1764
21571W        W39095  17.899   0.552  14.419  0.2076 -0.2715 -0.1604
21572W        W39096   1.628  15.870  14.708  0.0649  0.1054 -0.1855
21573W        W39097  12.844  13.535   1.936 -0.0356  0.3699 -0.1088
21574W        W39098   7.780  15.210   5.181  0.1278  0.1075 -0.2887
21575W        W39099   0.751   5.953   0.342  0.1037 -0.2210 -0.4409
21576W        W39100  16.589  16.730   3.728 -0.2606  0.0947  0.2776
21577W        W39101  10.385   7.609  13.479  0.0470  0.0160  0.0950
21578W        W39102  14.385   3.103   1.827  0.0622 -0.1266 -0.2066
21579W        W39103   6.746  15.822   2.983  0.0645  0.2340  0.1073
21580W        W39104   1.372   6.246  12.291 -0.1441  0.2180  0.0970
21581W        W39105  18.303  10.740  14.477 -0.1139  0.0287  0.0290
21582W        W39106   1.304   7.495   0.344  0.1106  0.3110  0.2737
21583W        W39107  11.062   8.021   1.634 -0.0680  0.2739  0.0106
21584W        W39108   6.120   7.518  12.937  0.1752 -0.1549  0.3290
21585W        W39109   8.199  12.868   0.170 -0.2278  0.1178  0.1144
21586W        W39110   8.206   7.943  12.533 -0.1718 -0.0291 -0.3125
21587W        W39111   5.853   2.740  11.141  0.0919  0.2387 -0.1352
21588W        W39112  10.383  13.000   2.118 -0.2180 -0.3409  0.1292
21589W        W39113  13.355   8.774   2.911  0.2411  0.0994  0.4312
21590W        W39114   6.625   1.925  12.490  0.0286 -0.6075 -0.2306
21591W        W39115   6.496  15.229  11.060 -0.0520  0.0974 -0.2170
21592W        W39116   4.076  13.353  12.348  0.1093 -0.0570  0.4395
21593W        W39117  11.370  17.754  14.340  0.0676  0.2343 -0.0812
21594W        W39118   3.950  17.544   1.741  0.0690  0.4390 -0.2654
21595W        W39119   1.730  11.038  14.028 -0.1117 -0.1572  0.3934
21596W        W39120   7.701  15.901   0.995 -0.1154  0.0890  0.0767
21597W        W39121   7.002  11.961  14.742 -0.0864  0.2624  0.0978
21598W        W39122   8.063  11.298   1.879  0.1703 -0.3327 -0.5013
21599W        W39123  18.311   4.749  12.227 -0.2577 -0.0846  0.4313
21600W        W39124   2.646   2.642   3.545  0.1674 -0.1221  0.0979
21601W        W39125   4.052  17.032   4.707  0.0959 -0.1111 -0.1102
21602W        W39126  17.467   0.457   0.378  0.1988  0.1083 -0.3027
21603W        W39127  15.259   0.913   3.344 -0.0579  0.3437 -0.2743
21604W        W39128  18.198  13.250   3.861 -0.1679 -0.1052  0.0040
21605W        W39129  10.319   9.933  15.490  0.2166  0.0364  0.2660
21606W        W39130   7.862  10.418  13.167 -0.2046 -0.1217 -0.1609
21607W        W39131   1.670  11.964  15.581  0.0137 -0.1549 -0.2203
21608W        W39132  18.200   8.967   3.799 -0.1462 -0.0633  0.2378
21609W        W39133   7.684   7.304  10.133  0.0609 -0.1736  0.0742
21610W        W39134   2.662   2.684  14.442 -0.0282  0.0492 -0.3798
21611W        W39135  14.356  13.101  14.144 -0.2371  0.2169  0.1748
21612W        W39136  16.737   2.460   2.977 -0.1173  0.1656  0.2922
21613W        W39137   5.516  13.391   0.673 -0.0305 -0.0209 -0.0392
21614W        W39138  13.215   1.179   4.114 -0.0872  0.0459  0.1337
21615W        W39139  17.884   0.168   1.697 -0.0584 -0.0822 -0.0099
21616W        W39140   3.102  14.499   4.029  0.0424 -0.5272 -0.1899
21617W        W39141  17.900   0.251   3.543 -0.1220  0.0300 -0.1862
21618W        W39142  14.176   2.794  12.245 -0.0846  0.0411  0.0890
21619W        W39143   9.860   3.647   1.034 -0.2827  0.0358  0.2453
21620W        W39144   9.660  13.683   2.076  0.0740 -0.0235  0.2379
21621W        W39145   8.095  11.772  14.456  0.3437 -0.0637 -0.0696
21622W        W39146   1.952  15.407   2.921  0.1612 -0.1415  0.3355
21623W        W39147  18.176   9.501   3.107  0.1601 -0.1119 -0.0605
21624W        W39148   1.389   5.207   4.095 -0.0819 -0.0560  0.0318
21625W        W39149  15.816  10.577  10.935  0.0544 -0.0957  0.1930
21626W        W39150  17.251  11.689  14.573  0.1399  0.0563  0.0419
21627W        W39151  12.364   5.860   3.310  0.0333  0.0193 -0.0809
21628W        W39152  10.037  10.282  15.187 -0.2035 -0.0243 -0.1958
21629W        W39153   0.043  16.248   2.650  0.1221  0.0543  0.0174
21630W        W39154  16.675   5.588  12.008 -0.1058 -0.0310 -0.0018
21631W        W39155  11.220   9.632   9.802 -0.0119  0.1149  0.1551
21632W        W39156   8.620  16.978   2.469  0.1937 -0.3357 -0.0037
21633W        W39157   2.061  14.115   1.686 -0.1182 -0.0149 -0.0305
21634W        W39158   8.310   0.900   1.793 -0.0437 -0.3866 -0.2770
21635W        W39159   6.705  15.340  15.271 -0.1598  0.0494  0.3738
21636W        W39160  15.744  11.460  11.280 -0.2747 -0.0579  0.2103
21637W        W39161   9.630   1.957  15.433  0.1431  0.0633  0.3483
21638W        W39162   5.963   2.416  12.189  0.2978  0.1702  0.1072
21639W        W39163   2.770   9.489   2.807 -0.1950  0.2277 -0.1617
21640W        W39164   4.081   8.507  11.773  0.0981  0.2713  0.0268
21641W        W39165  16.991  12.356   4.161 -0.0466 -0.0481  0.4517
21642W        W39166   6.688  16.120  13.493 -0.0406 -0.1742 -0.4002
21643W        W39167  15.030   6.566  11.459 -0.1014  0.0515 -0.1195
21644W        W39168  16.043   3.621  15.163 -0.2236 -0.1209 -0.1385
21645W        W39169  12.047  10.210  11.016 -0.0830  0.0553  0.1287
21646W        W39170   3.128  10.314   0.768 -0.2309  0.0088  0.4216
21647W        W39171  17.074  11.885   4.611  0.0392 -0.1057 -0.1897
21648W        W39172  17.991   3.363  12.661  0.2373  0.1833  0.1127
21649W        W39173  10.180   7.303   3.791 -0.0045  0.0214  0.0249
21650W        W39174   2.063  12.457   3.821 -0.3163 -0.1341 -0.0133
21651W        W39175  12.934  10.796  14.945  0.0246  0.0918  0.1626
21652W        W39176   1.876  14.084   3.009 -0.0159 -0.2789 -0.0116
21653W        W39177   5.003  11.097  11.896 -0.1408 -0.0545  0.0673
21654W        W39178  11.308   5.213  13.493 -0.2498 -0.0905  0.2644
21655W        W39179   5.612  10.241  12.487  0.1835 -0.2399 -0.1220
21656W        W39180  17.336   1.202   4.112  0.0105 -0.0694 -0.0704
21657W        W39181   6.862  11.775   2.440  0.1622 -0.2158 -0.1344
21658W        W39182  17.619  13.242  13.425  0.0705  0.0231 -0.0701
21659W        W39183  14.193  11.004  13.322 -0.0743  0.0452 -0.0780
21660W        W39184  13.603   9.206   2.958 -0.1156 -0.1063  0.2664
21661W        W39185   1.346   3.834   5.139  0.1695  0.4402  0.2090
21662W        W39186  16.707  17.615  10.601  0.1010  0.0815  0.1326
21663W        W39187  17.982   2.850  13.506  0.0436 -0.1194 -0.1359
21664W        W39188  13.972  13.776   5.686  0.1415 -0.2085  0.0491
21665W        W39189  14.872   5.908   3.768 -0.0858  0.1777 -0.1554
21666W        W39190   6.588   7.700  10.927  0.4996 -0.1797 -0.0019
21667W        W39191   2.728  12.942  11.787  0.3395  0.3460  0.1543
21668W        W39192   0.984   5.241  11.539 -0.1972  0.1070  0.2441
21669W        W39193   2.508  13.691   2.971 -0.2571 -0.0122 -0.2621
21670W        W39194   9.435   2.310  11.483 -0.1049  0.1202 -0.0012
21671W        W39195   0.023   9.235   3.393 -0.2226  0.0216  0.0300
21672W        W39196   8.425  16.093  13.989 -0.2847 -0.2323  0.0872
21673W        W39197  12.932  10.902  14.039 -0.0978 -0.2605  0.2529
21674W        W39198  13.316  16.400   2.102 -0.2891  0.4416 -0.1105
21675W        W39199   1.563   3.781   3.527 -0.4247  0.2243 -0.1613
21676W        W39200   9.428  16.741  13.709  0.2134  0.2083  0.3464
21677W        W39201   3.936  10.436   0.340 -0.1747  0.0640  0.4015
21678W        W39202   6.807   1.723  15.678 -0.0024 -0.1120 -0.1854
21679W        W39203   6.075   9.297  12.380  0.2022 -0.0683 -0.0019
21680W        W39204   9.957  11.309   3.208 -0.2994 -0.0796 -0.0631
21681W        W39205   1.674  15.841   0.350 -0.2577 -0.2568 -0.3392
21682W        W39206   4.517   5.029   4.405  0.2421  0.2288 -0.1008
21683W        W39207   8.728   2.682   2.487 -0.2686 -0.0173  0.0976
21684W        W39208  11.372  12.015  11.895 -0.2225  0.2322 -0.1061
21685W        W39209  16.297   0.238   3.887 -0.0720  0.2925  0.3323
21686W        W39210   6.469  10.667  15.372  0.1194 -0.0485 -0.0211
21687W        W39211  11.809  13.168  12.338 -0.2077 -0.1419  0.1438
21688W        W39212  14.365  14.325  11.423  0.0418  0.1208  0.0375
21689W        W39213  12.366   2.747  10.842 -0.2379 -0.3683  0.2908
21690W        W39214   5.274  10.522  15.678  0.0901  0.0136  0.2254
21691W        W39215  12.904  12.872   0.699 -0.3838 -0.3293 -0.1057
21692W        W39216  14.893   7.913   2.936 -0.1254  0.0117 -0.0781
21693W        W39217   6.706   4.073  14.969  0.3487  0.1185 -0.0005
21694W        W39218   1.320   9.217  12.289 -0.2054  0.0334 -0.3866
21695W        W39219  11.410  12.756   4.950 -0.2921 -0.1234 -0.0292
21696W        W39220   6.481   9.261   2.393  0.0487 -0.2869  0.4540
21697W        W39221  12.198   2.506   3.990  0.5173  0.1764 -0.0751
21698W        W39222  11.845   6.337   1.525 -0.2079 -0.2218  0.2936
21699W        W39223   4.468   6.786  15.369 -0.0947  0.3026 -0.4400
21700W        W39224   5.652   5.817  15.421 -0.2072 -0.0332  0.1216
21701W        W39225  13.214   1.993  13.675  0.2314 -0.1445  0.1033
21702W        W39226  10.690  11.498   2.596  0.1511 -0.2929  0.4502
21703W        W39227   6.862   2.636  11.066  0.0179 -0.2729  0.0438
21704W        W39228  11.245  15.706   3.177 -0.2742  0.2333 -0.1348
21705W        W39229   9.880   8.401   3.038 -0.0835 -0.0328  0.2375
21706W        W39230   3.573  14.394  12.667  0.3159  0.1084 -0.2391
21707W        W39231  18.153   5.571  14.430 -0.0436  0.0638  0.0274
21708W        W39232   2.527   7.798  15.360  0.0912 -0.1815  0.0662
21709W        W39233  14.815   4.049   1.854 -0.0012  0.0654 -0.0435
21710W        W39234  15.320   3.542  13.974  0.0442  0.1289 -0.2348
21711W        W39235  18.439  13.341  15.433  0.0098  0.0818 -0.0796
21712W        W39236   3.177  15.631   2.526  0.1797 -0.1951 -0.0865
21713W        W39237   3.552   2.548  12.860 -0.3184  0.2240  0.3142
21714W        W39238   5.592  14.798  14.505  0.2405 -0.1075  0.2417
21715W        W39239   7.879  14.073   2.140 -0.2951  0.0416  0.2380
21716W        W39240   2.937  14.450  10.873 -0.1541 -0.1133 -0.0021
21717W        W39241   7.887  12.061   1.225  0.0548  0.1907 -0.1177
21718W        W39242  16.772  10.765   0.116 -0.2023  0.0404  0.0068
21719W        W39243  16.939  10.786   2.428  0.0733 -0.2004 -0.2151
21720W        W39244  10.050  11.472   1.938 -0.0319  0.3917  0.3470
21721W        W39245  14.586   9.531  12.390 -0.0033 -0.0572  0.0104
21722W        W39246   6.903   6.173   0.549 -0.2347  0.2124 -0.1151
21723W        W39247   4.368  16.041  14.789 -0.1896  0.0061  0.1047
21724W        W39248  14.358   0.293  11.643 -0.1957 -0.1007 -0.0190
21725W        W39249   8.603  15.534   2.632 -0.0395  0.0633  0.0059
21726W        W39250   7.699  11.817   2.253 -0.1975  0.0811 -0.2617
21727W        W39251   0.961   1.790   5.419  0.1371  0.0292  0.2607
21728W        W39252   4.846   2.376   3.385 -0.0504 -0.1383 -0.1493
21729W        W39253  12.627   7.238   4.576  0.1462  0.0130 -0.0483
21730W        W39254   0.334  11.725   3.940  0.1685 -0.1789  0.0453
21731W        W39255  14.342   1.139   5.639 -0.3282  0.0128 -0.0552
21732W        W39256  13.798  12.935  13.385  0.1426  0.0169 -0.0788
21733W        W39257  10.841   8.133   0.760  0.0811 -0.0307  0.2992
21734W        W39258   1.621   2.450   3.956 -0.2029  0.0045  0.2318
21735W        W39259  12.137  14.504   2.343 -0.3509 -0.1470 -0.0420
21736W        W39260  10.635   0.730   1.058 -0.0557 -0.2315  0.2002
21737W        W39261  12.770  16.086  13.320 -0.0999 -0.3274 -0.2578
21738W        W39262   1.476   4.646  12.197  0.0637  0.1555 -0.1238
21739W        W39263   7.230   2.933   0.001 -0.0194 -0.0613  0.2190
21740W        W39264   4.308  17.387  14.289  0.0628 -0.0393  0.0883
21741W        W39265   9.168  11.916  12.289  0.2518 -0.1115  0.0246
21742W        W39266   0.413   2.868  13.315 -0.2179 -0.1854 -0.0401
21743W        W39267  14.706   4.108   1.378 -0.4075  0.3367  0.1459
21744W        W39268  17.835  14.657  14.535 -0.1715  0.2569  0.1349
21745W        W39269   0.928   5.437   3.825  0.1009  0.0913  0.0114
21746W        W39270   4.496  12.098   4.762 -0.0337 -0.3165 -0.1545
21747W        W39271   0.220  15.176   5.637 -0.0334 -0.2390  0.0186
21748W        W39272  18.200  16.048   1.095  0.0532 -0.3703 -0.0792
21749W        W39273  17.568  16.568   2.068  0.1251  0.0425  0.1559
21750W        W39274   8.844   7.669   1.089 -0.0635 -0.1020 -0.2268
21751W        W39275   0.548  10.592   2.127 -0.0864 -0.0921  0.0794
21752W        W39276  17.985   2.651   4.637  0.1527 -0.3914  0.1260
21753W        W39277   6.239  17.931   1.203 -0.2895 -0.0426 -0.1367
21754W        W39278   3.885  13.038  14.207 -0.3601  0.1713 -0.0522
21755W        W39279  16.475   4.372  13.543  0.0109 -0.0657 -0.0312
21756W        W39280  14.669   9.348  11.286  0.1267 -0.0425  0.1726
21757W        W39281   2.782  11.871   4.160 -0.1576  0.1972 -0.0954
21758W        W39282  17.049   7.461  12.922  0.3649  0.1438  0.0224
21759W        W39283  13.193  13.255  11.119 -0.1865  0.1557  0.1432
21760W        W39284  15.883  10.197  12.179 -0.1145 -0.1013  0.0241
21761W        W39285   0.508   4.232  12.042 -0.2200  0.0997  0.0733
21762W        W39286  16.672   5.450   2.482 -0.0939 -0.2959  0.1270
21763W        W39287  15.915   9.606  14.023 -0.3465 -0.0979  0.0350
21764W        W39288  17.032   7.478   1.702  0.1762  0.0114  0.1458
21765W        W39289   6.322   2.925  10.930  0.0422  0.1283  0.0613
21766W        W39290   5.159  12.649   0.692  0.2895  0.1302 -0.0838
21767W        W39291   7.163   6.211  12.237 -0.0265  0.0230 -0.1431
21768W        W39292   1.200   0.617  15.184  0.1215  0.0829 -0.1714
21769W        W39293   5.365   9.640  13.508 -0.1951  0.0248 -0.0641
21770W        W39294  12.368   0.439   1.899  0.2663 -0.1300 -0.2930
21771W        W39295   4.050   6.187  14.703 -0.2914  0.1814  0.1552
21772W        W39296  12.581   9.799  13.019 -0.0645 -0.0733  0.0897
21773W        W39297   5.627   1.318  15.497 -0.3221  0.5161  0.0326
21774W        W39298  12.496   8.384   3.255 -0.1476 -0.2039 -0.0511
21775W        W39299   5.135  17.879  10.409 -0.2603  0.0161  0.0279
21776W        W39300   2.306  17.913   2.769 -0.2729 -0.1079 -0.0591
21777W        W39301   3.729   8.433   3.799  0.1344  0.0062 -0.2912
21778W        W39302   2.532   0.702   1.517  0.3507 -0.1015 -0.0840
21779W        W39303  17.084  17.322   3.410  0.3106 -0.1998 -0.1647
21780W        W39304   6.529   0.304  13.810 -0.0555 -0.1631 -0.0549
21781W        W39305   9.091  17.878  11.391  0.6003  0.0850  0.0800
21782W        W39306  18.309   4.913  14.743 -0.1231 -0.0134 -0.0768
21783W        W39307   4.261  13.812  13.244  0.0964  0.0525 -0.2233
21784W        W39308   4.053   6.461  13.808  0.4043  0.0865 -0.0239
21785W        W39309   9.200   3.040  13.493  0.1076 -0.2916 -0.0614
21786W        W39310  12.193  15.756   0.139 -0.0327  0.0216 -0.1347
21787W        W39311  12.842   7.598  12.691 -0.3460  0.1833  0.1643
21788W        W39312  18.031  14.837   2.842  0.0604 -0.0750  0.1024
21789W        W39313  15.172   8.682  14.166 -0.0460 -0.1906 -0.0479
21790W        W39314  12.001  12.446  14.413  0.0427  0.0630 -0.0336
21791W        W39315  10.247   5.601  14.199 -0.0111  0.1451 -0.0229
21792W        W39316   3.715   7.771   0.957 -0.3030  0.1529 -0.0654
21793W        W39317  17.199  14.398   3.278 -0.0183  0.1780 -0.2784
21794W        W39318   9.804   3.247  13.913  0.0932  0.0736  0.0051
21795W        W39319  16.288   8.981  14.683  0.3574 -0.0585 -0.1467
21796W        W39320  15.868  10.998  11.589 -0.3538  0.0885  0.0873
21797W        W39321   6.988   4.349   5.275 -0.0783  0.2179  0.0744
21798W        W39322  15.374   4.442   0.805 -0.0477  0.1404  0.4249
21799W        W39323   2.866  15.112   6.133  0.2076 -0.1148 -0.2453
21800W        W39324  17.443  13.044  14.513 -0.0424  0.2756  0.1463
21801W        W39325   5.564   7.381  14.427  0.0747  0.0617 -0.0088
21802W        W39326   1.688  13.941   1.418  0.3260 -0.0681 -0.1055
21803W        W39327  16.501  12.286  11.372  0.1406 -0.0890 -0.3126
21804W        W39328  10.176   8.965  11.269  0.0831  0.0596 -0.2498
21805W        W39329   2.381  15.594   0.834  0.1173  0.6187  0.0587
21806W        W39330  14.076   0.792   4.965  0.1353  0.1933 -0.0381
21807W        W39331  13.982   1.522  14.243 -0.0965  0.1224 -0.0972
21808W        W39332   3.459  13.281   3.077  0.0058 -0.0484  0.0552
21809W        W39333  18.143   5.185   4.246  0.3129  0.0404  0.2677
21810W        W39334   1.592   8.803  13.243  0.2682 -0.2615 -0.0241
21811W        W39335  14.195  11.380   0.450 -0.1525  0.1013  0.0097
21812W        W39336  11.556   9.522   2.064  0.3180 -0.0338  0.0877
21813W        W39337   8.273   9.493   9.885  0.0060  0.0564 -0.0736
21814W        W39338   6.066  16.742   0.911 -0.3143 -0.3294 -0.2016
21815W        W39339   1.450  15.061   2.580  0.1444  0.2024  0.0689
21816W        W39340  16.822  15.957   0.143  0.0503 -0.0189  0.0633
21817W        W39341  12.524  12.574   2.459  0.0830  0.1738  0.0216
21818W        W39342   5.989  16.692  10.810  0.2552 -0.0964  0.2190
21819W        W39343   6.438  12.947   1.627 -0.4164  0.2963 -0.0507
21820W        W39344   1.759   4.748   1.010  0.1317  0.0689 -0.0633
21821W        W39345   8.948  13.326   3.212  0.0885  0.2350  0.3199
21822W        W39346   8.650  15.940   2.919 -0.1004 -0.2891 -0.0245
21823W        W39347  13.894  16.255   0.145  0.0985 -0.0508  0.0976
21824W        W39348   7.172   6.942   4.697  0.2842 -0.1846  0.0204
21825W        W39349   1.046   1.011   1.449  0.1000  0.0164  0.1433
21826W        W39350   7.523   6.797   0.084  0.1268 -0.1071 -0.4455
21827W        W39351   8.211  11.223   3.802  0.2950 -0.1420  0.1974
21828W        W39352  11.342   5.160   1.574  0.4860  0.0184 -0.0146
21829W        W39353   8.209  17.548  11.369  0.1127 -0.0104 -0.0720
21830W        W39354   8.186   7.088  12.075  0.0250 -0.1636 -0.1609
21831W        W39355   5.720   2.717   1.959  0.0289  0.0909  0.2345
21832W        W39356   2.637   8.729   2.141  0.1515 -0.0793 -0.1923
21833W        W39357   0.096   9.797   2.829  0.1215  0.1745 -0.0628
21834W        W39358   8.644  13.226  12.511  0.0554 -0.2565  0.0153
21835W        W39359  17.951   9.833   2.601 -0.3043 -0.1310  0.2292
21836W        W39360  17.212  13.245   0.218  0.1320  0.0395 -0.3043
21837W        W39361  16.706  10.503  11.166  0.0236  0.0512  0.0427
21838W        W39362  10.323   3.236  11.495 -0.2886  0.2976 -0.2206
21839W        W39363   5.256  10.948   4.255 -0.0164  0.3430 -0.0103
21840W        W39364  15.625   6.757   0.528 -0.5133 -0.0399 -0.0584
21841W        W39365   6.160  15.736  10.943 -0.0724  0.1324 -0.0641
21842W        W39366   7.205   8.585  14.211  0.0114  0.0353  0.0060
21843W        W39367   5.675  12.064   4.595  0.0599 -0.1198 -0.0286
21844W        W39368  10.475  18.407  13.187  0.2219  0.2356 -0.2101
21845W        W39369   7.887   9.220   2.417 -0.0834  0.1798  0.2355
21846W        W39370   4.538  18.240   4.649  0.0954 -0.0839  0.1633
21847W        W39371  10.501  11.301  11.249 -0.2294  0.0553  0.0852
21848W        W39372   4.719  17.756  15.253 -0.2890 -0.2706  0.1198
21849W        W39373   2.423   2.652  13.479  0.1100 -0.0899 -0.2945
21850W        W39374   2.398   2.622   2.512  0.1314  0.1052 -0.1807
21851W        W39375  18.242   9.162  11.174  0.3772 -0.0393 -0.0833
21852W        W39376   3.565  14.744   4.272  0.1590  0.1424  0.4683
21853W        W39377   2.111  15.933  15.250 -0.0953 -0.0398 -0.2022
21854W        W39378  16.499   2.800   1.434 -0.2165 -0.1498  0.0962
21855W        W39379  14.028  11.223   4.482  0.1867 -0.1858  0.2100
21856W        W39380   3.495   0.799   4.397  0.4515  0.4284 -0.4210
21857W        W39381  13.291  17.195   3.345 -0.1452  0.2077 -0.4253
21858W        W39382  12.461  14.998   1.187  0.1382 -0.3576 -0.4498
21859W        W39383   9.729   7.225  13.744 -0.1659  0.0872 -0.2789
21860W        W39384  17.580   0.766  15.719  0.3327 -0.0278 -0.2681
21861W        W39385   8.916   4.496  11.048  0.0835  0.2917 -0.0579
21862W        W39386   8.384  10.598  15.453 -0.0615 -0.2208 -0.0018
21863W        W39387  18.081   7.824  11.605 -0.1994 -0.2564  0.2115
21864W        W39388   2.916   4.367   3.823 -0.2722 -0.1162 -0.1615
21865W        W39389  16.035   1.173   1.509  0.0566 -0.3193  0.4777
21866W        W39390   7.618   2.472  15.015 -0.1006  0.3326  0.0401
21867W        W39391   6.275  16.160  13.204 -0.2298 -0.1018  0.0442
21868W        W39392   2.349   9.288   4.509 -0.1924  0.1671 -0.1451
21869W        W39393   6.731   2.821   0.761  0.2848  0.1840  0.4120
21870W        W39394   8.598  11.755   1.192 -0.1551 -0.1783  0.3193
21871W        W39395  16.488   4.951  14.318 -0.5158  0.0499 -0.0539
21872W        W39396  11.965   4.007   1.654 -0.2554 -0.0436 -0.0219
21873W        W39397   8.776  12.929  13.286  0.1010 -0.0995  0.2180
21874W        W39398   6.872   4.539   0.265 -0.1200  0.2600  0.1190
21875W        W39399  12.260  11.992  13.924 -0.1774  0.0580  0.1143
21876W        W39400   5.960  12.831  13.781 -0.0793  0.0574  0.1113
21877W        W39401   5.554  15.052   4.636 -0.2021 -0.0395  0.1185
21878W        W39402   3.356   2.195   2.213  0.1197 -0.1470 -0.1539
21879W        W39403   4.759  15.429   3.055  0.0064 -0.4115 -0.2976
21880W        W39404  14.340  15.458   1.246  0.0041  0.1202 -0.0488
21881W        W39405  14.931   3.741  11.644 -0.5001  0.1045 -0.1911
21882W        W39406  15.022  14.557   2.520  0.3932  0.2038  0.2278
21883W        W39407  16.354  10.921  12.148  0.2560  0.2958 -0.2390
21884W        W39408  13.356  10.727   3.132  0.0486  0.2330  0.0036
21885W        W39409  14.675   2.272  13.844  0.0284  0.1491 -0.0762
21886W        W39410   5.199   9.726   4.680 -0.2006 -0.4326  0.0403
21887W        W39411   1.189   2.635  11.345 -0.0751  0.1332 -0.1800
21888W        W39412   9.567  16.066   3.666  0.2025  0.1706 -0.1599
21889W        W39413   5.537  17.135  14.508  0.2781 -0.2350 -0.0472
21890W        W39414  10.076  11.656  15.581  0.1340 -0.0272  0.1165
21891W        W39415  14.739  10.307   3.716  0.2930  0.4569  0.0186
21892W        W39416   7.258  14.261  12.753 -0.0534 -0.2556 -0.1271
21893W        W39417  10.724   8.661  11.441  0.3602  0.2118  0.2247
21894W        W39418  12.880   3.572   4.691 -0.0841  0.1823  0.0859
21895W        W39419  15.021  18.232  14.255 -0.3072  0.1382 -0.0845
21896W        W39420  16.336  17.799  11.338  0.2248  0.0165  0.0958
21897W        W39421   0.590   7.989   0.539  0.1937 -0.1956 -0.3233
21898W        W39422   2.738   7.900   1.239 -0.0166  0.2086  0.0951
21899W        W39423   8.452   1.633   2.962 -0.0560  0.4359 -0.0655
21900W        W39424   6.631  15.090   1.885 -0.0287  0.4314 -0.1362
21901W        W39425  10.311  16.784   0.986 -0.0478  0.0590 -0.1152
21902W        W39426  10.685   7.190   3.617 -0.1323  0.2421 -0.1413
21903W        W39427   1.809   1.064   5.760  0.1285  0.0248 -0.4652
21904W        W39428   4.957   3.277  13.965  0.1245  0.2492  0.0184
21905W        W39429   1.599   9.216   0.200  0.2987  0.0083  0.4304
21906W        W39430   0.701  17.843   0.812  0.1556 -0.0129  0.2420
21907W        W39431  11.621  12.712   0.983 -0.3474  0.1277 -0.0411
21908W        W39432   2.849   1.505  15.668 -0.0258  0.0884  0.3955
21909W        W39433  10.219   5.514   3.697  0.3210  0.1309 -0.3158
21910W        W39434   6.749  10.088   2.246  0.1775 -0.1996  0.3038
21911W        W39435  16.782  17.291  12.466  0.0116  0.1344  0.5304
21912W        W39436   5.163   0.118   3.390  0.0441  0.3111  0.2474
21913W        W39437   7.388   9.694  12.410 -0.2533 -0.0131 -0.0292
21914W        W39438  15.621  16.401   5.530  0.0274  0.1652 -0.1101
21915W        W39439  15.320  17.794   4.326 -0.2402 -0.0972  0.0048
21916W        W39440  16.082   9.666  15.561  0.1435  0.0194 -0.1448
21917W        W39441  17.740  11.741   1.265  0.2169  0.0027 -0.1562
21918W        W39442   7.507   3.437   2.166 -0.0210 -0.0196  0.0291
21919W        W39443  16.727  13.880  14.467  0.0764  0.3272  0.1869
21920W        W39444   2.337   6.636  12.826  0.0962 -0.2643 -0.0741
21921W        W39445  12.076   8.938   3.962  0.2446 -0.0419 -0.3812
21922W        W39446   5.453   7.767   1.958 -0.2433  0.0650 -0.2383
21923W        W39447   9.803   5.887   1.365 -0.1542  0.1034 -0.5008
21924W        W39448  17.286  11.659  12.834  0.2812 -0.0754 -0.3404
21925W        W39449  11.817   1.908  12.607 -0.1768 -0.0446 -0.1829
21926W        W39450   2.195  10.851  14.303 -0.1616 -0.0183  0.3897
21927W        W39451  14.107   0.298   2.306  0.0208 -0.1285 -0.3730
21928W        W39452   6.128   4.673  14.069  0.1280  0.0704  0.1270
21929W        W39453   5.079  14.706  14.440 -0.2934  0.1062  0.0770
21930W        W39454   4.359  16.131   4.804 -0.0907 -0.0323 -0.0029
21931W        W39455  14.782  10.238  15.416  0.0570  0.0084 -0.2161
21932W        W39456   0.457   7.863  11.942 -0.5503 -0.2425  0.1022
21933W        W39457   4.346   9.388   4.430  0.0050  0.0754  0.2479
21934W        W39458  17.904  16.375  12.604 -0.1569  0.0182  0.3479
21935W        W39459  15.400  13.808  12.791 -0.0358  0.2325  0.0389
21936W        W39460   8.257   3.012   4.398 -0.1914  0.1232  0.0515
21937W        W39461   7.928   3.204   2.253  0.0079  0.1953  0.3907
21938W        W39462  10.799   2.636  14.023 -0.0722 -0.1730 -0.0894
21939W        W39463   6.567   1.032  12.750  0.3918 -0.0374  0.0012
21940W        W39464  12.259  18.262  15.037  0.3485 -0.0032 -0.1198
21941W        W39465  14.522   4.779  15.430  0.0617  0.0752 -0.3148
21942W        W39466  11.636   3.271   0.561 -0.0210 -0.0409  0.0760
21943W        W39467  12.378   6.306  13.844  0.1061  0.2057  0.0975
21944W        W39468   8.937   8.271  15.387  0.0033 -0.1286  0.2364
21945W        W39469   4.663   5.598  14.004  0.2711  0.0106  0.0463
21946W        W39470   8.468  15.028   1.341  0.2629  0.1983  0.5419
21947W        W39471  15.997  13.081  15.634 -0.0967 -0.0380 -0.0975
21948W        W39472   9.721   8.802  12.991  0.2641  0.0253 -0.1897
21949W        W39473  11.963   0.812   1.293  0.0898 -0.1406 -0.1038
21950W        W39474   9.898   8.044   0.626  0.0440  0.2630  0.0707
21951W        W39475   9.027   9.456   0.397  0.3946 -0.4038 -0.1203
21952W        W39476   5.918   1.071   1.363  0.0595 -0.1143 -0.0388
21953W        W39477   6.531  15.706  13.327  0.0978  0.1548  0.0783
21954W        W39478   1.019   4.218   2.072 -0.1185 -0.2103  0.4117
21955W        W39479   5.851  11.731   4.945 -0.3376 -0.1292  0.0940
21956W        W39480  17.104   5.162  15.583  0.0485  0.0299 -0.1997
21957W        W39481  11.073  14.447   2.163 -0.0246  0.0030  0.1984
21958W        W39482   2.318   8.846   4.196 -0.0150 -0.1291  0.3062
21959W        W39483   2.036   7.965  13.531  0.2830 -0.3991 -0.0267
21960W        W39484  15.879  12.345   0.173  0.1118  0.1169 -0.2046
21961W        W39485  10.950   6.650   1.407  0.2202 -0.3836  0.1517
21962W        W39486   4.047  16.916  14.393 -0.2637  0.1080  0.0063
21963W        W39487   3.032  17.395   1.725 -0.0290  0.2156 -0.3876
21964W        W39488  14.039   4.604  12.078  0.5007 -0.1328  0.2876
21965W        W39489   2.505   1.818   0.841  0.0767  0.0015 -0.2873
21966W        W39490   8.671   3.574  12.573  0.1355  0.1579  0.0105
21967W        W39491   8.366  12.475  11.481  0.0753 -0.0317 -0.1618
21968W        W39492   0.329  12.180   2.410 -0.1754 -0.0324 -0.0983
21969W        W39493  10.061   5.773   4.187 -0.2661  0.0853 -0.3961
21970W        W39494  17.434  13.458  12.873 -0.1544 -0.1974  0.1394
21971W        W39495   2.556   7.301  14.269 -0.0250  0.0623 -0.6263
21972W        W39496  16.037  15.707   2.960 -0.1254  0.0600  0.2933
21973W        W39497   4.131  11.887  15.371  0.2366  0.1625 -0.0690
21974W        W39498  10.814   0.443  14.844 -0.0693 -0.1477  0.0489
21975W        W39499  15.782   2.065   0.290  0.1452  0.3988  0.0140
21976W        W39500  17.179   4.903  13.312  0.2207  0.1513 -0.0068
21977W        W39501   2.356  11.123   3.274 -0.1804  0.2059  0.0531
21978W        W39502   5.035   1.420   4.844  0.1487  0.1150 -0.1759
21979W        W39503  10.465   8.611  10.465  0.1725  0.2343 -0.1402
21980W        W39504   6.704   7.830   0.683  0.2371  0.0918  0.0768
21981W        W39505   3.310   2.382  13.941  0.1858  0.1440  0.2523
21982W        W39506  11.938   1.211  14.472 -0.1925 -0.2200  0.0151
21983W        W39507   8.878  15.364   1.483 -0.2100  0.3475 -0.0404
21984W        W39508   7.106   4.255   0.560  0.0425 -0.0378 -0.1772
21985W        W39509   6.328   7.996   0.370 -0.0073 -0.0895  0.2752
21986W        W39510  17.736   9.596  12.230 -0.1627 -0.0556 -0.0603
21987W        W39511   9.453   2.425   1.635 -0.1247  0.1571 -0.0764
21988W        W39512  13.821  13.349  15.462 -0.0188 -0.0939  0.2981
21989W        W39513  11.424   7.666   9.984  0.0695 -0.1482  0.3568
21990W        W39514   7.453   8.744   3.553 -0.2950  0.3256  0.2842
21991W        W39515   4.897  12.926  13.484 -0.2036 -0.3087 -0.2417
21992W        W39516   5.891  12.269   2.820  0.4124  0.4416 -0.3267
21993W        W39517   3.608  13.278  12.682  0.6149 -0.1078  0.4006
21994W        W39518   3.634   2.914  11.118 -0.3513  0.0462 -0.2946
21995W        W39519  14.527   9.287   2.892  0.1807 -0.0607  0.1161
21996W        W39520   4.870  11.620  14.262  0.1052  0.3629  0.1271
21997W        W39521   0.157   0.621  13.419  0.2253  0.0686 -0.1938
21998W        W39522   1.336   3.222  10.826  0.0807  0.0525  0.0424
21999W        W39523  14.269   0.218  13.046  0.0026  0.2207  0.0336
22000W        W39524   2.367  18.176  14.682  0.0637 -0.1504 -0.1861
22001W        W39525   0.524   1.119   4.982 -0.1314  0.1499 -0.1937
22002W        W39526  12.603   9.758   0.979  0.0712 -0.0891 -0.1016
22003W        W39527  11.765   5.084   0.964  0.0790  0.1493 -0.1247
22004W        W39528  16.395  17.814   1.971 -0.2211  0.2451 -0.0907
22005W        W39529   1.735  17.825   4.371  0.1897 -0.3397 -0.1497
22006W        W39530   3.715   4.496  15.647 -0.0868 -0.0528 -0.1765
22007W        W39531   9.890   3.542   4.566  0.3201  0.2350  0.1129
22008W        W39532   4.374  13.295   2.229 -0.3176 -0.0072 -0.1710
22009W        W39533  15.013  18.369   4.069 -0.1428  0.1137 -0.2526
22010W        W39534  11.247   3.245  14.048  0.1511  0.0925  0.2142
22011W        W39535   4.042   7.153  14.201  0.1663  0.1993 -0.0362
22012W        W39536  17.089  10.610   5.227 -0.0628 -0.3111 -0.0973
22013W        W39537   2.198  16.010   4.347 -0.0318 -0.1602 -0.0501
22014W        W39538  13.172   7.303  12.904  0.0083 -0.1197 -0.1535
22015W        W39539  15.748  18.309   2.034 -0.0513 -0.5068  0.0249
22016W        W39540  16.649   3.018  11.193 -0.2751  0.2178 -0.2524
22017W        W39541   5.685  16.470   5.477 -0.3595  0.2368  0.1743
22018W        W39542   1.697   7.724   1.132  0.0282  0.1000 -0.0252
22019W        W39543  16.814  16.460  11.777  0.0804 -0.1240 -0.0565
22020W        W39544  17.189  12.781   1.834 -0.0154  0.0880  0.2077
22021W        W39545  14.876  17.754  11.549  0.1030  0.2333 -0.2594
22022W        W39546   3.273  16.388  13.184 -0.1891 -0.1207  0.0490
22023W        W39547  12.279  14.092  15.363  0.4221 -0.2832 -0.0077
22024W        W39548   7.467   1.880  13.072  0.0090 -0.1239 -0.0488
22025W        W39549   8.028   4.759   4.421  0.1214 -0.2709  0.1090
22026W        W39550   1.262   7.984  11.546  0.5292 -0.1030  0.1328
22027W        W39551   7.405  13.828  10.580 -0.0992 -0.1355 -0.1207
22028W        W39552  13.600  12.543   3.323 -0.3305  0.1117 -0.0061
22029W        W39553   9.068   2.045   0.799 -0.0847  0.3564 -0.0684
22030W        W39554  11.047   9.286  13.195  0.0753  0.2851 -0.0443
22031W        W39555   2.808   5.053  14.038 -0.0378  0.2266  0.0071
22032W        W39556  15.392  12.029   0.643 -0.0934  0.1020  0.0198
22033W        W39557  12.421   1.758   2.780  0.1999  0.0942 -0.1774
22034W        W39558  16.666   1.981  11.776 -0.1195  0.0871 -0.1631
22035W        W39559  12.188  12.252   3.436 -0.2019 -0.1672 -0.0379
22036W        W39560   3.949   9.665   4.324 -0.0078  0.0581  0.0967
22037W        W39561   1.010   5.398   2.834 -0.0309  0.2326  0.1439
22038W        W39562  11.941   9.405   3.216 -0.1677  0.3540 -0.0770
22039W        W39563  14.635  12.237   2.578  0.1204 -0.0328  0.2488
22040W        W39564  12.430  18.031   4.600 -0.0912  0.0085 -0.1747
22041W        W39565  12.610   6.047   0.655 -0.0058  0.1432 -0.1430
22042W        W39566  15.760   4.648  14.264 -0.3189  0.2562  0.5218
22043W        W39567  11.352   4.630  11.041  0.1625 -0.0478  0.2794
22044W        W39568  14.761  14.332  11.914  0.2045 -0.0693 -0.3224
22045W        W39569   8.150  12.436   3.419  0.0556  0.0846  0.3330
22046W        W39570   6.896   3.809  11.319  0.4591 -0.2266  0.4492
22047W        W39571   1.845  12.596  12.725 -0.0163  0.1871 -0.0890
22048W        W39572   2.990  17.455   2.613  0.0982  0.3288 -0.0313
22049W        W39573  10.168  10.857   4.545 -0.3136  0.5311 -0.0592
22050W        W39574  15.795  10.910   4.430 -0.1892 -0.1861  0.2248
22051W        W39575  11.346   6.711  12.521 -0.1958  0.0309 -0.3590
22052W        W39576  14.836  13.813  12.062  0.0052 -0.1830  0.0498
22053W        W39577   1.137  14.565  12.884  0.3544  0.1062  0.0872
22054W        W39578  17.608  14.724   4.404  0.1302 -0.1627  0.1947
22055W        W39579  17.903   2.690   0.269  0.0322 -0.1661 -0.2515
22056W        W39580  12.000   4.347   2.071  0.3956  0.0410 -0.0887
22057W        W39581   5.207  11.496  11.681 -0.0874  0.0594 -0.1117
22058W        W39582  13.935  18.294   1.116  0.0320 -0.3146  0.2205
22059W        W39583  15.926  12.543  14.717  0.1061 -0.0373 -0.0679
22060W        W39584   4.281   5.988   3.464  0.2771  0.0252  0.1163
22061W        W39585  12.202   7.194   1.039  0.0211  0.0371 -0.0742
22062W        W39586   1.809   8.547  12.477  0.0921 -0.2000  0.1910
22063W        W39587   6.058  15.912   0.739  0.3596  0.1651  0.3230
22064W        W39588   6.865   3.903   1.544  0.1321 -0.1251 -0.1755
22065W        W39589  15.135  14.043   1.699  0.3052 -0.1594 -0.2643
22066W        W39590   9.471  18.135  14.085 -0.0683 -0.2106 -0.0751
22067W        W39591  10.048  15.652   2.668  0.0309  0.0716 -0.0442
22068W        W39592  12.142   6.584  11.292  0.3828 -0.2273  0.2889
22069W        W39593   5.769   8.372  13.386 -0.2558 -0.1700 -0.0182
22070W        W39594   6.445   8.056   3.367 -0.4208 -0.0193 -0.2851
22071W        W39595  15.047   6.358   3.821 -0.0456 -0.1885  0.0173
22072W        W39596   5.562   9.869   3.150 -0.1294  0.0923 -0.3437
22073W        W39597  12.616   4.548  12.897 -0.0231 -0.0476  0.0149
22074W        W39598   3.806   9.062  10.562  0.1212 -0.1697  0.0894
22075W        W39599   7.271  17.803   1.508  0.0859 -0.0903  0.0505
22076W        W39600  10.153   7.558   0.820  0.1339 -0.0760 -0.0610
22077W        W39601   6.816   9.945   4.627 -0.1159 -0.1144  0.0353
22078W        W39602   9.558  10.581   3.437 -0.3312  0.1170  0.1441
22079W        W39603   1.089  13.947   3.061 -0.1769 -0.0739 -0.3978
22080W        W39604  11.764   4.200   2.520 -0.3810 -0.1221 -0.3136
22081W        W39605   3.493  10.310  13.670 -0.2981  0.2540 -0.4299
22082W        W39606  12.488   2.390   0.573  0.2379  0.0925 -0.0562
22083W        W39607   5.219   2.962   1.519 -0.1522  0.2145  0.3990
22084W        W39608  13.831   6.536  13.163  0.0855 -0.0388  0.2584
22085W        W39609   1.310   5.814  15.297  0.0499  0.0147  0.1861
22086W        W39610   9.780  13.610   0.060  0.0894 -0.3079 -0.1546
22087W        W39611   0.415  15.226   1.607 -0.0976 -0.0666 -0.0806
22088W        W39612   7.643   1.928   4.878 -0.0826 -0.1579 -0.1590
22089W        W39613   0.652  17.230  15.641  0.0223 -0.2531 -0.3152
22090W        W39614  17.781  10.347   4.461  0.1646 -0.6868 -0.0998
22091W        W39615   0.519   7.882  15.301  0.0470  0.2432  0.0982
22092W        W39616   4.708  17.014   2.558 -0.3181  0.1078  0.1490
22093W        W39617   8.564  14.265  15.610  0.1064 -0.1065  0.1217
22094W        W39618   4.939  16.502  14.219 -0.3593 -0.4043 -0.3187
22095W        W39619  13.255   0.928   1.085  0.2186 -0.1237  0.0403
22096W        W39620   0.667   0.067  11.515  0.0993 -0.1486 -0.0914
22097W        W39621  12.605  12.403  13.785 -0.0639  0.2780  0.1312
22098W        W39622  13.304  17.809   0.627 -0.2503  0.2459 -0.0029
22099W        W39623  18.031  12.639   0.074  0.0979  0.2944  0.1347
22100W        W39624   1.488  17.673  13.253 -0.1835  0.1097  0.3389
22101W        W39625   9.308   9.867  14.737 -0.2096  0.0690  0.2089
22102W        W39626   0.151  16.782   1.183  0.2540  0.2694 -0.0523
22103W        W39627  17.843  12.904   2.370  0.2327 -0.1175 -0.2716
22104W        W39628  12.538   4.170  11.631  0.0163  0.3095  0.1398
22105W        W39629  14.071   4.489   0.668 -0.0855 -0.2275  0.3586
22106W        W39630   9.511   4.484  13.142  0.0745  0.0470  0.0551
22107W        W39631  10.836   8.076  13.798  0.0265  0.0052  0.0503
22108W        W39632  10.183   4.008  11.241 -0.0851 -0.0510 -0.1977
22109W        W39633  15.615  12.643  15.602 -0.3130 -0.1339  0.2280
22110W        W39634  18.008   5.701   3.802  0.1490  0.1901  0.0990
22111W        W39635  11.607  18.429   1.436  0.1261  0.2491  0.2208
22112W        W39636   2.542  16.464   0.738  0.1940  0.2024  0.0495
22113W        W39637   4.196   0.533   1.387  0.0970 -0.1769  0.0910
22114W        W39638  16.060   6.956  10.765 -0.2980 -0.3239  0.2623
22115W        W39639  12.174   2.684  15.451 -0.1067 -0.1584  0.0754
22116W        W39640   8.362   3.363  12.083  0.3980 -0.0095  0.0402
22117W        W39641  16.533   2.148  14.713  0.0524  0.2373 -0.2085
22118W        W39642   0.323  15.191   4.064  0.1746 -0.0776  0.4853
22119W        W39643  17.959  14.260  14.072  0.2500  0.2883 -0.0838
22120W        W39644   5.495  12.545  10.856  0.1683 -0.2380 -0.0944
22121W        W39645  18.256  17.216  12.976 -0.2502  0.1657  0.2113
22122W        W39646  16.939  17.649  12.118 -0.1649 -0.1127  0.0347
22123W        W39647  16.555   3.878  12.889 -0.0391 -0.1480  0.2230
22124W        W39648   3.631  13.575   0.576 -0.1142 -0.3030  0.1674
22125W        W39649  11.829  17.899   0.741  0.0498 -0.2832 -0.0968
22126W        W39650   0.041   8.746   4.107 -0.0154 -0.0918  0.0758
22127W        W39651   4.320   1.900   4.559  0.3106 -0.0220  0.1032
22128W        W39652  10.073   1.965   2.034  0.0381  0.0790  0.0758
22129W        W39653   3.256   1.716  12.433 -0.0421 -0.2696  0.0194
22130W        W39654  10.400   2.748  12.594  0.0819  0.0918  0.2591
22131W        W39655   3.021  12.326  11.968 -0.0797  0.0382  0.0298
22132W        W39656  10.044  18.316  14.535 -0.3753 -0.1248 -0.0918
22133W        W39657   2.911   1.760  11.406 -0.0863 -0.0255  0.0052
22134W        W39658   0.795   1.284   2.809 -0.1744 -0.2293 -0.2690
22135W        W39659   3.137   2.759  14.635  0.1779  0.0509  0.4195
22136W        W39660   1.107  17.181  15.438  0.1958  0.1618  0.1602
22137W        W39661   0.430   4.149   1.254  0.1028 -0.2791  0.1002
22138W        W39662   9.338  15.144   5.393 -0.0563 -0.0230 -0.2508
22139W        W39663  17.072  13.653   3.757  0.3029 -0.3214 -0.1089
22140W        W39664  16.163   0.967   3.365  0.0269  0.2002 -0.1320
22141W        W39665  17.257  13.747   4.213 -0.1605 -0.0164  0.2223
22142W        W39666   8.126  17.718  12.206 -0.1921  0.3701 -0.1328
22143W        W39667   0.621   3.223  14.970 -0.0953 -0.2638 -0.0289
22144W        W39668  12.992   5.279  12.481  0.3677 -0.3447 -0.3052
22145W        W39669  12.426  18.327  13.405  0.1355 -0.3495 -0.0710
22146W        W39670   2.688   2.262   0.684 -0.0714  0.0126 -0.0591
22147W        W39671   4.680   2.833  13.966 -0.2735  0.3039  0.0850
22148W        W39672  10.264   1.397  14.035 -0.2474  0.0664  0.2281
22149W        W39673   3.144   4.774  14.456  0.3691 -0.0497  0.0156
22150W        W39674   4.233   9.090  14.104  0.0663 -0.1657 -0.0925
22151W        W39675   4.067  13.029  11.011 -0.0191  0.0696 -0.0229
22152W        W39676   9.189   2.705  11.673 -0.0470 -0.0228 -0.1207
22153W        W39677   1.066   7.872   0.642 -0.0840 -0.1235 -0.0626
22154W        W39678   7.965   4.402   4.064  0.0325  0.1384 -0.0175
22155W        W39679  17.372  17.667  11.605  0.0006  0.1169 -0.1481
22156W        W39680   2.722  17.841   0.042 -0.1817 -0.1054  0.1513
22157W        W39681  12.429  13.780  14.360 -0.2272 -0.0297 -0.2856
22158W        W39682  11.836  15.671   3.215  0.1114  0.1299  0.0898
22159W        W39683   7.583   6.562  14.706 -0.1095  0.0329  0.0783
22160W        W39684   6.838   5.303  13.017  0.1086 -0.0654 -0.2547
22161W        W39685   6.720   7.012  10.229 -0.2978  0.4800  0.0920
22162W        W39686  16.453  11.467   4.001 -0.2940  0.1593 -0.0586
22163W        W39687  10.542   4.350  12.548  0.2968 -0.0225 -0.2038
22164W        W39688   7.856  11.000   0.324  0.1626 -0.1978  0.1954
22165W        W39689   0.905   8.767   5.540  0.2519 -0.1265 -0.0938
22166W        W39690   2.280   7.965   3.649 -0.0312 -0.1916 -0.0751
22167W        W39691   2.789   5.080   1.993 -0.1308  0.1069 -0.1184
22168W        W39692  10.843  14.807   0.130  0.0098 -0.0330  0.0424
22169W        W39693  10.704   6.712   4.503  0.0518 -0.2943 -0.0834
22170W        W39694   4.183   5.026  11.915 -0.2110 -0.1688 -0.3314
22171W        W39695   9.401  15.250  14.716 -0.1661 -0.0116  0.0826
22172W        W39696  14.841  15.772   2.158  0.0070 -0.2989  0.1344
22173W        W39697   5.565  14.235   2.492  0.1452 -0.3050 -0.0308
22174W        W39698   1.437   8.143   0.970  0.0903  0.0081  0.1201
22175W        W39699   4.303   1.174  13.237  0.2170  0.2633 -0.5249
22176W        W39700  15.198  15.004   1.684 -0.1737  0.1106  0.0329
22177W        W39701   5.990  13.764   4.455 -0.0564  0.0364  0.0570
22178W        W39702  15.137   6.615  13.905  0.0519  0.0429 -0.0344
22179W        W39703   2.765   5.439  14.375  0.0697 -0.0073  0.0616
22180W        W39704   6.146   1.066  15.405  0.1333  0.2356  0.2718
22181W        W39705   0.502  14.818   0.520  0.2642 -0.0781  0.1367
22182W        W39706  17.946   3.111   3.231  0.1395  0.1527 -0.0322
22183W        W39707   1.006  13.775  13.974  0.1661  0.2009  0.2881
22184W        W39708  15.647   2.115   1.027 -0.1773  0.1874 -0.0373
22185W        W39709  11.347  17.829   3.553  0.1402  0.0184 -0.0978
22186W        W39710   9.460   6.749  13.509  0.4022  0.0194  0.0960
22187W        W39711   6.811   3.491   2.832  0.1825  0.0480 -0.1491
22188W        W39712  12.762   4.164   4.085  0.2639 -0.3276  0.2080
22189W        W39713  10.623   9.668  11.811 -0.1367  0.0019 -0.1888
22190W        W39714  14.595  17.926   3.262 -0.1203  0.2223  0.0451
22191W        W39715  14.959   7.647   3.934 -0.0426 -0.0628 -0.2171
22192W        W39716   2.182  17.245  13.543  0.0654 -0.0721 -0.1180
22193W        W39717   2.655  13.222  10.938 -0.0075 -0.1625  0.0124
22194W        W39718   9.939  18.427  13.905  0.0339  0.1542 -0.0118
22195W        W39719   8.256  10.718   0.247 -0.0352 -0.2914  0.0629
22196W        W39720  13.880  12.931   1.539  0.2431  0.1572 -0.0027
22197W        W39721   1.574   3.607   2.988 -0.2210  0.1793  0.1294
22198W        W39722   8.813   6.678  10.873 -0.2747 -0.1077  0.0108
22199W        W39723  15.680  11.455   1.246 -0.0868  0.1767 -0.1054
22200W        W39724   7.299   0.644  14.859 -0.1022 -0.1638  0.0929
22201W        W39725  18.412  11.118  12.976 -0.1519 -0.1893  0.0007
22202W        W39726   4.776   3.400   2.754  0.0515 -0.0085  0.1216
22203W        W39727  15.013   7.231   0.913 -0.1891  0.0121 -0.1968
22204W        W39728  10.151   4.679   2.052 -0.1572  0.0283 -0.1877
22205W        W39729   6.915   0.551   1.035  0.0601  0.1178 -0.1066
22206W        W39730   2.370  13.411  12.486  0.1462  0.2492  0.1988
22207W        W39731   2.001  17.506  13.115  0.2881 -0.1862 -0.0393
22208W        W39732   9.569   9.942   5.744  0.1165 -0.0828  0.1409
22209W        W39733  13.419  18.072   2.383  0.1828 -0.0303  0.1797
22210W        W39734   2.435  12.923   0.943  0.1029 -0.0714 -0.1980
22211W        W39735   4.337   0.264  13.778 -0.1494 -0.0741  0.2777
22212W        W39736   0.821   5.993  14.701  0.3697  0.0339  0.1755
22213W        W39737  18.194  12.199  14.937 -0.0053 -0.1929  0.1902
22214W        W39738  14.690  10.458   4.161 -0.1805 -0.1204  0.0487
22215W        W39739   3.721  17.146  11.627  0.1355  0.1134  0.1353
22216W        W39740  17.880   7.797  12.733  0.0921 -0.0572  0.1164
22217W        W39741   9.325  16.210  11.094  0.0844 -0.1063  0.0626
22218W        W39742   4.786  13.637   2.168  0.1600  0.0394  0.1241
22219W        W39743   7.292  16.994   3.540 -0.1465 -0.1085 -0.0213
22220W        W39744   7.145   0.692  13.426 -0.1492 -0.2999 -0.0536
22221W        W39745  14.592   4.056   2.740  0.1290 -0.0182  0.0428
22222W        W39746   4.237  15.018  15.422 -0.0733 -0.2626 -0.1596
22223W        W39747   6.389   4.094   5.568  0.0410 -0.0830  0.1965
22224W        W39748  15.676  16.041  12.972  0.1381  0.0325  0.0915
22225W        W39749   8.920  18.340  11.975 -0.0458  0.0833  0.0901
22226W        W39750   2.132  15.534   1.285 -0.1613  0.1328  0.1356
22227W        W39751   4.996   8.450  12.064 -0.0302 -0.1111  0.0414
22228W        W39752   2.068  13.707   5.547  0.0701  0.0052 -0.3132
22229W        W39753  16.223   4.144   0.385 -0.2016 -0.0639 -0.1029
22230W        W39754  15.825   7.689   3.559  0.1418  0.2137 -0.0778
22231W        W39755   6.157  12.190  13.830  0.0710  0.0113 -0.0452
22232W        W39756   5.853  13.170   4.398 -0.1259  0.0868  0.1446
22233W        W39757  15.338   8.099  13.133 -0.0105  0.2335  0.5914
22234W        W39758   4.201   7.131  13.190 -0.2041 -0.1445 -0.2517
22235W        W39759  18.307   9.516   1.951  0.1407 -0.0888 -0.0645
22236W        W39760   1.341  12.146  15.240  0.0526  0.2696  0.0740
22237W        W39761   0.452   1.059   3.670 -0.1045  0.0854 -0.1419
22238W        W39762  10.073   2.716   2.748  0.1168  0.0536  0.1102
22239W        W39763   2.916  13.990  15.100  0.2612 -0.5478 -0.2997
22240W        W39764   0.963  10.825  14.456 -0.1289  0.1216 -0.1575
22241W        W39765   0.469   4.137   5.105 -0.0968 -0.1209 -0.1683
22242W        W39766   1.612   3.079   2.595 -0.0683 -0.1641  0.0451
22243W        W39767  18.370  13.817   1.452  0.4255  0.1927 -0.1928
22244W        W39768  13.653  13.889   1.582  0.2235 -0.0850  0.4397
22245W        W39769  15.674   2.790   5.121  0.2593  0.2328  0.3234
22246W        W39770   0.406  13.386  14.400 -0.0643 -0.0357 -0.1154
22247W        W39771   6.140   1.238  11.935  0.1400 -0.0076 -0.1431
22248W        W39772   0.365  11.928   5.488  0.1806 -0.3723  0.3573
22249W        W39773   8.557  14.724   2.222  0.2272  0.1131  0.0413
22250W        W39774   8.547  11.531   3.672  0.0543 -0.0337 -0.1919
22251W        W39775   3.064  13.641  10.968 -0.1161  0.0535  0.0706
22252W        W39776  15.168  10.326   3.442  0.1130 -0.2276  0.0360
22253W        W39777   0.369   2.741  14.149 -0.0835  0.1180  0.0112
22254W        W39778  17.870   9.629  11.106  0.0894 -0.2185 -0.1294
22255W        W39779   8.893  14.378  13.512 -0.3650 -0.0036  0.0046
22256W        W39780   2.811  10.968   0.674 -0.0192  0.1621 -0.0437
22257W        W39781   0.936  15.290  12.434 -0.0625  0.3927 -0.1469
22258W        W39782  10.381   7.972   2.853 -0.1772  0.2074  0.3717
22259W        W39783  11.666   3.478  12.531 -0.2425  0.2569 -0.0174
22260W        W39784   2.718   5.719   0.884  0.0856  0.1293 -0.1840
22261W        W39785  10.492   7.803   5.381  0.0913 -0.1041 -0.1239
22262W        W39786  13.646   7.015  14.795 -0.0089 -0.3164 -0.1445
22263W        W39787   5.028  11.090   0.703 -0.2500 -0.1127 -0.0047
22264W        W39788  18.049   2.001  11.408 -0.0393  0.1540 -0.1624
22265W        W39789   6.047  14.981  13.399 -0.1330 -0.0198  0.1751
22266W        W39790   9.044   7.208   1.904  0.0146 -0.2147  0.2396
22267W        W39791  13.565  13.563   0.317  0.1568  0.0268  0.0057
22268W        W39792   7.551  15.795  12.535 -0.0605 -0.2058  0.0083
22269W        W39793   9.002   5.575  15.355 -0.0650 -0.1240 -0.0491
22270W        W39794  14.821  16.340   4.211  0.2145  0.2575  0.0246
22271W        W39795   1.165   1.577   2.136  0.1624  0.0075 -0.1755
22272W        W39796  13.248   5.586   5.409 -0.0642  0.1303 -0.0817
22273W        W39797   4.857   8.410  12.889 -0.1844 -0.2250 -0.1214
22274W        W39798   3.895   8.622  15.162 -0.0323  0.0863  0.1055
22275W        W39799  12.488  10.486  10.416  0.0527  0.0277 -0.3552
22276W        W39800   6.398   0.319  13.127 -0.1603 -0.4083  0.1410
22277W        W39801  10.716  12.880  13.153  0.3816 -0.1107  0.1312
22278W        W39802   5.728  16.817   0.314 -0.1673 -0.0542 -0.2878
22279W        W39803  14.054  13.508  11.709 -0.5296 -0.0421  0.0664
22280W        W39804   2.945   3.338   0.450  0.1788  0.0021  0.0201
22281W        W39805   0.381   2.137   3.650 -0.1729 -0.0940  0.0121
22282W        W39806   0.929  16.655  12.363 -0.3173 -0.3353  0.1149
22283W        W39807  15.250   0.980   2.842 -0.1437  0.1410  0.0484
22284W        W39808  10.918  17.387   2.731 -0.0030  0.2523 -0.3538
22285W        W39809   6.579   4.309   1.375 -0.1090  0.1598 -0.1540
22286W        W39810   4.786  15.893   2.806 -0.1719 -0.1061 -0.0116
22287W        W39811   7.744  17.106   0.605  0.3260 -0.1533  0.0568
22288W        W39812   2.847  17.362  10.470 -0.1854 -0.1938  0.1157
22289W        W39813  10.388   5.828   2.150  0.1762  0.2750  0.2266
22290W        W39814   0.200  10.590   1.198 -0.2064 -0.2752  0.1753
22291W        W39815   9.530  16.545  12.214 -0.0779 -0.1033 -0.1134
22292W        W39816   0.964  14.435  15.069 -0.0764 -0.0082  0.1002
22293W        W39817   6.593   5.555   4.774 -0.1627  0.1597 -0.1645
22294W        W39818  12.449   1.028   5.887  0.1051 -0.1530 -0.1510
22295W        W39819  13.603   6.066  12.652  0.0911 -0.1899 -0.1849
22296W        W39820   5.689   0.539  13.459  0.1631 -0.0201  0.1729
22297W        W39821   7.596  10.856  13.156  0.0778 -0.1168  0.1250
22298W        W39822  13.982  10.439  12.584  0.0830  0.0732  0.1044
22299W        W39823  13.923   7.473  13.248 -0.1277  0.1160  0.1208
22300W        W39824   3.461  17.080   0.848  0.0558 -0.1057 -0.2746
22301W        W39825   6.108   7.846   2.890  0.1789  0.2253 -0.1801
22302W        W39826  15.714   5.412  15.500  0.0372 -0.1261  0.2691
22303W        W39827  14.343  10.244   1.506 -0.1397  0.3358 -0.0733
22304W        W39828  17.089   1.534  11.204 -0.0150 -0.2360 -0.2292
22305W        W39829  18.481  13.146   4.845  0.0506  0.2618  0.1528
22306W        W39830   7.149  13.931  13.170  0.0067  0.2074  0.1175
22307W        W39831  18.318  16.859  15.129 -0.1461 -0.0321 -0.3718
22308W        W39832  14.330   7.650   1.300  0.0714  0.2103 -0.1815
22309W        W39833   4.412  17.561   3.934 -0.1130  0.0349 -0.1156
22310W        W39834   7.047  10.352  12.684 -0.1225  0.3044  0.2058
22311W        W39835  11.390   3.651  12.079  0.0988  0.2357 -0.0676
22312W        W39836   7.218   4.830   3.958 -0.2417  0.4632 -0.1756
22313W        W39837  14.743   9.993   4.838 -0.0551 -0.2522 -0.1182
22314W        W39838   3.663   7.281   5.232  0.2520  0.1041 -0.0275
22315W        W39839   4.905   4.615  12.885 -0.6206 -0.0742 -0.0259
22316W        W39840   2.693   5.446   3.965  0.0495  0.0233  0.3969
22317W        W39841   5.831  15.681   3.109 -0.2291  0.0161 -0.0601
22318W        W39842   3.504   4.099  13.750 -0.2803  0.3350 -0.0996
22319W        W39843   5.318  16.419  13.396  0.1357  0.0738 -0.1525
22320W        W39844  11.343  13.598   3.767  0.0208  0.0424 -0.1358
22321W        W39845   3.431   2.169  15.443 -0.1487  0.0126 -0.0119
22322W        W39846   9.626  13.562   4.000 -0.1815  0.1856 -0.0984
22323W        W39847   8.368   8.429  11.287  0.2461 -0.1610 -0.1152
22324W        W39848   6.645  12.246   3.640  0.1334 -0.3242  0.0533
22325W        W39849   5.556   0.242  14.148  0.1512 -0.2985  0.1958
22326W        W39850   1.037   4.416   2.844  0.1730  0.0587 -0.0896
22327W        W39851   7.116  12.736  12.179 -0.2984  0.0914  0.0268
22328W        W39852  17.271   0.306  13.825  0.0120 -0.0141 -0.2899
22329W        W39853   9.999   4.636   1.556  0.3020  0.3517  0.3132
22330W        W39854  14.020   9.593   3.671  0.0670  0.2798 -0.0350
22331W        W39855  12.155  13.208  10.075  0.2035 -0.1182 -0.1858
22332W        W39856   6.846  12.147   1.400 -0.0233  0.2463  0.0156
22333W        W39857   3.462  17.268   2.451  0.0847 -0.1438 -0.0857
22334W        W39858  17.789   6.131   3.621 -0.2520 -0.0419 -0.0986
22335W        W39859   9.592  12.922   0.652 -0.1835 -0.1587 -0.0223
22336W        W39860   5.386   5.076   3.867  0.0326 -0.1912 -0.0806
22337W        W39861  16.905  10.875   3.439 -0.0443  0.2565 -0.3232
22338W        W39862  10.240   3.428   2.260 -0.0356 -0.0392  0.3670
22339W        W39863  13.614   6.773   2.875  0.2269 -0.3157 -0.0133
22340W        W39864  13.345   2.514  10.869  0.2212  0.0032  0.1377
22341W        W39865  11.054   5.714  11.078 -0.1455  0.0634 -0.3955
22342W        W39866   0.275   3.568  14.971  0.0747 -0.2681  0.2247
22343W        W39867  18.268   9.293   4.172 -0.0670 -0.1766  0.1730
22344W        W39868   6.461   8.391  12.585 -0.2217 -0.1757  0.2453
22345W        W39869   8.351   4.689   0.720  0.0508 -0.0728 -0.3280
22346W        W39870   5.518   9.087  13.781  0.1118 -0.1545  0.0224
22347W        W39871   0.008  12.572  14.884 -0.1675  0.1070  0.2699
22348W        W39872  18.344  10.866  11.562  0.1211  0.0277 -0.1031
22349W        W39873   1.326  14.529   2.536  0.0667 -0.2412  0.2003
22350W        W39874  17.306   3.472   1.473  0.3292 -0.0878  0.0454
22351W        W39875   7.773   7.811   4.551 -0.2460  0.0795  0.1311
22352W        W39876  17.864  14.871   0.833 -0.3334 -0.0574  0.2957
22353W        W39877   3.251   2.731  13.191 -0.0325 -0.1226  0.0831
22354W        W39878  17.477  11.974  13.723  0.0351  0.0858  0.1381
22355W        W39879   6.371  14.144   2.121  0.0909 -0.2702  0.1363
22356W        W39880   2.962   9.271   0.098  0.1690 -0.0818 -0.2197
22357W        W39881  18.039  17.113  11.323 -0.1810 -0.0028  0.1267
22358W        W39882   2.697  14.031   3.803 -0.1456 -0.0104  0.0899
22359W        W39883  14.621   6.018   4.679  0.1598 -0.0162  0.0282
22360W        W39884   4.856  10.957   2.142  0.1219 -0.1706  0.5286
22361W        W39885   1.574  17.643  13.995  0.1944  0.2481  0.0707
22362W        W39886  13.229   7.600   5.855 -0.1133 -0.1725 -0.0348
22363W        W39887  16.224   2.145  13.233  0.3069 -0.2694  0.1398
22364W        W39888  14.839   6.252  11.771  0.3621  0.2049  0.1931
22365W        W39889  18.263  12.865  11.758 -0.0020  0.0881 -0.1750
22366W        W39890   6.347   5.711  11.500  0.5127 -0.1474  0.0621
22367W        W39891   9.991   5.579  15.243  0.0662  0.0581  0.0446
22368W        W39892  15.892   1.287   1.987  0.1129  0.0474  0.5431
22369W        W39893   8.024   3.101  15.280 -0.1013  0.0449 -0.0317
22370W        W39894   5.512   4.056   4.276  0.1155  0.0303  0.1273
22371W        W39895   7.280  14.643  14.745 -0.0599  0.2884 -0.0397
22372W        W39896   9.859   3.269   1.321  0.0563  0.0200  0.0649
22373W        W39897   2.834   1.955  13.906 -0.3100  0.2179  0.0344
22374W        W39898   4.628  18.372   2.043  0.0260  0.0443  0.0630
22375W        W39899  10.408   5.270   1.745  0.1769 -0.1978 -0.0029
22376W        W39900   7.036   8.025   2.092  0.1703 -0.1990 -0.1397
22377W        W39901  14.032  17.809   5.498  0.1183  0.0210  0.0856
22378W        W39902   3.251   0.194  11.335 -0.2318 -0.0012  0.1929
22379W        W39903   8.072   6.714   0.179  0.0874  0.1025 -0.0034
22380W        W39904  12.640  16.636   5.262  0.2154 -0.0896 -0.0773
22381W        W39905  10.860  10.787  14.897  0.0570 -0.0893 -0.2477
22382W        W39906   5.903   1.517   1.561 -0.1540  0.1916 -0.0344
22383W        W39907  13.762   3.882  13.903  0.1791  0.0471  0.0436
22384W        W39908   8.174  13.671   2.415 -0.1945 -0.3280 -0.1341
22385W        W39909  12.528  10.643  11.534 -0.2644  0.0736 -0.3424
22386W        W39910   0.834  12.355   2.548  0.1230 -0.2113  0.2696
22387W        W39911   5.929   0.149  11.441 -0.1422 -0.0655 -0.1111
22388W        W39912  14.491   8.081   3.835 -0.0809  0.0178 -0.1913
22389W        W39913   2.312   6.575  14.215  0.0534 -0.0738  0.1308
22390W        W39914   0.928   3.922  12.224  0.0291 -0.1272 -0.1277
22391W        W39915  12.458   3.394  12.435 -0.1726  0.3306 -0.2074
22392W        W39916   5.175  10.039   1.559 -0.0636  0.1358  0.1418
22393W        W39917  16.169  17.519  14.575  0.0117 -0.1020 -0.4436
22394W        W39918  14.704  13.937  15.551  0.0894  0.1513 -0.2144
22395W        W39919   8.590   4.290   0.981 -0.0510  0.3111 -0.1284
22396W        W39920  13.111  14.365  14.474  0.0324 -0.0039  0.0349
22397W        W39921  14.910   0.824  12.573  0.1814  0.0645  0.1353
22398W        W39922  15.732  10.887   0.107 -0.1421 -0.3136  0.1850
22399W        W39923  16.323   0.736   3.895  0.1628 -0.2857  0.3015
22400W        W39924   5.547   0.301   3.112  0.2128  0.0199  0.0190
22401W        W39925   5.974   6.222  14.333  0.1334  0.2806  0.2263
22402W        W39926   4.662  12.120   0.353 -0.2134  0.0187 -0.0141
22403W        W39927  13.572   4.850  15.408  0.2081  0.1102  0.3644
22404W        W39928   9.679   7.168   2.617  0.0124 -0.1756 -0.0072
22405W        W39929  11.599  12.728  15.294 -0.2391 -0.1423  0.2659
22406W        W39930  16.247  15.744   1.733 -0.0686  0.0379 -0.0499
22407W        W39931  10.165   2.271  14.483 -0.1203  0.0583  0.1202
22408W        W39932  16.221   4.616   3.168 -0.2324 -0.1544 -0.0999
22409W        W39933   3.758   7.470   4.731 -0.1894  0.2215  0.1530
22410W        W39934  12.847  18.425   4.025 -0.0431 -0.1735 -0.0325
22411W        W39935  17.993   6.679  15.434 -0.0512 -0.0965 -0.0545
22412W        W39936   1.000  11.440  12.781  0.2541  0.0002 -0.0242
22413W        W39937  16.026   0.352   4.365 -0.0604  0.1188 -0.0769
22414W        W39938  16.624  12.019   3.330  0.0553 -0.0061  0.2338
22415W        W39939  13.801  13.607  13.414 -0.2642  0.0000 -0.1276
22416W        W39940   0.758  16.046  14.681  0.3765  0.0123  0.1633
22417W        W39941   0.111  12.649  11.399  0.0669  0.2100  0.3347
22418W        W39942  12.179   6.134   0.840  0.2941  0.1407  0.0076
22419W        W39943  14.531   6.890  12.442  0.0820 -0.1106 -0.0136
22420W        W39944  15.167  18.219   2.638 -0.0954 -0.1868 -0.0765
22421W        W39945  17.600   5.582  15.172  0.0048  0.2606  0.1102
22422W        W39946  14.097   9.214  13.046  0.0947  0.1722 -0.1685
22423W        W39947   8.575  11.113   1.797 -0.1363  0.1981 -0.2004
22424W        W39948   3.811  12.141   5.431  0.0984 -0.0353 -0.1448
22425W        W39949   5.954  12.700   3.851 -0.3232 -0.0200 -0.1269
22426W        W39950   0.918  12.400   4.150  0.3519 -0.0632 -0.1075
22427W        W39951   7.286   4.504  12.252  0.1231  0.3154  0.2280
22428W        W39952   2.735   6.750  12.572 -0.0239 -0.0281  0.0925
22429W        W39953   8.306   1.880  14.169  0.0414  0.0306  0.0386
22430W        W39954  13.511   6.394   0.537 -0.2145 -0.0318 -0.0981
22431W        W39955  10.747   1.935  13.263  0.0432  0.0433 -0.3551
22432W        W39956   7.968  12.693   2.467 -0.1151 -0.0201  0.1989
22433W        W39957  11.761   7.237   1.269 -0.1065  0.3265 -0.0621
22434W        W39958   7.251   5.608  11.599 -0.1274  0.0002 -0.1010
22435W        W39959   7.881  14.206  12.111 -0.0994  0.1479 -0.2462
22436W        W39960  13.444   6.709   5.805 -0.0016 -0.1172  0.1505
22437W        W39961  15.455   0.436  13.268 -0.1401 -0.0208 -0.1274
22438W        W39962   0.056  14.200   1.195 -0.0275 -0.1627  0.1858
22439W        W39963   9.899  17.283   2.799 -0.1697 -0.0356 -0.0796
22440W        W39964  12.747  14.018   2.098  0.3984  0.0335 -0.0985
22441W        W39965  15.876  17.848   2.168  0.1680 -0.0443  0.1312
22442W        W39966   3.806   3.887   1.207  0.2950  0.2989 -0.1517
22443W        W39967   9.572   8.930  14.772 -0.1132 -0.1498  0.1863
22444W        W39968  15.580  14.088  12.437  0.2074  0.1507  0.1633
22445W        W39969   5.279   0.017   1.751  0.3075  0.0637 -0.0776
22446W        W39970   4.855   8.115   4.353 -0.0209  0.0770 -0.1469
22447W        W39971   8.437  17.158   1.191 -0.0704 -0.0317  0.1691
22448W        W39972  12.944   0.387  14.270  0.1880 -0.1079  0.0178
22449W        W39973   7.082   8.951  10.666  0.4846  0.0416 -0.0942
22450W        W39974  17.001  12.852  12.058  0.2536 -0.0929  0.0356
22451W        W39975   5.325   3.904  11.487 -0.0417 -0.0059  0.2741
22452W        W39976  17.132   8.659   3.433  0.1639  0.3711  0.2011
22453W        W39977   2.085  13.523  13.024 -0.2877  0.1092 -0.1363
22454W        W39978   6.083  15.099  14.458 -0.1218  0.0823  0.2412
22455W        W39979   5.861  12.727  13.180  0.6173  0.2606  0.1815
22456W        W39980   8.236  17.273  14.536 -0.1149  0.5625  0.1436
22457W        W39981   3.955   6.835   0.574  0.0380  0.0202  0.2241
22458W        W39982  14.887   4.764  13.776 -0.1699  0.0488 -0.0760
22459W        W39983  13.260  11.559   3.466 -0.1394  0.0060 -0.1085
22460W        W39984  11.044  11.676   1.598 -0.1854  0.2424 -0.1637
22461W        W39985  10.746   0.812  10.017  0.1687  0.1521 -0.1255
22462W        W39986   0.070   6.138  13.387  0.0136 -0.0915  0.3297
22463W        W39987  16.894   7.326  11.867 -0.3600  0.2071 -0.0196
22464W        W39988  15.438  15.395   1.465  0.4222 -0.1594  0.0428
22465W        W39989  14.134  13.085  13.717  0.0940 -0.0815 -0.1852
22466W        W39990   3.597   9.954   1.105  0.1371 -0.1935  0.2132
22467W        W39991  16.631   2.675   1.932 -0.1148  0.0933 -0.0436
22468W        W39992   5.225   2.942  10.453  0.0210 -0.1794  0.0609
22469W        W39993   7.039  16.951   1.072  0.2227 -0.1916 -0.2163
22470W        W39994   1.914  12.940  11.901  0.1127 -0.1198  0.3395
22471W        W39995  11.534  15.148  15.414  0.2796 -0.1439 -0.2202
22472W        W39996   4.954  14.586  13.964  0.1033 -0.1203  0.3654
22473W        W39997  12.498   4.450   0.133  0.3758  0.0778 -0.0182
22474W        W39998  10.802   9.664   0.613 -0.4093  0.0159 -0.1082
22475W        W39999   1.905  14.966  12.818 -0.0677  0.3037 -0.2242
22476W        W40000  16.904  17.375   0.784  0.2134 -0.2002  0.1973
22477W        W40001   4.715  13.848   3.879  0.0616  0.2675 -0.2785
22478W        W40002  16.708  13.632  13.454  0.0157  0.2633  0.0650
22479W        W40003  17.670   5.409   4.068 -0.0094 -0.2090  0.4088
22480W        W40004   5.834   1.139   0.230 -0.1155 -0.0184  0.0199
22481W        W40005   8.760   9.652   4.334 -0.1969  0.0506  0.1347
22482W        W40006  10.044   1.727   5.116 -0.1440  0.0190  0.1473
22483W        W40007   4.028  10.345  12.922 -0.5458  0.0686 -0.1940
22484W        W40008   4.847  10.015   2.547  0.3084 -0.0841 -0.1590
22485W        W40009   1.873  15.353   4.783  0.1000  0.2051  0.1104
22486W        W40010  12.664   2.373  15.212 -0.0386  0.1185 -0.0933
22487W        W40011   9.770   1.935  14.637 -0.0882 -0.1383 -0.2163
22488W        W40012  12.183   5.051  14.306 -0.2322 -0.0380 -0.0145
22489W        W40013  10.648   8.557  15.371 -0.0915  0.0715  0.2258
22490W        W40014  10.989   6.027  12.292 -0.0375  0.0246  0.1745
22491W        W40015   9.350   2.757   2.081 -0.0663  0.2685  0.0192
22492W        W40016  13.884   6.982  11.555  0.1687 -0.4244 -0.0554
22493W        W40017  15.320   2.414   0.496 -0.0948 -0.0779  0.0209
22494W        W40018  18.433  14.490   2.057  0.0413 -0.2276 -0.2827
22495W        W40019  16.903  15.842  11.772  0.0254 -0.1392  0.2025
22496W        W40020   9.600  18.334   1.085  0.0030  0.1346  0.0626
22497W        W40021  11.342  12.176   0.869 -0.0720  0.0020 -0.1162
22498W        W40022  15.613   3.554   2.235  0.3586  0.0457 -0.2409
22499W        W40023  13.876  11.490  13.334 -0.0349  0.2995  0.3100
22500W        W40024  13.682  16.311  14.790 -0.0126 -0.1036 -0.2291
22501W        W40025  14.495   3.151  12.697 -0.2242  0.1064  0.2846
22502W        W40026  14.973  16.143   0.969  0.0142  0.1273 -0.3461
22503W        W40027  11.158   9.236  12.543  0.0414 -0.0803 -0.5421
22504W        W40028   5.698   4.488  12.277  0.2863  0.2381 -0.1132
22505W        W40029   1.343   2.788  13.230 -0.0649  0.0854 -0.0216
22506W        W40030   3.433  15.188   4.591 -0.0004 -0.1617 -0.0634
22507W        W40031   3.142  11.942  14.811  0.1301  0.2136  0.0358
22508W        W40032  13.112   8.652   1.273  0.1282  0.0043  0.1776
22509W        W40033  11.017   6.678   3.723  0.2418 -0.2432  0.1426
22510W        W40034   6.085   5.001  11.129 -0.4111  0.0034 -0.0514
22511W        W40035  17.695   3.980   3.444  0.0671  0.3678  0.0438
22512W        W40036   9.622   4.979  12.867 -0.0516  0.1008  0.3358
22513W        W40037   1.682  10.437  12.133  0.3582 -0.0213 -0.1516
22514W        W40038   2.076  15.110   1.010 -0.2601 -0.3700  0.0712
22515W        W40039  17.973   3.967  15.076 -0.2082 -0.0366  0.0284
22516W        W40040   0.636   2.396   3.179 -0.2836 -0.0764 -0.1915
22517W        W40041  13.397   5.858  14.301  0.0108  0.1917 -0.2745
22518W        W40042   5.763   9.341  15.448  0.0775  0.0506  0.3752
22519W        W40043   6.804   6.978  13.211  0.1585 -0.1527  0.0405
22520W        W40044  10.491  11.131  12.701  0.0288 -0.1769  0.2486
22521W        W40045  11.284  18.426   4.999 -0.0989 -0.4492  0.1419
22522W        W40046  14.272   1.214  11.242 -0.1104 -0.0844  0.0408
22523W        W40047  10.055  11.246   0.108  0.0398  0.1090  0.1500
22524W        W40048   4.240  16.615  14.833  0.2793 -0.1540  0.2416
22525W        W40049   9.226  16.192   5.371 -0.0486 -0.2118  0.0870
22526W        W40050  12.582   8.654   4.348 -0.0216 -0.0211 -0.1633
22527W        W40051   9.953  13.920   4.721  0.3240 -0.0551  0.2102
22528W        W40052   1.010  17.230   4.710 -0.1058 -0.2311 -0.0426
22529W        W40053   6.126  12.055   1.862 -0.1684  0.4373 -0.3389
22530W        W40054   8.829  15.102  10.892  0.2024  0.0348  0.1246
22531W        W40055   2.965   5.798  11.592 -0.0792 -0.3769 -0.2515
22532W        W40056   8.225  13.885  12.465  0.1510  0.3085 -0.0334
22533W        W40057   5.803  13.967  14.426  0.2783 -0.4211  0.0206
22534W        W40058  14.206  12.545   3.001 -0.2238  0.2636  0.2069
22535W        W40059   2.663  13.237   0.442  0.2293  0.2535 -0.2647
22536W        W40060  12.297  13.275  15.548  0.0867 -0.4012  0.1658
22537W        W40061   3.480   9.586  14.989  0.3666  0.0776  0.0882
22538W        W40062   8.204   5.077   0.956  0.1535  0.0319 -0.2866
22539W        W40063   0.142   8.592  14.526  0.0574 -0.4901  0.0202
22540W        W40064  11.623  10.815  15.116  0.1224  0.3288 -0.0526
22541W        W40065  11.290  17.018  12.812  0.0893 -0.1968  0.0493
22542W        W40066   8.041   0.661  12.254 -0.0163  0.1878  0.1270
22543W        W40067   3.089   7.511   0.809  0.0600 -0.1306 -0.0721
22544W        W40068   3.227   1.717  11.861  0.0215  0.0637 -0.1394
22545W        W40069  14.182   7.819  11.081 -0.1355  0.1838 -0.2128
22546W        W40070  12.880  16.077  12.556  0.0836 -0.0738  0.2884
22547W        W40071  11.654   3.959  13.775  0.0579  0.1234  0.1249
22548W        W40072  13.388   0.703  13.288 -0.0925  0.1648 -0.2769
22549W        W40073  11.466   6.508   0.694  0.0429  0.0807  0.1812
22550W        W40074   9.007   5.572  13.209 -0.1052  0.2152  0.1168
22551W        W40075  13.860   5.501   1.945 -0.2944 -0.3273 -0.3569
22552W        W40076   0.130  10.350  14.570  0.1376 -0.0577 -0.1358
22553W        W40077   7.553   7.523  13.707  0.0544 -0.0340  0.1856
22554W        W40078   1.529  10.842  11.072  0.1036  0.0206 -0.1455
22555W        W40079   4.372  14.879   4.628 -0.0267  0.2410  0.3260
22556W        W40080   6.453   7.707  11.825 -0.1641 -0.3673  0.0341
22557W        W40081  15.134  11.095  14.416  0.0217  0.1129  0.0863
22558W        W40082  16.879   2.929  14.810 -0.2978  0.0446  0.1009
22559W        W40083   9.097  17.187  12.905 -0.2443 -0.0695 -0.0080
22560W        W40084  17.592   1.784   2.359  0.0153 -0.0373  0.0741
22561W        W40085   1.775   7.988  12.611  0.1066  0.2271  0.0596
22562W        W40086  17.995  12.096   2.108  0.2602  0.0459  0.0294
22563W        W40087  14.284   2.242   2.028  0.1008  0.1646 -0.1404
22564W        W40088  13.908  11.299   3.578  0.0934 -0.2644  0.1243
22565W        W40089  13.628   4.059  14.422 -0.0138  0.2423 -0.1762
22566W        W40090  18.020  13.035   4.608 -0.0261  0.0641 -0.0315
22567W        W40091  14.754  10.059  14.634 -0.0407 -0.4660  0.0933
22568W        W40092  13.685   0.375  11.964  0.0996 -0.1266  0.1596
22569W        W40093   8.294  13.331  15.105  0.3303 -0.1773  0.0236
22570W        W40094   5.991   4.653  14.739  0.1212  0.0797 -0.4518
22571W        W40095   3.252  17.822   4.481  0.1155  0.1437 -0.2086
22572W        W40096  15.312  17.608   1.568 -0.2763 -0.1775 -0.3798
22573W        W40097   9.726   2.574  11.850  0.1174 -0.2867  0.3199
22574W        W40098  14.870  10.147  14.050  0.1163  0.1784  0.0754
22575W        W40099   4.665  12.319   5.219  0.0608 -0.0728  0.1518
22576W        W40100   2.504  10.163   4.749  0.0353  0.0491  0.1885
22577W        W40101   6.848   8.344   3.583 -0.3744  0.3436 -0.1345
22578W        W40102  17.504   3.368   4.110 -0.1623 -0.1377 -0.2141
22579W        W40103  12.282   2.429  12.344 -0.3420 -0.0209  0.0203
22580W        W40104  16.464   2.485  13.534  0.0531 -0.2151 -0.1069
22581W        W40105  10.873  17.429  14.167  0.2252 -0.0586 -0.2617
22582W        W40106   7.894  10.232   3.079  0.0189 -0.0979 -0.2325
22583W        W40107   5.644   3.017  14.741  0.2387  0.1043  0.0784
22584W        W40108   7.169   3.182   3.068  0.0180 -0.2888 -0.2277
22585W        W40109   9.517   4.239   3.452  0.0332  0.0512 -0.0838
22586W        W40110   1.251  17.688  10.255  0.0196 -0.3360 -0.2977
22587W        W40111   8.630  15.025  14.458  0.0200  0.2539 -0.0656
22588W        W40112   1.810  13.743   2.547 -0.4352  0.1308  0.3176
22589W        W40113   7.160   3.023  11.150  0.0099  0.1107  0.1874
22590W        W40114   9.910   2.806  13.658  0.0475 -0.0793  0.0230
22591W        W40115  13.384   3.857  13.599 -0.1417  0.3583  0.0031
22592W        W40116   1.102  14.051   4.533  0.1674 -0.1058  0.2531
22593W        W40117   0.481   2.904  11.239 -0.0322 -0.1416 -0.3027
22594W        W40118   6.474  11.266  10.703  0.3532  0.1049  0.0457
22595W        W40119  14.006  16.678  13.766  0.0951 -0.1396 -0.1480
22596W        W40120   4.547  13.301   0.889 -0.2268 -0.2922  0.0874
22597W        W40121   2.851   5.875  13.734  0.0324 -0.0654 -0.1929
22598W        W40122  10.315  16.580   2.183 -0.1067  0.0134 -0.1542
22599W        W40123  10.383   8.419   4.337 -0.0509 -0.3097 -0.2157
22600W        W40124   4.607   1.504   0.564  0.3114 -0.2668 -0.4797
22601W        W40125  16.628  17.415   2.122 -0.1226 -0.3423 -0.2368
22602W        W40126   9.683   7.582   1.575  0.1412 -0.0585 -0.0403
22603W        W40127  14.112  11.202   0.004 -0.0668 -0.0143 -0.3755
22604W        W40128  12.249   3.863  14.751 -0.3334 -0.0992  0.1333
22605W        W40129   4.220   9.183  10.737 -0.2592 -0.1065  0.1997
22606W        W40130  14.475  15.428   4.642  0.1305 -0.2419 -0.0916
22607W        W40131  13.643   3.834   1.378 -0.0649 -0.0457 -0.1574
22608W        W40132   2.155   6.950   3.739  0.3095 -0.3627 -0.1779
22609W        W40133   9.911  17.463   3.249  0.0232 -0.2155 -0.0487
22610W        W40134   5.472  12.299  14.400 -0.0598  0.1678 -0.0424
22611W        W40135  13.898   8.240  11.286 -0.0810 -0.1432  0.1869
22612W        W40136   5.488  13.814   3.274 -0.1264 -0.0177  0.1438
22613W        W40137  15.575   3.731  12.319 -0.3819  0.2431 -0.0393
22614W        W40138  16.298   0.701  13.301 -0.0255 -0.0495  0.0331
22615W        W40139   9.783   0.546   4.288 -0.3574 -0.0636 -0.2648
22616W        W40140  15.112   6.662   2.578  0.2927  0.4271  0.1517
22617W        W40141   8.399  12.185  14.248  0.1536 -0.0444 -0.1401
22618W        W40142  12.525   0.048   4.988  0.0301 -0.0179  0.3031
22619W        W40143  14.234   6.797  12.070  0.1405 -0.0224  0.0925
22620W        W40144   7.315  14.378   3.451 -0.1918  0.1692  0.0662
22621W        W40145   4.997   7.780  11.467 -0.5340 -0.0177  0.0303
22622W        W40146  15.981  12.351  10.622 -0.0510  0.1717 -0.2887
22623W        W40147   7.002  11.789   4.402 -0.0975  0.0215  0.1265
22624W        W40148  14.982   4.271  13.946 -0.2524 -0.2223  0.1287
22625W        W40149   4.343  16.724   1.167  0.4488 -0.2013  0.0494
22626W        W40150  11.452   1.339   1.364 -0.1655  0.0792  0.0109
22627W        W40151   7.981  11.563   3.540 -0.1655 -0.3248 -0.3511
22628W        W40152   2.371   0.937   3.571 -0.0683  0.4753  0.0561
22629W        W40153  13.512   2.214   3.876 -0.0193 -0.1260 -0.1748
22630W        W40154  10.211  13.177  12.415  0.1586 -0.3298 -0.1065
22631W        W40155   6.879  12.615  13.120  0.2607  0.0511  0.0969
22632W        W40156   5.858   8.476   4.857 -0.4710  0.3741  0.3062
22633W        W40157   6.570   1.347  11.328  0.0384  0.3663  0.0484
22634W        W40158  10.133  16.244  15.550 -0.0357 -0.0667  0.2068
22635W        W40159   9.047   3.037   3.977  0.1283 -0.1823  0.0327
22636W        W40160   2.674  10.020  13.623 -0.0330 -0.0108 -0.0810
22637W        W40161  15.381  15.882   4.680 -0.5760  0.2775 -0.1082
22638W        W40162  13.975   7.835  14.362 -0.0984 -0.2456  0.1065
22639W        W40163  10.113  13.249   2.499  0.2320 -0.0199  0.2806
22640W        W40164  14.145   1.691   1.839  0.2720  0.0035 -0.4383
22641W        W40165  10.021   3.131   3.213 -0.2050 -0.2880  0.1085
22642W        W40166  12.782   9.742  10.846 -0.0882  0.0347 -0.1681
22643W        W40167   2.992   3.647  12.956  0.1488 -0.1961 -0.1726
22644W        W40168  12.764  12.654  12.462  0.3463 -0.1563  0.0382
22645W        W40169   9.601  10.125  14.418  0.2831  0.1195 -0.2929
22646W        W40170   8.859   1.932  14.763  0.1254  0.1882  0.1902
22647W        W40171   6.369  13.198   3.104  0.0898  0.1718 -0.0215
22648W        W40172  14.778   7.354  10.568  0.1328  0.3767 -0.1969
22649W        W40173   0.947   6.957   3.462 -0.1686 -0.4278  0.2933
22650W        W40174  14.471   2.682  15.470  0.2862  0.1512  0.2076
22651W        W40175  16.743  11.530  14.000 -0.1719  0.0291  0.0358
22652W        W40176  13.515  11.988  14.456 -0.1126  0.2046 -0.0043
22653W        W40177  18.012   2.419   1.767 -0.1376 -0.2488 -0.2160
22654W        W40178  15.701   0.508   0.762 -0.1738  0.2233  0.2791
22655W        W40179   0.988   7.487  15.371  0.0615  0.2146 -0.0648
22656W        W40180   0.119  15.239  12.921  0.0500 -0.1126 -0.1511
22657W        W40181  14.066   3.881  15.239 -0.2749  0.0916  0.1472
22658W        W40182   6.657   6.926   0.693 -0.1634  0.3110  0.0032
22659W        W40183  13.203  11.060   2.656  0.2047  0.0496 -0.0921
22660W        W40184   9.027   0.685   2.513  0.0647 -0.1975 -0.1241
22661W        W40185  10.124  17.085   5.327 -0.2868 -0.0929  0.2482
22662W        W40186  14.980  10.868  14.827 -0.0809 -0.1282  0.0956
22663W        W40187   7.845  13.245   2.501 -0.1064  0.0752  0.1522
22664W        W40188  12.330  18.450  15.510  0.2908 -0.0431 -0.1337
22665W        W40189  15.899   5.318   3.602 -0.0756  0.0394  0.0564
22666W        W40190  17.803   0.202   3.002  0.1153  0.1399  0.2139
22667W        W40191  13.717   7.611   0.452 -0.1428  0.0217  0.0690
22668W        W40192  11.501   7.123   4.458 -0.2626 -0.1576 -0.0061
22669W        W40193   9.915   4.532   0.407 -0.0780 -0.0593 -0.0834
22670W        W40194  10.814  13.914  15.665 -0.2429 -0.1792 -0.0871
22671W        W40195   1.972   3.462  12.912  0.2738 -0.2079 -0.0654
22672W        W40196   9.675   9.210  11.283 -0.0706 -0.1839  0.0690
22673W        W40197   4.099  18.005   4.731  0.1667  0.0037  0.1013
22674W        W40198  13.318  10.586   0.064 -0.0499  0.3630 -0.0126
22675W        W40199  11.326   8.095  11.504  0.3511 -0.2775  0.0783
22676W        W40200  15.041   9.686  11.547  0.0066 -0.2478 -0.1108
22677W        W40201  16.358   9.019  15.178 -0.0624 -0.1742  0.0646
22678W        W40202  15.967   4.690  13.706  0.2018  0.2117 -0.1125
22679W        W40203  10.008   2.253   0.483 -0.0777 -0.0824  0.0658
22680W        W40204  17.749   4.370   2.995  0.1692  0.0252 -0.2633
22681W        W40205   1.416  11.400  10.281 -0.1972  0.0168  0.1139
22682W        W40206   6.087   9.745   4.418  0.1705  0.1098  0.2800
22683W        W40207   3.853   4.951   2.380 -0.3134  0.0615  0.1875
22684W        W40208   6.619   0.533  12.575  0.0075  0.0789  0.0366
22685W        W40209  17.766  10.367  14.249 -0.0531  0.1385 -0.0913
22686W        W40210  12.487   5.362   4.128  0.1422 -0.1307 -0.0036
22687W        W40211  17.532  12.982   4.328  0.0163  0.1054 -0.0437
22688W        W40212   5.337  14.571  11.934  0.3170  0.5309  0.2135
22689W        W40213   9.296  16.608   3.115  0.0670  0.0027 -0.0854
22690W        W40214  14.475   6.922   3.217  0.2011 -0.0585  0.1548
22691W        W40215  14.832   3.130   0.467 -0.1645  0.1224  0.1894
22692W        W40216  17.409  10.817   3.895  0.2042 -0.0326  0.0114
22693W        W40217  15.481   6.764   2.870 -0.0900 -0.3522 -0.0332
22694W        W40218   7.006  15.511  13.423  0.2401  0.0499 -0.3042
22695W        W40219  11.422  15.095   3.913  0.1297 -0.3373  0.1331
22696W        W40220  17.983   6.611   2.440 -0.0344 -0.1570  0.1100
22697W        W40221  10.091   0.647  15.348 -0.1905 -0.0713  0.0791
22698W        W40222  17.400   7.270   2.431 -0.2431 -0.3912  0.0453
22699W        W40223   3.033   6.928   3.968 -0.2029  0.0638 -0.0527
22700W        W40224  13.736  14.755  10.340  0.0340  0.1076  0.1083
22701W        W40225   6.830   0.182  12.880 -0.1216 -0.2352 -0.2896
22702W        W40226  13.601   9.671  15.570 -0.2395  0.1549 -0.0098
22703W        W40227  14.544  16.597   0.124  0.1775  0.0974  0.0122
22704W        W40228  11.438   0.049   4.365  0.0098 -0.2812  0.2006
22705W        W40229   7.146  11.280   4.657  0.4059  0.1859  0.1102
22706W        W40230  18.301   8.267   1.123  0.0786 -0.0957 -0.0872
22707W        W40231   1.722   8.619   2.494  0.0359 -0.0953  0.1090
22708W        W40232  10.505   6.632   1.082  0.4423 -0.1939  0.2277
22709W        W40233  14.584   8.917  15.069 -0.2507  0.0724 -0.1719
22710W        W40234   7.754  13.498   1.334 -0.3834  0.1827 -0.0920
22711W        W40235   5.030   9.918   0.028 -0.2968 -0.0571 -0.0370
22712W        W40236  12.947  18.157   1.920 -0.0254 -0.1723 -0.1664
22713W        W40237  11.582  16.234   1.492 -0.3894  0.4138  0.0219
22714W        W40238   6.119   5.723   3.733  0.0553 -0.2501  0.3210
22715W        W40239   0.773   8.257  11.948  0.0085 -0.2849  0.0790
22716W        W40240   0.689   2.409   2.163  0.2778 -0.0408  0.1444
22717W        W40241  16.769  14.124   1.679 -0.3675 -0.2252  0.0553
22718W        W40242   1.597   0.072  14.347 -0.0876  0.1253 -0.0975
22719W        W40243   8.559   8.016  12.194  0.2023 -0.2035  0.1774
22720W        W40244   6.538   7.972  14.746  0.2421 -0.1382  0.0018
22721W        W40245  13.897   3.663  11.158 -0.0308  0.1180  0.0530
22722W        W40246   8.623  13.843  11.542  0.0751  0.0144 -0.1472
22723W        W40247  11.797   1.691   4.483 -0.1267  0.0463  0.0662
22724W        W40248   1.001   5.310  15.447  0.4599  0.3326  0.1752
22725W        W40249  14.732  10.774   0.943 -0.3361  0.0606  0.0593
22726W        W40250   8.964  11.735   3.356 -0.3930  0.2037  0.0822
22727W        W40251  10.940  10.836  11.747 -0.1903  0.2472  0.0031
22728W        W40252   1.606  17.969  11.275  0.0185  0.4679  0.0521
22729W        W40253  17.734   5.880   4.592  0.1326  0.1798 -0.0627
22730W        W40254  16.664   8.865   4.287  0.1788  0.0277 -0.4653
22731W        W40255  15.518   8.933   3.051 -0.0768  0.0475  0.0667
22732W        W40256   9.292   4.474  14.759  0.0740 -0.2946  0.1290
22733W        W40257   4.813   1.468  14.196  0.3107  0.1552  0.1114
22734W        W40258  18.138  14.173   1.726  0.1371  0.3064 -0.2196
22735W        W40259  11.075   3.383  13.034  0.1230  0.2607  0.0358
22736W        W40260   7.696  16.826   2.671  0.1007  0.0185 -0.1029
22737W        W40261   2.425  10.533   1.544  0.0981 -0.1218  0.1949
22738W        W40262   3.450  11.375   9.785 -0.0021  0.1828 -0.2351
22739W        W40263  12.239  11.888  10.837  0.2245 -0.0840  0.1708
22740W        W40264   9.419   5.024  12.335  0.0242  0.0765  0.0656
22741W        W40265   1.283  13.388  12.685  0.1281 -0.1349  0.3592
22742W        W40266  12.514  15.704   3.903 -0.1034  0.1876  0.1023
22743W        W40267  13.737   1.778   4.778  0.1574  0.1205  0.3302
22744W        W40268  14.594  16.110   0.624 -0.4256  0.2273 -0.1321
22745W        W40269  12.258   6.635  12.896  0.1192  0.0030  0.0404
22746W        W40270  17.274   3.771   0.863  0.0448 -0.0350 -0.2092
22747W        W40271   7.887   5.464  12.430  0.2267  0.1430 -0.0190
22748W        W40272   2.176   5.706  14.930  0.1397  0.0252 -0.4516
22749W        W40273   2.642  13.944  14.330  0.0193 -0.3463 -0.4704
22750W        W40274  15.713   1.729  12.060  0.1828  0.1073  0.0706
22751W        W40275   6.651   8.547  14.073 -0.0454  0.0906  0.0613
22752W        W40276  10.717  12.500   3.434 -0.1905  0.0395 -0.1013
22753W        W40277   7.847   1.993   5.475 -0.0292  0.2063 -0.1389
22754W        W40278  15.166  16.128  15.063 -0.0251  0.1003  0.1349
22755W        W40279  15.205  13.622  12.378  0.2554  0.0038  0.2083
22756W        W40280   8.955   6.940   3.228  0.2959  0.2625 -0.2545
22757W        W40281  14.451  15.339   4.111 -0.1288 -0.1386 -0.1885
22758W        W40282   6.642   2.048  14.722  0.0800 -0.3271 -0.1806
22759W        W40283  15.386   3.093   3.597 -0.5009 -0.0117 -0.0533
22760W        W40284  17.040  13.120   1.475  0.0587  0.1320 -0.1755
22761W        W40285  13.451  10.939   1.765 -0.3457  0.0389 -0.1899
22762W        W40286   3.512  17.407  13.941 -0.1048 -0.2961  0.2443
22763W        W40287  14.811  14.042  14.526  0.2519 -0.0160 -0.0235
22764W        W40288  12.104  11.011   1.051  0.1370  0.2683 -0.0848
22765W        W40289  14.373  13.970  14.749  0.0534  0.0929 -0.0420
22766W        W40290   3.250   9.991   2.177 -0.0354 -0.0920 -0.1181
22767W        W40291  11.013  18.400  12.887 -0.1893  0.1682 -0.1717
22768W        W40292  12.735   6.316   4.580  0.1142  0.0912  0.2303
22769W        W40293  14.688   1.312   0.212  0.0133 -0.0663  0.2892
22770W        W40294   6.559  15.142  13.434  0.1198  0.1794 -0.2503
22771W        W40295   1.025   3.540  10.496 -0.0153  0.2707  0.0538
22772W        W40296   2.884   3.297   3.092  0.2245 -0.2044 -0.1400
22773W        W40297   5.056  11.159  14.386  0.0934 -0.0967  0.1167
22774W        W40298  11.495   5.536   3.891 -0.0051  0.0432  0.2708
22775W        W40299  17.906  18.253   0.347  0.0915 -0.0545 -0.0297
22776W        W40300   0.222   4.054  12.784  0.1365  0.1125 -0.1854
22777W        W40301  15.654   7.838   1.598  0.0885  0.3282  0.3916
22778W        W40302  17.861  11.538  11.853 -0.2017  0.3896  0.4879
22779W        W40303  12.686   3.007   2.195 -0.2574 -0.0335  0.1931
22780W        W40304  14.266   2.921  13.584  0.1560 -0.2876 -0.1191
22781W        W40305  15.350  13.479  14.088 -0.0002  0.0427  0.0313
22782W        W40306  10.413  16.959   4.933 -0.0545  0.1358  0.0144
22783W        W40307  16.504  15.704  10.237 -0.0346  0.1996 -0.0882
22784W        W40308  11.945  15.262  11.488  0.1531 -0.2309  0.2383
22785W        W40309   2.817   0.565  12.765 -0.0616 -0.4717 -0.1803
22786W        W40310  15.123   5.780  11.783 -0.2747  0.1520  0.0531
22787W        W40311  10.327  13.398  13.984  0.1162 -0.0240  0.0746
22788W        W40312   1.080   6.573  11.463 -0.0857  0.0100  0.1219
22789W        W40313   6.633  13.658   2.751 -0.0357 -0.3091  0.2039
22790W        W40314   5.228  10.558   2.304 -0.0628  0.1753  0.1007
22791W        W40315  15.310   5.231   0.784  0.0816 -0.0154 -0.2448
22792W        W40316   2.454   0.165  12.683  0.0743 -0.5116  0.1825
22793W        W40317  17.183   1.478  13.609 -0.1216 -0.0567  0.0704
22794W        W40318  10.777  10.087  15.294  0.1646  0.1401 -0.0799
22795W        W40319   0.263  16.894  14.762  0.0900 -0.0423 -0.3242
22796W        W40320  11.493   7.875  13.252 -0.0409 -0.0835 -0.2441
22797W        W40321   8.468   0.029  11.309  0.1010  0.1979  0.2953
22798W        W40322  12.158   5.580  14.485  0.0493 -0.1304  0.1750
22799W        W40323  13.218   4.376   3.225  0.1835 -0.1386  0.2587
22800W        W40324  13.572   5.738  11.060  0.2156  0.0088  0.0921
22801W        W40325   0.150   8.783  13.992 -0.2001  0.2939 -0.3066
22802W        W40326   6.134  14.358   3.049 -0.0343 -0.1346  0.3755
22803W        W40327   8.249  16.640  12.527  0.1474 -0.1435 -0.0487
22804W        W40328  10.340   6.295  11.650  0.1809  0.0083 -0.5186
22805W        W40329   2.590   7.971  12.286  0.1225 -0.1362  0.3724
22806W        W40330  18.231   2.609   1.243  0.0066 -0.0140 -0.2437
22807W        W40331   0.013   3.884   1.197  0.2360  0.2650  0.0488
22808W        W40332   0.873   7.849  14.512  0.2264  0.1303  0.2177
22809W        W40333   7.500  10.430  15.012  0.2180 -0.1586 -0.0344
22810W        W40334  10.457   2.040   0.749  0.2505 -0.3422  0.1529
22811W        W40335   6.992   9.044   2.197  0.1465 -0.0897  0.1355
22812W        W40336   8.602   7.270  13.196  0.1501 -0.1991 -0.1607
22813W        W40337   1.456   4.051  15.469 -0.3319 -0.0517  0.0512
22814W        W40338  17.740   4.957   2.589  0.1371 -0.1006 -0.5613
22815W        W40339  15.251   8.602   2.374 -0.1931  0.3067  0.0673
22816W        W40340  11.944  12.245  11.111 -0.1691  0.0364  0.0082
22817W        W40341  17.894  15.628   1.450  0.3258  0.2247 -0.0483
22818W        W40342  15.338   8.140  15.522 -0.0428  0.0276 -0.2176
22819W        W40343  14.524   8.967  13.317 -0.3707 -0.1078  0.1373
22820W        W40344  15.101   2.463  11.031 -0.1110  0.3308 -0.2776
22821W        W40345  17.258  18.151   0.698 -0.1233  0.1805 -0.1715
22822W        W40346   1.133   7.474   3.487 -0.0173 -0.1996 -0.1360
22823W        W40347  10.695  14.446  15.535 -0.0184 -0.3273 -0.1404
22824W        W40348   2.041   2.673  12.885  0.1400 -0.1148  0.1610
22825W        W40349  14.756   1.462  15.403  0.0539 -0.0733 -0.0571
22826W        W40350   9.005   7.587   1.577  0.1465  0.0513  0.1793
22827W        W40351  14.773   7.810  10.394  0.3744 -0.1737 -0.0995
22828W        W40352   0.173   3.307  13.512 -0.1064  0.0944 -0.1101
22829W        W40353  12.583  17.184  12.358  0.0913  0.0692 -0.3279
22830W        W40354   3.194   9.936  13.812 -0.0966  0.2486 -0.2914
22831W        W40355   5.926   7.025  14.604  0.0784 -0.2586  0.0954
22832W        W40356  10.622   2.765   0.339  0.0421 -0.3403 -0.4644
22833W        W40357  10.339  13.255   4.406  0.0822  0.1148  0.1129
22834W        W40358   7.904   9.602  13.366 -0.2980  0.1013 -0.2455
22835W        W40359   9.339   5.809   5.213  0.1596  0.1785 -0.5157
22836W        W40360   3.551  18.199   0.720 -0.0385  0.2478 -0.0450
22837W        W40361  11.803  14.967   4.350  0.1248 -0.3164 -0.1093
22838W        W40362  17.791  12.529   0.589 -0.0151  0.0990 -0.0996
22839W        W40363   2.926  18.216   1.428  0.1991  0.4384 -0.0337
22840W        W40364   5.440  16.240   3.656  0.1405  0.0536  0.0635
22841W        W40365  16.203   0.355  15.081  0.2440 -0.1675  0.2274
22842W        W40366   8.983  17.139   4.154  0.1066 -0.2484 -0.0768
22843W        W40367   5.598  16.762   3.935 -0.0959 -0.2226  0.1013
22844W        W40368   8.265  15.083  15.313 -0.3730  0.0028  0.1391
22845W        W40369  12.430   0.428   2.386  0.0161  0.1806 -0.1450
22846W        W40370  17.569  13.631   2.033  0.0320 -0.0752 -0.1861
22847W        W40371   7.356  17.181  12.018  0.1255  0.0557  0.3273
22848W        W40372  18.184  14.219  14.811  0.1013  0.1985  0.0956
22849W        W40373  16.197  18.175   2.403  0.1385  0.2715  0.1200
22850W        W40374  17.313   2.434   0.869  0.0422 -0.3994 -0.2942
22851W        W40375  13.138   8.104  14.238  0.0595 -0.3191 -0.0064
22852W        W40376   4.693  14.207   5.270 -0.1539 -0.0614  0.0909
22853W        W40377  14.335   7.031   3.682 -0.1475  0.1882 -0.0070
22854W        W40378   2.151  18.099  15.140 -0.2832  0.0386 -0.3597
22855W        W40379  11.402  10.538  13.194 -0.1719 -0.0998  0.0484
22856W        W40380   4.499   4.182   1.552 -0.2169  0.1557  0.0692
22857W        W40381   5.233   1.650  14.643 -0.1330  0.1297 -0.1662
22858W        W40382   8.755   3.569  15.429 -0.0498  0.0492  0.1254
22859W        W40383  16.363   7.779  14.446  0.0265 -0.3048  0.0174
22860W        W40384  16.038  15.304   2.039 -0.0986  0.1437  0.0565
22861W        W40385  13.400   3.470  13.925  0.1748 -0.4427 -0.0267
22862W        W40386   9.023   2.779   1.528  0.4161 -0.5461  0.2580
22863W        W40387  11.610  16.274   0.965 -0.0603  0.1132 -0.1142
22864W        W40388   0.884   6.398  12.407  0.1674  0.0748  0.2237
22865W        W40389   8.571   4.418   0.391 -0.0711  0.3343 -0.0517
22866W        W40390   6.416   2.359   3.885  0.0807 -0.2681 -0.1538
22867W        W40391   2.383  12.947  12.195  0.0235  0.2128 -0.0372
22868W        W40392   8.014  13.295  14.563  0.3487  0.1479 -0.1829
22869W        W40393   3.817  14.029   3.741  0.1690 -0.3414  0.0538
22870W        W40394   2.484  17.135   3.293 -0.1522  0.0789  0.1229
22871W        W40395   3.344   6.762   1.253 -0.1150 -0.0088  0.1612
22872W        W40396  13.272  12.294   1.890  0.3283 -0.0585  0.0727
22873W        W40397  16.181  11.540  12.282 -0.0096  0.0936 -0.5215
22874W        W40398   6.809   8.811  14.579 -0.1493 -0.2998 -0.4312
22875W        W40399  16.960   1.628  14.652  0.4893  0.1947 -0.0585
22876W        W40400   4.737  11.761   0.036 -0.1831  0.2967  0.2758
22877W        W40401  10.402   6.688   1.589  0.1126 -0.0057 -0.0611
22878W        W40402  14.787   7.200  15.213  0.0418 -0.1989 -0.0408
22879W        W40403   7.016  17.448   4.467  0.1957  0.0601 -0.0165
22880W        W40404  11.118  16.918  15.499 -0.0056 -0.2171 -0.1128
22881W        W40405  16.903   1.398   2.802 -0.1500  0.2401  0.0757
22882W        W40406  15.420  17.601   0.875 -0.1602 -0.0942  0.3016
22883W        W40407  18.176  15.535  11.846  0.0263 -0.0783  0.1070
22884W        W40408   4.898   7.160  15.297 -0.1634 -0.2192  0.1323
22885W        W40409   4.119   2.452   2.592  0.1274  0.1190 -0.3642
22886W        W40410   8.903  10.424   3.505 -0.0640  0.0017 -0.0109
22887W        W40411   1.028   5.290  13.950  0.4395  0.2090 -0.2066
22888W        W40412  16.333   3.383   3.511 -0.1615  0.0062 -0.1756
22889W        W40413   4.843   0.347   1.789  0.1765  0.2234 -0.1899
22890W        W40414   8.833  10.334  15.459  0.4893  0.0434 -0.1772
22891W        W40415  18.451  15.879   2.978  0.2614  0.0457  0.0148
22892W        W40416   5.896   5.450  10.978  0.2247  0.0869  0.2253
22893W        W40417  17.670  13.943   1.045  0.0146 -0.0152 -0.2974
22894W        W40418   3.510  10.062   4.402  0.2548  0.1663 -0.1327
22895W        W40419   2.807  18.236   5.875  0.3105  0.4555  0.3094
22896W        W40420  13.960   8.348  13.663 -0.2188  0.0053  0.0402
22897W        W40421   2.492  17.862  12.383  0.3699  0.1059 -0.1361
22898W        W40422   1.630   5.676   4.260 -0.0313  0.2492  0.1621
22899W        W40423  13.989  17.937  11.389 -0.3237 -0.0780 -0.0638
22900W        W40424   4.374   3.762  11.033 -0.1723  0.1359 -0.0189
22901W        W40425  16.669  12.030   0.719  0.0513  0.1675 -0.0357
22902W        W40426  15.148   2.843   5.564  0.0138 -0.2436 -0.0778
22903W        W40427  12.991   6.055   9.971 -0.1162  0.2030  0.0684
22904W        W40428   4.268   5.994   3.993  0.1231 -0.1603  0.1824
22905W        W40429  16.130  10.462   3.183  0.1977 -0.2047  0.0793
22906W        W40430  18.216   3.410   2.969  0.0375  0.0278  0.0352
22907W        W40431   6.900  17.305  15.486  0.0652  0.1202  0.0649
22908W        W40432   1.629   9.395  10.184 -0.1108  0.0444 -0.1209
22909W        W40433   9.993  15.728  12.017  0.1245  0.1666 -0.0921
22910W        W40434  17.519  13.776  12.314  0.0076 -0.1280 -0.4942
22911W        W40435  14.446   4.139  10.928 -0.1100  0.0152 -0.0148
22912W        W40436  10.489  10.550   3.351  0.1203  0.1391 -0.0974
22913W        W40437  11.319   5.300   3.422 -0.1467 -0.0193  0.4528
22914W        W40438  14.803  12.655   3.192  0.2126  0.1945 -0.2677
22915W        W40439   1.895   5.468  15.222  0.1413 -0.2973 -0.0829
22916W        W40440   7.383   1.082  14.679 -0.3129  0.0589 -0.2764
22917W        W40441   8.900  15.336  15.361  0.2392  0.0584 -0.0632
22918W        W40442  12.982  14.606   3.559  0.0815 -0.2252 -0.0811
22919W        W40443  12.830   1.236   2.205  0.1493  0.0932 -0.0086
22920W        W40444  12.515   6.416  12.497 -0.0971 -0.2362 -0.0098
22921W        W40445   9.153   9.917  13.677  0.1400 -0.1429  0.0170
22922W        W40446   9.672   9.628   4.763 -0.1114 -0.0645 -0.2388
22923W        W40447   3.534   8.790   3.336 -0.0611  0.0011  0.4007
22924W        W40448   6.778  13.724   4.539  0.4459 -0.0769  0.0549
22925W        W40449  10.947  11.008   0.527  0.2289 -0.1269  0.0421
22926W        W40450  13.884   5.830   0.420 -0.1143  0.2630 -0.0675
22927W        W40451   4.460   9.609  10.592 -0.2245  0.1973 -0.1322
22928W        W40452   6.020   0.600   1.202 -0.2293  0.0225  0.0273
22929W        W40453   5.483   3.551  15.299  0.0366  0.3386 -0.0035
22930W        W40454  13.352   3.800  10.987 -0.0096  0.0770  0.0564
22931W        W40455  10.748  10.789  13.886 -0.2235  0.0287 -0.0045
22932W        W40456   6.989  16.611  10.217  0.1425  0.0374 -0.1048
22933W        W40457  15.945   0.620  11.527  0.2096  0.1035  0.1605
22934W        W40458   3.635  10.091  15.126 -0.1432 -0.0397 -0.0787
22935W        W40459  15.104  11.235   1.795 -0.2040 -0.1061 -0.0491
22936W        W40460  16.125   2.996  12.889 -0.1740 -0.0018  0.2232
22937W        W40461   4.525   0.404   4.106  0.3525  0.0752 -0.1517
22938W        W40462  16.305   1.945  10.285  0.3439 -0.2911 -0.1068
22939W        W40463   3.930   5.896   3.060  0.0714 -0.0767  0.1133
22940W        W40464   6.154  16.634  15.642 -0.0834  0.2496 -0.0404
22941W        W40465   0.460  10.287  12.020  0.0776 -0.1173  0.0312
22942W        W40466  18.057   1.540  13.606 -0.2611 -0.2418  0.0694
22943W        W40467   1.913   4.230   4.390  0.0717  0.1277  0.2104
22944W        W40468   9.633  16.548  14.568  0.3203 -0.2129  0.1043
22945W        W40469   6.194   4.383   1.982  0.1659  0.2149  0.1547
22946W        W40470   8.888   3.333  13.745 -0.2742 -0.0590  0.1082
22947W        W40471   6.496  10.461  11.886 -0.3345 -0.1017  0.1094
22948W        W40472   1.570  16.080   5.101  0.0955 -0.0282 -0.0566
22949W        W40473  13.647   4.133   2.438 -0.0503  0.0287  0.1083
22950W        W40474   9.573   1.429  15.391 -0.1518 -0.1270  0.0066
22951W        W40475  16.945   2.511  13.552 -0.0351  0.1259 -0.4529
22952W        W40476  17.041  10.092  11.153 -0.2279 -0.0237  0.4558
22953W        W40477  16.481   0.847   1.482 -0.1051  0.0735 -0.2826
22954W        W40478  13.247   0.323  11.736 -0.0516  0.0476  0.1362
22955W        W40479   2.163   5.538   4.260 -0.1406 -0.0383 -0.3030
22956W        W40480   1.151   7.141  13.357  0.0566  0.3400 -0.1009
22957W        W40481  17.389  10.906  13.133 -0.0003 -0.2985 -0.5697
22958W        W40482  15.070   0.274  12.909 -0.2506  0.0294  0.2929
22959W        W40483   1.456  14.548   2.058 -0.0451 -0.7064 -0.0354
22960W        W40484   4.738  13.269   2.701  0.0862 -0.2307  0.0542
22961W        W40485   8.226  13.420  12.272  0.1705  0.1553  0.1589
22962W        W40486   4.117  15.631  15.717  0.2043  0.1800 -0.2523
22963W        W40487  10.131  17.708   2.874  0.2210  0.1042  0.0313
22964W        W40488  11.837  15.908   1.264  0.2169 -0.0523  0.3237
22965W        W40489   5.339   3.834   3.784  0.0621 -0.1609 -0.2796
22966W        W40490   5.643  12.322  13.564  0.1771 -0.1421  0.0436
22967W        W40491  14.412  10.367  14.225 -0.1806 -0.3216 -0.2203
22968W        W40492   4.337   7.223   0.775 -0.0574  0.2603 -0.0953
22969W        W40493   6.222  11.823  10.765  0.1160 -0.1194  0.1435
22970W        W40494   2.991  12.351   0.322  0.0554  0.5065  0.2971
22971W        W40495   1.696  17.637   2.454 -0.0527 -0.0344  0.3017
22972W        W40496  17.429   8.020  13.955 -0.2049  0.0173 -0.1011
22973W        W40497   0.565   6.701   2.529  0.1345  0.0652 -0.3705
22974W        W40498   8.370  12.419   1.595 -0.2391 -0.1802 -0.0098
22975W        W40499  13.877   7.265   0.953  0.2420  0.1844 -0.1200
22976W        W40500   5.817  11.667   0.723 -0.4383  0.0430 -0.1682
22977W        W40501   3.495   8.682   1.416 -0.0818  0.0702  0.2085
22978W        W40502   5.181   4.273  13.178  0.0921  0.3743  0.0031
22979W        W40503   0.825   5.373   1.800 -0.0112 -0.0307  0.1233
22980W        W40504  12.870   7.192   1.543 -0.0450  0.0227 -0.0992
22981W        W40505   2.786   7.973   5.679 -0.2338 -0.0096  0.0927
22982W        W40506   8.340  15.038   1.848  0.1482 -0.1357  0.1102
22983W        W40507   6.426   8.455  14.567 -0.0994 -0.0456  0.1117
22984W        W40508  13.068   7.498  11.725 -0.0058  0.0641 -0.2230
22985W        W40509   4.341   4.569   3.995 -0.2253  0.3500  0.1459
22986W        W40510  15.232  11.322  12.429 -0.1087  0.2772  0.2671
22987W        W40511  12.092   7.629   1.372 -0.0811  0.1296  0.2242
22988W        W40512   1.995   2.708  14.957  0.1423 -0.1510  0.0979
22989W        W40513   4.947  15.387   5.086  0.0327 -0.0535  0.1925
22990W        W40514   6.185   1.407  14.517  0.0902 -0.1104 -0.0878
22991W        W40515  14.294  10.380  15.549  0.1382 -0.0685 -0.1081
22992W        W40516   5.145  17.613   2.308 -0.2189 -0.2176 -0.3541
22993W        W40517  11.172  14.136  15.356  0.2846 -0.0094  0.0584
22994W        W40518   7.364  17.800   1.036  0.2013 -0.0861 -0.2798
22995W        W40519   0.003   6.649   2.348  0.1784  0.1615 -0.0023
22996W        W40520  11.056   8.773  13.432  0.1871  0.3463  0.2421
22997W        W40521  15.096   7.707  10.804 -0.0905  0.1293  0.1384
22998W        W40522   7.660   9.522  11.933  0.0712  0.0523 -0.1323
22999W        W40523  15.312   5.623   0.450 -0.0540  0.1175  0.1784
23000W        W40524   1.090   3.697  13.644 -0.0164 -0.0753  0.0206
23001W        W40525  10.664  10.110   2.798  0.0627  0.0655 -0.0434
23002W        W40526   5.663   6.936   0.134 -0.0889 -0.2760 -0.0447
23003W        W40527  15.494   1.233  11.928 -0.1210 -0.0392 -0.0060
23004W        W40528  10.561  16.857  12.987  0.0080  0.1293 -0.0663
23005W        W40529   6.130   7.153  15.591  0.0368  0.2135  0.0696
23006W        W40530   9.714  11.901  12.319  0.2595 -0.1406  0.1502
23007W        W40531  15.447  10.687   3.662 -0.0834  0.0143  0.2254
23008W        W40532  12.541   0.713   4.839 -0.1823  0.0880 -0.2617
23009W        W40533   8.768   4.139   3.228  0.0106  0.0531  0.0184
23010W        W40534   3.603   4.345   1.020  0.1835 -0.1604 -0.1837
23011W        W40535  10.440  11.810   0.674  0.2822  0.0462 -0.1886
23012W        W40536  16.516  16.789  12.185 -0.0929  0.2452 -0.1402
23013W        W40537   4.329   3.152   0.872 -0.0240  0.1550 -0.0851
23014W        W40538   8.900   7.731  13.865  0.1463  0.4100  0.0443
23015W        W40539  16.497   5.192  10.923 -0.0081  0.0753 -0.1767
23016W        W40540   8.415  16.167  11.283 -0.1356  0.2540  0.2479
23017W        W40541   6.496   9.418   9.950  0.2774  0.2176  0.0863
23018W        W40542   4.420   2.763  11.351 -0.0218 -0.0016 -0.0311
23019W        W40543  12.331   3.842   3.821 -0.1474  0.3794 -0.2826
23020W        W40544   5.052   2.033   1.779  0.1162 -0.1631 -0.0590
23021W        W40545   5.334   6.083   2.167  0.1595  0.2091 -0.0926
23022W        W40546   7.226  18.455   4.729 -0.2151 -0.0887 -0.0109
23023W        W40547  14.152   7.993  13.919 -0.0974  0.0470 -0.6162
23024W        W40548   4.783   1.535  15.495 -0.2969 -0.0759 -0.1185
23025W        W40549   0.115  15.169   4.623 -0.1681  0.0543  0.3684
23026W        W40550  14.333  13.848   5.146  0.1517 -0.1336  0.0376
23027W        W40551   2.187   2.104  15.037  0.0251  0.2467 -0.0074
23028W        W40552  12.509  15.436   1.510 -0.0435  0.1687 -0.2344
23029W        W40553   9.586  13.693  11.839 -0.1557 -0.0881 -0.1284
23030W        W40554  13.609  10.088  13.922 -0.1844  0.2265 -0.1032
23031W        W40555  14.444  11.912   4.071  0.1582 -0.0571 -0.3246
23032W        W40556  16.255  12.844   3.090  0.1120  0.1485 -0.1634
23033W        W40557   6.977   7.003   2.503  0.1356 -0.4682 -0.1259
23034W        W40558   2.152  10.453   5.935  0.1052  0.0926 -0.3985
23035W        W40559   7.729   6.960   4.006  0.2314  0.0094 -0.1049
23036W        W40560   2.121   7.217  13.502 -0.1735 -0.0435 -0.2245
23037W        W40561   1.058  18.460   1.205 -0.0678  0.2485 -0.1265
23038W        W40562  18.265  10.575  11.038  0.0872 -0.0127 -0.3450
23039W        W40563   4.076   8.957  13.071 -0.1913 -0.2519  0.1020
23040W        W40564  12.097   4.503   0.431 -0.1706  0.4346 -0.3507
23041W        W40565  16.932  11.691  15.428  0.0274  0.3222 -0.2360
23042W        W40566   3.003   4.275  14.558  0.4222  0.0065 -0.2073
23043W        W40567  13.330   0.709   4.021  0.2553 -0.1250  0.2065
23044W        W40568   1.988   7.484  15.408  0.1569  0.1623 -0.0410
23045W        W40569  17.192  11.516  13.676 -0.0802  0.2374  0.1353
23046W        W40570  11.537   0.303   1.792 -0.3285  0.0300 -0.3967
23047W        W40571   7.544   8.535  12.027 -0.2724 -0.2844  0.0961
23048W        W40572   3.648  14.614   0.367  0.0529  0.0027 -0.0601
23049W        W40573  17.067  11.194   3.789  0.1349 -0.0275 -0.0041
23050W        W40574   9.617   5.798  12.140  0.3727 -0.1007  0.1554
23051W        W40575  10.174   3.801  15.671 -0.2332 -0.0806 -0.0692
23052W        W40576   0.471   9.924   0.550 -0.5657  0.1636  0.3620
23053W        W40577   4.556   0.122  11.321  0.1913 -0.2710  0.2061
23054W        W40578  16.385   0.864  12.754 -0.0725  0.0998 -0.0179
23055W        W40579  13.800  14.716   0.967 -0.3243  0.2589  0.1717
23056W        W40580   6.137  15.582  14.159 -0.0884  0.1279  0.0241
23057W        W40581  11.935  13.518  13.213 -0.0442 -0.1108  0.0124
23058W        W40582  10.721   7.604  13.090  0.0928  0.1203 -0.1408
23059W        W40583   3.673   8.173   0.643  0.1185  0.1013 -0.0288
23060W        W40584   4.469   4.979  13.627  0.2002  0.0738  0.2438
23061W        W40585  11.453  12.837  12.276 -0.0853 -0.0919 -0.0375
23062W        W40586  16.918  17.178  13.672  0.2555  0.1358 -0.2033
23063W        W40587   5.856   9.450   0.732 -0.1150  0.0820  0.0401
23064W        W40588  11.098  12.422   1.710  0.0186  0.0093  0.1757
23065W        W40589   4.415  10.010   0.705  0.0996  0.1346  0.0324
23066W        W40590  17.737   1.231  10.481 -0.4068 -0.0021 -0.1481
23067W        W40591  14.165   8.669  14.823 -0.3508 -0.0596 -0.2038
23068W        W40592   3.716  18.047  13.257 -0.1727  0.0729 -0.0686
23069W        W40593  12.822  12.867   3.116 -0.1176  0.2415 -0.2239
23070W        W40594  12.375   4.317  14.981  0.2024  0.3171 -0.0367
23071W        W40595  14.227  10.562   4.414 -0.2194 -0.1944 -0.0604
23072W        W40596  15.595   9.119  13.868  0.0946  0.0913  0.0912
23073W        W40597  14.928   8.396  13.235  0.1437 -0.1079 -0.0890
23074W        W40598   9.445   1.566   0.612 -0.2414 -0.4245  0.3459
23075W        W40599  11.908  12.058   1.586 -0.1483 -0.1128 -0.1345
23076W        W40600  16.417   9.167   1.320 -0.2600  0.0007  0.1507
23077W        W40601   5.648   2.247   5.428 -0.0827 -0.2149 -0.1215
23078W        W40602  14.271  12.009   2.789 -0.0252 -0.1800  0.2487
23079W        W40603   2.397   7.345  15.192 -0.0682 -0.0662  0.1041
23080W        W40604   3.714  13.844  13.155 -0.1423  0.0656  0.3177
23081W        W40605  11.595   9.233  13.899 -0.1138 -0.0952  0.0688
23082W        W40606  15.391   4.916   2.307 -0.1344  0.1533  0.1754
23083W        W40607   7.945   6.305   4.868 -0.0720 -0.0775 -0.0261
23084W        W40608  16.184  12.783  13.100  0.0593 -0.0182 -0.0248
23085W        W40609   3.779   4.915   1.879 -0.0200  0.0483 -0.0130
23086W        W40610  16.919   2.414  14.868  0.4611 -0.2647 -0.1983
23087W        W40611  14.802  12.173   3.893 -0.1537 -0.3014 -0.0838
23088W        W40612  12.079   0.035   3.243 -0.0365 -0.1086  0.0672
23089W        W40613   1.642   5.406  11.672  0.4355 -0.1150  0.1474
23090W        W40614   8.389  10.407  11.046  0.1199  0.2292 -0.0097
23091W        W40615   7.764  14.608   3.237 -0.0686  0.0262 -0.0312
23092W        W40616  10.069   6.631  12.375 -0.0214 -0.3081  0.0218
23093W        W40617   6.596   0.934  15.367  0.0682 -0.0346  0.0773
23094W        W40618  12.334   1.880   3.256  0.2893  0.3946  0.1729
23095W        W40619  16.752   1.562   5.771 -0.0810 -0.0919  0.0877
23096W        W40620  16.646  10.998  14.485  0.0482 -0.3506 -0.0491
23097W        W40621   4.669   7.137   2.680  0.3016 -0.2918 -0.0841
23098W        W40622   5.516   0.715   1.293 -0.0295 -0.1328  0.2591
23099W        W40623   5.185   9.481  13.998  0.5184 -0.0683 -0.1623
23100W        W40624   7.142   7.397   5.121  0.1375 -0.4480 -0.0109
23101W        W40625   4.930  12.862  11.463  0.2582 -0.2172 -0.0587
23102W        W40626   4.928   4.397   3.459  0.1349 -0.0965 -0.1876
23103W        W40627  11.878   2.908  13.075  0.1579  0.3667  0.1892
23104W        W40628  17.293   7.056  13.176  0.0433  0.1163  0.3437
23105W        W40629  11.164   3.911   4.315 -0.1843  0.0875  0.1483
23106W        W40630  13.335  10.443   4.503 -0.3174 -0.1864  0.0068
23107W        W40631   2.350   4.755   0.262  0.2402 -0.1198  0.1305
23108W        W40632   2.844   1.416   4.104  0.2965  0.0978 -0.1070
23109W        W40633   4.746   7.888  12.810 -0.2123  0.2740 -0.1540
23110W        W40634  12.806   5.636  12.097 -0.2813  0.1351  0.1373
23111W        W40635   6.210  15.032  11.508 -0.3455 -0.0589 -0.0549
23112W        W40636  16.175   0.481   4.842 -0.0359  0.0715  0.0775
23113W        W40637   9.434   9.556  15.680 -0.0834  0.0846 -0.0363
23114W        W40638   3.106   8.678   2.976 -0.0557  0.1656 -0.0677
23115W        W40639   0.440   9.617   3.667  0.0770  0.1033 -0.1349
23116W        W40640   3.083  11.113   1.125  0.0453  0.2905 -0.0880
23117W        W40641  13.892  14.200   5.125 -0.0712  0.1072  0.4457
23118W        W40642   7.584  14.196   3.010 -0.1877 -0.2181  0.0113
23119W        W40643  14.985   4.940   3.794 -0.2373  0.1540 -0.0726
23120W        W40644  10.864   4.693  15.083 -0.2072 -0.2082 -0.1013
23121W        W40645   2.868   1.507  12.225 -0.2870 -0.1754 -0.1618
23122W        W40646   6.970  14.050  12.427  0.0486 -0.0525  0.0730
23123W        W40647  15.801   6.520  12.050  0.4268 -0.0018  0.3151
23124W        W40648  14.957   5.669   0.808 -0.2262 -0.3771 -0.1172
23125W        W40649   8.824   7.051   4.769 -0.1223 -0.1108 -0.1826
23126W        W40650   7.448   5.935  14.564  0.2169 -0.6525  0.4014
23127W        W40651   5.734   0.904  13.083 -0.0183  0.1263 -0.1532
23128W        W40652   5.087   6.400   0.982 -0.1431  0.1455  0.1183
23129W        W40653  11.810  18.350   0.428  0.1204 -0.0890 -0.2495
23130W        W40654  18.342   6.841  11.017  0.0057  0.4400  0.0754
23131W        W40655  13.147  11.722   5.738 -0.1305  0.1048 -0.0194
23132W        W40656   1.012   2.222  11.531  0.2116  0.1648 -0.0122
23133W        W40657  13.223  14.185   4.463 -0.1746  0.1225 -0.1988
23134W        W40658   3.771  17.660  11.720  0.4246  0.2389  0.1440
23135W        W40659   5.123   6.026   0.211  0.0366  0.1100  0.0476
23136W        W40660   4.494  15.542  14.870  0.0970  0.0003  0.0572
23137W        W40661   9.494  11.341  11.230 -0.1915  0.0777 -0.0419
23138W        W40662  16.314   9.926  11.416  0.0882 -0.2889  0.0691
23139W        W40663   7.389  12.168   1.477  0.1927  0.0900  0.1325
23140W        W40664  16.587   8.633  14.788  0.0739  0.1069 -0.1120
23141W        W40665   7.870   9.190  13.716  0.0424  0.2870  0.1406
23142W        W40666  16.336   2.025  11.411 -0.2456 -0.2649 -0.0942
23143W        W40667   4.950  12.413  12.323 -0.0136  0.1981 -0.0729
23144W        W40668   9.560  10.444   0.368 -0.0890  0.0236 -0.0280
23145W        W40669  11.637  15.382  11.920 -0.1158  0.1550  0.1268
23146W        W40670  11.884   9.757   3.659  0.0212 -0.0828 -0.0572
23147W        W40671   9.952   3.588   0.526 -0.0555  0.2267 -0.1132
23148W        W40672   4.617   7.168  12.091 -0.0746 -0.1766 -0.0468
23149W        W40673   0.104  11.602   4.798 -0.0786  0.2815  0.2072
23150W        W40674   4.434  10.255   3.146  0.3962 -0.0498  0.2509
23151W        W40675   9.475   5.967  10.940 -0.1103  0.2721  0.0752
23152W        W40676  15.710   6.995  12.684 -0.0762  0.0302 -0.0547
23153W        W40677   5.497   7.668  11.822  0.0148  0.0644 -0.0653
23154W        W40678   8.050  15.486   4.194  0.0094  0.0433 -0.0324
23155W        W40679  14.790  14.998  14.292 -0.0941  0.0228  0.2264
23156W        W40680  13.206   4.389   5.407 -0.1730  0.1863  0.1392
23157W        W40681   3.921  12.922   4.462  0.0449  0.2463  0.0806
23158W        W40682  14.369   8.516   1.268 -0.1698 -0.1635 -0.3151
23159W        W40683   8.945   3.237  10.287  0.2607  0.0717  0.1930
23160W        W40684   0.354   5.849   2.494  0.1555 -0.0514  0.0238
23161W        W40685  11.827   2.178   0.329 -0.0721 -0.1917  0.0949
23162W        W40686   9.393   7.118   3.896  0.3203 -0.0814  0.3129
23163W        W40687  15.261  17.503   6.034  0.3119 -0.4550 -0.3092
23164W        W40688  15.795   7.261   3.816  0.2535 -0.1759 -0.1474
23165W        W40689  16.198  11.770  14.105 -0.1769  0.1030 -0.1999
23166W        W40690   3.819  11.608  10.555 -0.1948 -0.0353 -0.0746
23167W        W40691   7.712   7.103   1.146 -0.2043 -0.0073  0.3637
23168W        W40692   6.791  17.152  14.242 -0.1100 -0.1064  0.3719
23169W        W40693   1.406   2.530   1.702 -0.0416 -0.0554 -0.3454
23170W        W40694  16.723  16.151  12.210 -0.0328  0.2436 -0.1269
23171W        W40695  16.764   9.030   5.545  0.0532  0.0985 -0.1422
23172W        W40696   9.297   2.218  14.588  0.0807 -0.0523  0.1037
23173W        W40697   3.645   5.937  11.089  0.0759  0.0373 -0.3260
23174W        W40698   4.309  18.235   1.237  0.1516 -0.2304  0.0142
23175W        W40699  14.600  17.995  13.928  0.3425  0.2794  0.2319
23176W        W40700  11.500   7.006   2.560  0.2912 -0.0830 -0.0074
23177W        W40701  15.656   8.920   2.301  0.1213  0.0365  0.1719
23178W        W40702   3.283   7.272   4.379  0.3058  0.0690  0.2005
23179W        W40703  15.752  11.652   3.906 -0.0770  0.1865 -0.1263
23180W        W40704   4.214  18.235  13.001  0.3222  0.0255  0.0645
23181W        W40705   2.818  10.599   1.061 -0.2477 -0.1848 -0.0650
23182W        W40706   2.151   9.799   4.450 -0.3894  0.2988 -0.0342
23183W        W40707   7.194   7.382  12.897  0.1013 -0.0605  0.0019
23184W        W40708   0.709   5.384   0.576 -0.1763 -0.1808  0.1237
23185W        W40709   6.609  16.793   0.758 -0.0877 -0.0841 -0.3540
23186W        W40710  16.409   2.196   2.044 -0.1897 -0.1468 -0.1426
23187W        W40711  18.196  10.736   5.595 -0.0516 -0.0154 -0.0968
23188W        W40712   8.071   7.315   1.644  0.3078 -0.0112  0.0391
23189W        W40713  17.272  10.439   2.621  0.0072  0.0228 -0.0094
23190W        W40714   3.156   7.199  14.395  0.0030 -0.1343 -0.2955
23191W        W40715  15.546   1.315   1.437 -0.0217 -0.1136 -0.1296
23192W        W40716  12.593  12.191  14.324  0.0080  0.1636  0.0586
23193W        W40717   1.253  16.284  15.380 -0.4716 -0.1156 -0.0109
23194W        W40718   1.548   8.275  13.910 -0.2020  0.1581 -0.0367
23195W        W40719  16.512  13.091   0.192 -0.1262  0.3011  0.2533
23196W        W40720   6.617   2.199   1.743  0.4300 -0.0939  0.1408
23197W        W40721  11.629  17.968   5.782 -0.1684 -0.1916  0.0030
23198W        W40722  12.477   8.919  12.779 -0.1663 -0.0077  0.2561
23199W        W40723  12.039  14.902  11.851  0.0075 -0.2948  0.1438
23200W        W40724  17.713  17.174   1.349  0.0630  0.2456 -0.3283
23201W        W40725   8.574   1.662  15.636 -0.1684 -0.0404  0.0405
23202W        W40726  10.921   8.662   1.593 -0.3020 -0.0097  0.3072
23203W        W40727  17.765   8.528   2.683  0.2474 -0.0074 -0.1986
23204W        W40728   9.004   9.707  12.333  0.1632  0.1513 -0.0500
23205W        W40729   9.708  10.000   4.106 -0.2014  0.1717  0.1477
23206W        W40730   8.737  12.472  13.586  0.1960 -0.0096  0.0340
23207W        W40731   2.578   7.202  13.232  0.0347 -0.3080  0.1088
23208W        W40732   3.706   0.376   3.290  0.0554  0.2522 -0.0134
23209W        W40733  13.284   4.490   2.228  0.2648  0.0248  0.1421
23210W        W40734   9.588  13.550  10.186 -0.0052  0.1515  0.0076
23211W        W40735   0.416   8.703  12.694 -0.2128  0.3552  0.0423
23212W        W40736   6.591  18.443  11.412  0.3385  0.0302  0.0306
23213W        W40737  15.580  10.606  11.439 -0.0652  0.2573 -0.1439
23214W        W40738   6.024  11.265   4.701 -0.4613  0.0932 -0.2117
23215W        W40739   9.302  10.905   4.628 -0.1276 -0.0463  0.0353
23216W        W40740   2.597   2.227  14.727  0.3558  0.0322  0.0568
23217W        W40741   7.513  14.593  11.098  0.0205 -0.1738 -0.0417
23218W        W40742   1.797   6.277   2.532 -0.0405 -0.1555 -0.0957
23219W        W40743  17.685   2.096   3.710  0.0510 -0.1432  0.0405
23220W        W40744  12.310   2.665  12.890  0.1819  0.2759  0.4105
23221W        W40745   1.546   2.768  15.043  0.2401  0.1683  0.1346
23222W        W40746   1.035  11.746   0.293 -0.0367  0.3917 -0.1717
23223W        W40747   0.200  17.342  12.183  0.4108 -0.0654 -0.0304
23224W        W40748  12.160  18.456   2.072 -0.0103 -0.1195 -0.0983
23225W        W40749  11.667   6.901  12.184 -0.0414 -0.3823  0.1915
23226W        W40750   2.046   9.456   0.101  0.0135  0.0494 -0.2013
23227W        W40751   8.833   6.784   0.909  0.1520  0.1380  0.4425
23228W        W40752   7.901   5.434  11.350  0.1045  0.2224  0.0649
23229W        W40753   7.132  16.834   0.079 -0.3417  0.0756 -0.0178
23230W        W40754   3.245   8.764  15.479 -0.0568  0.1142  0.1802
23231W        W40755   1.901   9.666   3.198  0.0817  0.2063 -0.1897
23232W        W40756   8.513  12.103   3.962  0.1636  0.0099  0.2802
23233W        W40757   4.578   6.662  11.208  0.0285  0.1776  0.3281
23234W        W40758   7.964  17.002   1.085 -0.2629 -0.1391  0.1206
23235W        W40759   0.266   6.589  13.303 -0.2293 -0.1495 -0.1373
23236W        W40760   4.287   0.740  12.985  0.1472 -0.2184 -0.2574
23237W        W40761  10.490   1.932   3.750 -0.1804 -0.1803  0.1613
23238W        W40762  11.114   1.255   4.239  0.1474  0.0913  0.1776
23239W        W40763   0.302   3.784   4.128  0.1561 -0.1725  0.0660
23240W        W40764  10.459  10.455   2.209 -0.2838 -0.3687 -0.0627
23241W        W40765   7.380   0.738   0.919  0.1682  0.0405  0.2478
23242W        W40766   0.444  14.594   1.912 -0.0513 -0.0463  0.0600
23243W        W40767   5.490   6.490   0.444  0.1317  0.0605 -0.0983
23244W        W40768  15.819   4.442  12.883  0.1204  0.1725 -0.1812
23245W        W40769   6.876   2.635  14.903  0.0345  0.1069 -0.0901
23246W        W40770   4.344  11.084  13.616 -0.0534 -0.0194  0.0351
23247W        W40771  13.062   1.542  13.670 -0.0162  0.1268 -0.1016
23248W        W40772  16.967   3.978   0.409 -0.2494  0.1918 -0.2290
23249W        W40773  16.149   3.075   1.252  0.0798 -0.1197  0.2159
23250W        W40774   8.999  12.022  12.741  0.2097 -0.5823  0.2957
23251W        W40775   3.650  15.340  11.385  0.0187 -0.1248  0.5258
23252W        W40776   2.083   7.653   4.497 -0.1682  0.4158 -0.2901
23253W        W40777   8.160   5.573   1.843  0.2179 -0.1942  0.2133
23254W        W40778  18.137   9.378   0.696 -0.1244  0.1065  0.0446
23255W        W40779  17.339   0.340   2.187 -0.1847 -0.3159  0.0300
23256W        W40780  11.443   1.801   3.225 -0.4395  0.1981  0.1477
23257W        W40781  14.739  11.171   2.669 -0.0827  0.0395 -0.1113
23258W        W40782  15.249   8.772  11.742 -0.0421 -0.0086  0.1137
23259W        W40783   9.724  10.032  13.463  0.2942  0.1356 -0.3641
23260W        W40784   2.957   7.942   1.740 -0.3388 -0.2140  0.3667
23261W        W40785   1.091  12.510   3.605 -0.0810 -0.0106 -0.2262
23262W        W40786   4.064  18.071  11.915 -0.1426  0.1630 -0.1278
23263W        W40787   4.329   2.954   2.021 -0.2303  0.4117 -0.0927
23264W        W40788   6.880  18.455   0.325  0.2556  0.0536 -0.0484
23265W        W40789   5.690  11.014  14.979 -0.2448 -0.1103  0.0059
23266W        W40790  15.476  11.579   1.649 -0.3189  0.0176 -0.3933
23267W        W40791   4.466   2.110   1.780  0.2503 -0.3009 -0.0631
23268W        W40792   3.414   2.792  13.692 -0.3129  0.1305  0.2063
23269W        W40793   7.890   7.199   0.225  0.4923 -0.3623  0.0794
23270W        W40794  11.958   2.707   4.863 -0.1917  0.0394  0.1152
23271W        W40795   2.396   9.819   2.756  0.0807  0.1904 -0.1605
23272W        W40796  14.145  12.997  15.708 -0.0864  0.5273 -0.1714
23273W        W40797   7.459   1.604  11.264  0.1282  0.0124  0.1303
23274W        W40798   7.368  15.156   4.526 -0.0694 -0.1552  0.1481
23275W        W40799  13.050  13.640  11.638 -0.0195  0.0419 -0.2237
23276W        W40800  17.937   5.937  11.278 -0.2005 -0.0973 -0.3171
23277W        W40801   2.179  16.166  12.779  0.2669  0.3408  0.1068
23278W        W40802   7.784   4.480  12.151 -0.2308  0.0091  0.3361
23279W        W40803  18.326   3.290  11.377  0.1270 -0.1295  0.2198
23280W        W40804   4.230   3.631   2.320  0.3628  0.3019 -0.1256
23281W        W40805   9.563   2.058  11.952  0.1566  0.0891  0.2280
23282W        W40806   4.988   9.746  10.723  0.4069 -0.2518 -0.3059
23283W        W40807   4.826   8.203   0.423  0.0333 -0.1148  0.0682
23284W        W40808   5.624  15.356  13.324 -0.6805  0.0712  0.5425
23285W        W40809   5.807  10.086  13.509  0.4207 -0.0949  0.1095
23286W        W40810  15.109   4.523  11.747 -0.1343  0.3949 -0.1602
23287W        W40811  10.050  14.584   3.948 -0.2491  0.3988  0.3540
23288W        W40812  15.113  16.814   4.166  0.1089 -0.0194 -0.0450
23289W        W40813   3.635  15.427   2.318 -0.0327 -0.1170  0.1043
23290W        W40814   7.453  11.478   4.303 -0.2762  0.2702 -0.0834
23291W        W40815   0.720   3.723  14.829  0.0178 -0.1001 -0.3175
23292W        W40816  13.749   0.672   1.686 -0.1004  0.0998 -0.2856
23293W        W40817   6.382   7.216  11.808  0.3112 -0.0478 -0.3640
23294W        W40818  18.242   1.457   3.181 -0.1043 -0.0880 -0.2197
23295W        W40819   4.950  14.726   3.242  0.0321  0.5704  0.1773
23296W        W40820   9.410   8.746  15.564 -0.0532 -0.1444  0.1111
23297W        W40821  18.277   6.710   1.325 -0.1940  0.1792 -0.0185
23298W        W40822  15.842   9.722  13.057  0.1047 -0.0328 -0.1453
23299W        W40823   7.398   8.424   1.297 -0.1145  0.0304  0.2769
23300W        W40824  15.026   9.818   2.135 -0.0406 -0.2096 -0.2303
23301W        W40825   7.254   6.908  14.810  0.0558  0.3036 -0.0918
23302W        W40826  10.248   5.378   0.884 -0.2884  0.0822  0.0855
23303W        W40827   7.377   6.822   1.472 -0.0057 -0.1749  0.0607
23304W        W40828  14.119   0.759   2.682  0.0723  0.1945  0.0583
23305W        W40829   3.702  16.040  13.051  0.4274 -0.0972  0.3333
23306W        W40830  12.928  15.969   0.253  0.3809 -0.0110  0.0441
23307W        W40831   6.622  13.435   1.813  0.0854 -0.1347  0.0083
23308W        W40832   2.450  17.394  14.304  0.2377  0.2602  0.3358
23309W        W40833   5.532  11.018   4.661  0.0660 -0.0081  0.0091
23310W        W40834   8.784   5.021   4.294  0.3154 -0.0632  0.0182
23311W        W40835  18.313   5.429   3.314 -0.0337 -0.0830 -0.3171
23312W        W40836  10.196  14.557  15.292 -0.1484  0.1590 -0.0074
23313W        W40837   1.054   0.103   4.542 -0.0901 -0.0071  0.1469
23314W        W40838  14.315  17.604   1.699  0.2567 -0.0337  0.1277
23315W        W40839   7.643  15.785   3.230 -0.5531 -0.4594 -0.0815
23316W        W40840   4.735   1.715   1.430  0.0543 -0.1641 -0.1713
23317W        W40841  18.107  14.599  11.526 -0.1702 -0.2119 -0.2224
23318W        W40842   7.168   7.857  13.667 -0.2857 -0.2269 -0.3311
23319W        W40843  15.787  17.784  13.600 -0.6144  0.0284  0.0796
23320W        W40844   9.187  12.681   4.984  0.3847 -0.0978  0.1629
23321W        W40845   4.351   2.192   5.368  0.2646  0.0104 -0.0444
23322W        W40846   2.945  15.552  13.043  0.1793  0.0886  0.0281
23323W        W40847  17.061   2.199   0.102  0.0997  0.0313 -0.0670
23324W        W40848   8.194   6.925   4.413 -0.0526  0.0108 -0.0090
23325W        W40849   3.478  12.792  14.172 -0.1937 -0.0334 -0.5211
23326W        W40850  15.576  11.142   1.944  0.2076 -0.2088 -0.2575
23327W        W40851  15.273   1.756   3.936  0.1663  0.1038 -0.2387
23328W        W40852   3.754  18.301  12.627 -0.0863  0.1616 -0.0459
23329W        W40853  15.704   0.656   4.165 -0.3685 -0.0253  0.1855
23330W        W40854   7.142  13.546   5.499 -0.1272  0.2619 -0.0072
23331W        W40855   5.142  10.595  12.038 -0.1423 -0.1021  0.1982
23332W        W40856   0.784  15.511   4.165  0.0536 -0.0475  0.0761
23333W        W40857  12.459   6.153  14.324 -0.1960  0.0817  0.0809
23334W        W40858   1.845  14.521  13.213 -0.3946 -0.2027 -0.0993
23335W        W40859   2.718  15.953   1.478  0.0645  0.1926 -0.0840
23336W        W40860  11.833   7.009   3.929  0.1220  0.2259  0.0314
23337W        W40861   5.409  17.449   0.775  0.2210  0.0845 -0.2555
23338W        W40862   9.664   1.517   1.231 -0.1654  0.3909  0.1767
23339W        W40863   2.379  18.279   1.537 -0.0316  0.0472  0.2599
23340W        W40864   7.806   1.701  10.823  0.1325 -0.0895  0.2465
23341W        W40865   1.913  18.356   4.176 -0.3131 -0.1502 -0.4097
23342W        W40866  10.689  17.957   1.801  0.0115 -0.0675 -0.0406
23343W        W40867  14.739   1.095  10.956 -0.1341  0.0619  0.0643
23344W        W40868   9.501  12.539  13.445  0.0243 -0.2493  0.2242
23345W        W40869  14.132  17.065  15.114 -0.1591 -0.1131  0.0227
23346W        W40870   1.502   6.145  12.783 -0.0155 -0.0557  0.0013
23347W        W40871  13.652   8.590   3.776  0.0139 -0.1034  0.2670
23348W        W40872   7.584  15.579   1.870 -0.0496  0.5093 -0.0666
23349W        W40873   6.262  10.458   3.601 -0.2105 -0.3083  0.0293
23350W        W40874  11.156  13.596   5.020 -0.0273 -0.2450 -0.1308
23351W        W40875   8.289  13.605   1.922  0.1141 -0.1616 -0.0005
23352W        W40876  14.973  15.951   6.004 -0.2119  0.0947 -0.0267
23353W        W40877   4.240   5.146  10.855 -0.1281 -0.1701  0.3069
23354W        W40878  11.607  16.804   4.774  0.2572 -0.1789 -0.1783
23355W        W40879   6.244  12.001  14.351  0.0631  0.0402 -0.1963
23356W        W40880   7.770   0.102  13.020  0.1551 -0.1052 -0.4931
23357W        W40881   4.469  15.525   1.660  0.0498 -0.2103 -0.5469
23358W        W40882   1.134  16.389   5.136  0.0508 -0.1847 -0.3175
23359W        W40883  10.372   7.139   1.065  0.1598  0.2840 -0.1664
23360W        W40884   5.062  16.490  12.191  0.2473 -0.2158  0.1693
23361W        W40885   1.303   9.009  11.119  0.2244 -0.0124  0.1239
23362W        W40886   8.365   4.319  15.004 -0.1417  0.1448 -0.2722
23363W        W40887  11.191  16.162  14.395  0.0919 -0.0262  0.0096
23364W        W40888   1.352   6.930   3.750 -0.3254 -0.1382 -0.1627
23365W        W40889  13.932   8.763   0.671 -0.1826  0.2640 -0.0913
23366W        W40890   1.944  14.786  11.898 -0.2546 -0.1605  0.1316
23367W        W40891   8.861  15.817   2.341 -0.2704 -0.2054 -0.0468
23368W        W40892  11.170   9.907   0.766 -0.1467  0.0405  0.0766
23369W        W40893  10.133   2.661   0.005  0.1721  0.0539 -0.2167
23370W        W40894  10.088   5.249  11.606 -0.0296 -0.2550  0.0601
23371W        W40895   1.534  13.347   1.429  0.0655 -0.0124  0.2603
23372W        W40896  13.212  16.238   0.638  0.2255 -0.2811 -0.0216
23373W        W40897   7.671   9.832   2.010 -0.1618 -0.0311  0.2839
23374W        W40898  17.837   4.048   2.588  0.2846 -0.0015  0.1359
23375W        W40899   6.394   5.269   2.660 -0.2801  0.2182  0.3445
23376W        W40900   7.480  16.520   1.906 -0.1223  0.1852  0.0558
23377W        W40901  18.325   1.868   3.986 -0.1428  0.0191 -0.1192
23378W        W40902  14.634   1.145  14.635 -0.2370  0.1601  0.0004
23379W        W40903  14.327  17.515  11.617  0.2600  0.2389 -0.1440
23380W        W40904   8.368   0.874  13.590 -0.0118 -0.1708 -0.0949
23381W        W40905   2.264   7.146   9.633  0.0495  0.0308  0.0757
23382W        W40906   9.239   1.189   3.057  0.1909  0.1357 -0.3160
23383W        W40907  14.205   4.826   2.341 -0.0562  0.3712 -0.1375
23384W        W40908   7.296   2.858  14.002 -0.1975 -0.0184 -0.1028
23385W        W40909  14.232  18.097   3.600 -0.1958  0.1120 -0.2625
23386W        W40910   6.137   5.922  13.783 -0.1814 -0.0279  0.0728
23387W        W40911   2.023  11.875  15.216 -0.0087  0.1997 -0.0756
23388W        W40912  15.676  11.307  13.633 -0.0601  0.1768 -0.1275
23389W        W40913   6.964  15.878   0.917 -0.2168 -0.0405  0.1641
23390W        W40914  14.678   0.321  12.598  0.2044  0.0735 -0.2105
23391W        W40915  13.735   1.497  14.786  0.0810  0.1399  0.2819
23392W        W40916   6.200   3.720   1.291 -0.2177  0.1574 -0.1149
23393W        W40917  11.446   0.201   2.383  0.3935  0.0838  0.2287
23394W        W40918   3.855  13.172  10.616  0.0566  0.0020  0.2193
23395W        W40919   1.874  18.002   3.298 -0.0014  0.0773  0.2354
23396W        W40920  12.529  14.623   3.278  0.2048  0.0321 -0.2306
23397W        W40921   0.596  18.452   2.518 -0.1641  0.0199  0.3028
23398W        W40922   7.099   7.371  13.476 -0.1325  0.1980 -0.4486
23399W        W40923  14.803   6.665   2.118  0.1372  0.2199 -0.0272
23400W        W40924   2.967   0.230   3.272  0.0310  0.2683 -0.1693
23401W        W40925  10.108  12.608   2.038  0.0975 -0.1848  0.2130
23402W        W40926   5.028  17.229   3.493  0.2390 -0.1877 -0.0764
23403W        W40927  12.590  11.031  12.785  0.2048 -0.0424 -0.2144
23404W        W40928   3.354  11.842   5.624  0.1544  0.0438 -0.0618
23405W        W40929   4.800   1.890   0.882  0.2124  0.0335  0.4368
23406W        W40930   9.758  13.151  12.728  0.0901 -0.1049 -0.0039
23407W        W40931   0.499   6.314  14.522 -0.3691  0.2649  0.0508
23408W        W40932   1.548  11.093  10.665 -0.2278 -0.2663  0.1311
23409W        W40933  16.065   6.103   2.959 -0.0049 -0.2490  0.3409
23410W        W40934  16.941   5.580   4.883  0.0873 -0.2242  0.0500
23411W        W40935  14.876   4.576  14.278  0.0359 -0.0144  0.2519
23412W        W40936  12.899   0.397  14.836  0.1552 -0.2356 -0.0380
23413W        W40937   8.693   4.375   2.216  0.1109 -0.2416  0.1279
23414W        W40938   5.055  13.300  11.239  0.0489 -0.2346 -0.1006
23415W        W40939   2.659   8.987   4.691 -0.2134 -0.5093  0.1319
23416W        W40940   8.243   1.366  12.995  0.3986 -0.0714  0.0087
23417W        W40941  17.055   5.853  10.335  0.0072  0.1561 -0.2418
23418W        W40942   3.532   8.378  15.425 -0.1122  0.3987 -0.3436
23419W        W40943   6.694  18.363   3.992  0.0451 -0.2109  0.2117
23420W        W40944   9.750   2.809  14.223 -0.3975  0.0628  0.1309
23421W        W40945  15.464  15.740   2.812 -0.0784 -0.1168  0.2020
23422W        W40946   5.013   9.760   3.354 -0.1168  0.1968 -0.1252
23423W        W40947  14.163   1.066   1.713  0.0254  0.1663  0.0652
23424W        W40948  18.453   2.102  14.694  0.0892 -0.0779  0.0475
23425W        W40949   9.646   1.868  11.410  0.0008  0.1466 -0.0357
23426W        W40950  14.784  14.476   0.206  0.0610  0.0595  0.2480
23427W        W40951   0.628   2.888   0.616 -0.1460  0.3829 -0.2205
23428W        W40952  11.220   8.086  10.797  0.0097 -0.0224 -0.1653
23429W        W40953  17.386  15.808  15.079 -0.1638  0.0092  0.2681
23430W        W40954   4.686   8.021  11.203  0.3084  0.0478  0.1501
23431W        W40955   3.174   6.196   3.440  0.0774 -0.0544  0.1864
23432W        W40956   9.635   4.415  15.191 -0.1415 -0.3173  0.1340
23433W        W40957  15.703   5.836   3.563 -0.1017 -0.3669 -0.0456
23434W        W40958   5.609  10.558   0.338 -0.3090  0.4494 -0.0729
23435W        W40959   6.045   9.472   1.399 -0.1825  0.4235 -0.0717
23436W        W40960  14.731  11.465   1.200  0.0572  0.2397  0.2916
23437W        W40961   1.176  15.895  11.672 -0.1160 -0.0176  0.3056
23438W        W40962   1.710   0.443   0.214 -0.0427 -0.0668  0.1786
23439W        W40963  17.598  14.615   0.221  0.1392  0.0511  0.0952
23440W        W40964   2.339  13.697   3.509  0.2377  0.0788 -0.0549
23441W        W40965  17.447   6.958  15.406 -0.3812 -0.0421 -0.0465
23442W        W40966  16.616   2.102   4.727 -0.0004  0.1303 -0.1684
23443W        W40967  16.415   9.258  14.239  0.2892 -0.0000 -0.6451
23444W        W40968   3.829   8.649   4.982  0.2078  0.0777 -0.0704
23445W        W40969   1.984   0.493  14.327  0.0679 -0.0382 -0.0015
23446W        W40970   1.606   2.527   2.616  0.1430 -0.1362 -0.0049
23447W        W40971  14.554   1.472  11.951 -0.0217  0.0974 -0.4911
23448W        W40972   2.104   0.878   4.926  0.1500 -0.1850 -0.0239
23449W        W40973   6.979   2.609   4.297 -0.0412 -0.2359  0.0006
23450W        W40974   1.350  10.036  11.038 -0.1145  0.0878  0.1297
23451W        W40975   7.904   8.921   0.514  0.3218  0.2955  0.1676
23452W        W40976  14.875  10.148   2.719 -0.4052 -0.0052  0.0548
23453W        W40977  15.255  14.720  14.069 -0.3968 -0.0416  0.0563
23454W        W40978   5.299  15.050   4.148  0.0509  0.0308  0.3517
23455W        W40979  17.726   6.988  12.349 -0.1361  0.0712 -0.1526
23456W        W40980   4.741  11.404  13.498 -0.1385 -0.0130 -0.3511
23457W        W40981   7.669  16.756  11.744  0.0009  0.1004 -0.2908
23458W        W40982  18.133  15.443   3.627 -0.2627 -0.4525 -0.1715
23459W        W40983   5.645  14.155   4.267  0.1461  0.1301 -0.0227
23460W        W40984  15.392   1.625   1.867  0.1063  0.2434  0.3148
23461W        W40985   8.618  11.494  11.614 -0.0393  0.1883 -0.2123
23462W        W40986   5.674   3.676  14.857 -0.0159  0.0881  0.2041
23463W        W40987   7.968   1.879  12.804  0.1190  0.3482  0.1013
23464W        W40988  14.400   9.819   1.145 -0.0339  0.0176  0.1131
23465W        W40989  10.763  14.260   2.563 -0.1536 -0.0611 -0.2192
23466W        W40990  16.081   6.098  15.551 -0.0137  0.0763  0.0274
23467W        W40991  16.159  12.775   4.000  0.1060  0.0961  0.0693
23468W        W40992   2.551   6.263  10.041  0.1170  0.0869 -0.3723
23469W        W40993   7.811  13.767   2.803  0.3957 -0.0194 -0.3330
23470W        W40994  11.526   5.974   1.466 -0.0110  0.3452 -0.2866
23471W        W40995   5.378  15.049  12.002  0.3605  0.0682  0.0343
23472W        W40996   8.319  17.760  14.724  0.1147  0.2565 -0.0068
23473W        W40997   9.094   5.483   3.610 -0.4577  0.1971 -0.0074
23474W        W40998   5.800  13.215  13.298  0.0959  0.1172 -0.1917
23475W        W40999   9.636  10.105   3.486 -0.1485  0.3431  0.3835
23476W        W41000   9.346  10.919  11.010 -0.0659  0.1298  0.3010
23477W        W41001  11.027  12.407   2.638  0.3799  0.0196 -0.1954
23478W        W41002  10.669   8.474  13.507  0.0724  0.2067 -0.0457
23479W        W41003  14.669  15.602  11.519 -0.0630 -0.0266 -0.1476
23480W        W41004  13.466   4.145   3.584 -0.1244 -0.0147 -0.0171
23481W        W41005  18.276   2.353   4.954 -0.2092 -0.1075 -0.0911
23482W        W41006   0.179  12.152   3.615  0.1648  0.2127  0.1988
23483W        W41007   2.587  10.037   2.284  0.1589 -0.2877  0.3401
23484W        W41008   7.995  15.062  13.011 -0.1064  0.0689  0.1816
23485W        W41009  16.245   7.204   3.693  0.2033  0.3485 -0.3567
23486W        W41010   8.673  12.045  13.860 -0.2007 -0.0496  0.0058
23487W        W41011  13.911  11.548   4.094 -0.1334 -0.1556 -0.0175
23488W        W41012  13.170  14.599   2.390  0.1578  0.4891  0.3669
23489W        W41013  17.731   0.890  12.516 -0.0489 -0.0037 -0.0561
23490W        W41014  15.292  15.072   0.125  0.0282 -0.2420 -0.2764
23491W        W41015  13.679  15.734  15.227  0.2111  0.2250 -0.1802
23492W        W41016  12.053   2.993   0.611  0.2161  0.1680  0.1261
23493W        W41017   3.680   5.203   3.708  0.2713 -0.1940 -0.0193
23494W        W41018   7.869  14.787  15.427 -0.0440  0.0922  0.0242
23495W        W41019  11.050  13.280   4.008  0.1223  0.1165 -0.1413
23496W        W41020  17.627  15.214  13.876  0.0632 -0.2333 -0.0150
23497W        W41021   1.819  11.850  13.781 -0.1260 -0.1613  0.0706
23498W        W41022  11.123  17.625   1.994 -0.0442  0.2489 -0.0213
23499W        W41023   8.268   3.165  13.579 -0.2059 -0.2168 -0.2588
23500W        W41024   0.837   5.990   2.432 -0.2137 -0.1505  0.2502
23501W        W41025  17.304   6.101  13.803 -0.0635  0.2878  0.2409
23502W        W41026  13.693   3.095  15.606 -0.0535 -0.2798 -0.1800
23503W        W41027   7.363  15.365   9.967  0.0954 -0.2047 -0.2466
23504W        W41028   1.936   0.448  13.440 -0.0494  0.0158 -0.3165
23505W        W41029  16.744  17.136   1.228  0.1336  0.0584  0.1760
23506W        W41030  15.109   7.775   0.888 -0.1833 -0.1906  0.2588
23507W        W41031   1.576   5.305   4.647 -0.1215 -0.0373 -0.2256
23508W        W41032   1.047   9.870   2.203 -0.2278 -0.0709 -0.0646
23509W        W41033  13.097   8.220   1.702 -0.0418 -0.2976 -0.0088
23510W        W41034  11.127  10.847   1.917 -0.1147  0.0561 -0.4327
23511W        W41035   9.599  16.101   4.595  0.0304  0.1572 -0.1393
23512W        W41036  12.978   8.088  11.566  0.1926 -0.3865  0.2302
23513W        W41037   7.422  10.533  10.921 -0.1796 -0.0979  0.1090
23514W        W41038   8.130   3.322   1.180  0.3400 -0.0774  0.1605
23515W        W41039  12.303   9.719  12.098 -0.2441 -0.0494  0.1107
23516W        W41040   9.698   3.631   2.452 -0.0104  0.1842  0.0498
23517W        W41041  16.386  16.745   1.354 -0.1218 -0.1366 -0.1668
23518W        W41042  14.374  17.267   3.505 -0.0113  0.1563  0.1355
23519W        W41043   5.340   8.154  11.684 -0.0077 -0.0199  0.1946
23520W        W41044  17.097   7.440   3.221  0.1258 -0.0269 -0.0368
23521W        W41045   7.645   5.463  14.138  0.1129 -0.2686 -0.0482
23522W        W41046   8.769   9.921   3.409  0.0348  0.2854  0.1499
23523W        W41047  16.234  15.411  15.084  0.1082  0.2813  0.0086
23524W        W41048   5.301  12.933   2.047 -0.0133 -0.2698 -0.2973
23525W        W41049  17.814   3.379   0.206 -0.4304  0.2580  0.3205
23526W        W41050  15.565   1.722  14.516  0.0666 -0.2119 -0.0735
23527W        W41051  17.928   0.666   1.663 -0.2056  0.1789  0.2443
23528W        W41052  16.640  16.421  15.460 -0.0598 -0.2461 -0.1137
23529W        W41053  15.909   0.853  13.039  0.1262 -0.0957  0.0122
23530W        W41054  18.073   9.049   9.848  0.2980  0.2505  0.0998
23531W        W41055  11.900   7.544   3.339  0.1353  0.1142 -0.0346
23532W        W41056   0.996  10.642   1.875  0.0825  0.0259  0.2161
23533W        W41057  15.923   9.818  12.578  0.2170 -0.0326  0.0577
23534W        W41058   8.281  16.016  11.772 -0.0768 -0.0080  0.2031
23535W        W41059  17.568  15.890  14.549 -0.3992 -0.0151  0.0143
23536W        W41060   1.020   7.300  12.584  0.0935  0.2748 -0.1181
23537W        W41061   3.191  17.810  14.079  0.0492  0.2689 -0.3318
23538W        W41062   8.959  17.515   3.776  0.0203 -0.1943 -0.2011
23539W        W41063  10.538  13.902   3.486  0.0563 -0.0557  0.2708
23540W        W41064  15.279  17.366   3.073 -0.3441 -0.0382 -0.1035
23541W        W41065   4.950   2.724  13.463  0.0916  0.0410  0.1208
23542W        W41066   5.336  18.259   1.268  0.2673 -0.1619 -0.1284
23543W        W41067   6.527   5.194  15.522 -0.1620 -0.1426 -0.1529
23544W        W41068   3.463   0.364   5.766 -0.1049  0.1227 -0.1468
23545W        W41069   7.193   4.179  12.672 -0.1470  0.0113  0.0278
23546W        W41070  13.543   3.957   9.617 -0.0805 -0.1405 -0.0477
23547W        W41071   4.688  11.707   2.687 -0.0820 -0.1206 -0.0309
23548W        W41072  15.119   6.069  11.321  0.0145 -0.0475  0.1567
23549W        W41073   7.159  12.009  12.557 -0.2944 -0.0357 -0.0687
23550W        W41074   1.785  14.623   3.807  0.1013 -0.1559 -0.0684
23551W        W41075  16.733  13.834   4.101  0.1724 -0.2935  0.1436
23552W        W41076  18.167   3.397   1.524 -0.0146  0.1599 -0.1624
23553W        W41077   2.202  16.717  13.519  0.0067 -0.2443 -0.1012
23554W        W41078  18.305  16.304  14.203 -0.5840 -0.1477  0.2803
23555W        W41079   3.532  12.335  14.453  0.2986  0.2231 -0.0213
23556W        W41080   3.733   8.091   4.192 -0.1783  0.0762  0.0295
23557W        W41081   9.470   9.239   2.375 -0.0143 -0.2081  0.0879
23558W        W41082   5.364  12.868  11.799  0.4601  0.0595  0.1162
23559W        W41083  15.798   2.190  14.457  0.0078  0.1274  0.1681
23560W        W41084  10.926  18.276   4.361  0.0513  0.2349 -0.1494
23561W        W41085  13.625  16.755   1.896 -0.0482 -0.0722 -0.1513
23562W        W41086   8.928  15.563  11.070  0.0825  0.2357 -0.0636
23563W        W41087   1.452   8.805  13.805  0.3399  0.0933 -0.1493
23564W        W41088   4.909   4.432  10.640  0.2439  0.1427  0.0671
23565W        W41089  12.601   4.130   3.457  0.1437 -0.0829 -0.0431
23566W        W41090   9.675  12.276  14.327 -0.1609  0.1173  0.1769
23567W        W41091   5.197   9.520  12.249  0.0371 -0.2549  0.0330
23568W        W41092   5.721  16.428   0.059 -0.0864 -0.0019  0.2583
23569W        W41093  16.165   7.743  14.006 -0.2819  0.2944 -0.1655
23570W        W41094   5.808   4.613  11.048  0.3523 -0.1127 -0.0217
23571W        W41095  14.644  11.678   3.733  0.0956  0.3947 -0.0456
23572W        W41096  10.811  14.058  14.532  0.2386 -0.2577 -0.0806
23573W        W41097   3.682   8.892  12.789  0.0371  0.1013 -0.1828
23574W        W41098  16.201   9.233  13.772  0.0626  0.2440  0.4221
23575W        W41099   3.217  18.408  11.832 -0.3371 -0.3067  0.0336
23576W        W41100   5.408   7.117   3.061  0.3241  0.0395 -0.3173
23577W        W41101   2.559   2.330   0.164  0.2331 -0.1406 -0.0501
23578W        W41102   0.938  12.970   3.911  0.0310  0.1854  0.3152
23579W        W41103   5.982   3.584  12.397  0.0552 -0.0678  0.1914
23580W        W41104   6.367  15.962  11.819  0.0643 -0.0261 -0.0339
23581W        W41105   9.647   9.781  12.658 -0.2932 -0.1732 -0.1936
23582W        W41106   3.139  11.285  12.204  0.1052  0.1785 -0.4067
23583W        W41107  15.156  11.560  11.212 -0.1365  0.3906  0.0656
23584W        W41108  16.283  12.688  11.629 -0.0562  0.0092  0.0171
23585W        W41109   2.303   0.342   5.341  0.2067  0.1951 -0.0078
23586W        W41110   4.845  14.448   3.830 -0.0997 -0.1318  0.1038
23587W        W41111   7.305  16.805  11.078 -0.1915  0.1221  0.5580
23588W        W41112  10.304  17.187  15.522  0.2825 -0.1623 -0.0168
23589W        W41113  12.135   0.280   0.725 -0.0075 -0.2285  0.0199
23590W        W41114  14.947   9.763   0.986 -0.0232  0.4343 -0.3359
23591W        W41115  11.542  15.908   2.309  0.2103  0.0269  0.3811
23592W        W41116  16.432  13.007   2.565 -0.0209  0.0052 -0.2638
23593W        W41117  17.488  12.485   3.254 -0.2954  0.1455  0.3150
23594W        W41118   8.007   5.710   1.179  0.0916 -0.0560  0.0889
23595W        W41119  15.127  11.446   2.826 -0.1171  0.1016  0.0285
23596W        W41120  14.945   9.191  13.310 -0.2844  0.1965 -0.2309
23597W        W41121   3.191  13.286  11.865 -0.0082 -0.0180 -0.1905
23598W        W41122   9.134  14.717   4.488 -0.0199 -0.0289  0.0934
23599W        W41123  17.916   1.111  13.887  0.1430 -0.0762  0.2122
23600W        W41124   6.311  12.260  12.586 -0.2271 -0.2938 -0.3711
23601W        W41125  14.982   8.335  11.757 -0.1293 -0.1862  0.0569
23602W        W41126  11.199   1.499  13.761 -0.2588 -0.1527 -0.0034
23603W        W41127  16.792   9.262   3.456  0.1806  0.1459  0.0051
23604W        W41128  12.164  15.801   5.752  0.0744  0.3946 -0.3053
23605W        W41129   4.510  13.755   2.649 -0.2993 -0.4172 -0.3110
23606W        W41130  13.911   2.070  14.061  0.0888  0.0397  0.1039
23607W        W41131   0.903   2.321  14.313  0.1742 -0.0704 -0.0049
23608W        W41132   7.704   1.944   1.744 -0.0527  0.0811  0.1614
23609W        W41133   2.546   3.619   0.539 -0.0064 -0.0932 -0.2612
23610W        W41134  16.422  14.657   1.188 -0.0718 -0.3141 -0.1941
23611W        W41135  17.211   7.827  12.178 -0.1605 -0.0928  0.0892
23612W        W41136  12.769  12.771   4.909 -0.3076  0.1444 -0.0093
23613W        W41137   5.026   8.610   4.319  0.2411  0.0968 -0.3311
23614W        W41138  15.520   3.753   5.719  0.0150 -0.0567  0.1008
23615W        W41139  18.007   4.816   1.501 -0.0590  0.0844 -0.4283
23616W        W41140   7.798  12.943  11.183  0.1129 -0.2990  0.0555
23617W        W41141   6.554   0.978  12.244 -0.1359  0.0492  0.1017
23618W        W41142  11.635   4.928   1.931  0.2825 -0.5085 -0.0792
23619W        W41143  12.096  16.914  13.479  0.0641  0.1097  0.3381
23620W        W41144  15.257   7.729   3.251 -0.1359  0.2863 -0.0859
23621W        W41145  17.265  12.398  11.414  0.1371  0.0749 -0.2117
23622W        W41146   3.678   1.284  11.225  0.1415 -0.1666 -0.0307
23623W        W41147   6.994  10.651  13.105 -0.1617  0.0381 -0.0009
23624W        W41148   8.796   0.711   2.037 -0.2600  0.0417 -0.2238
23625W        W41149  11.492   9.736   3.277 -0.0258 -0.0677  0.0582
23626W        W41150   0.644  13.605   1.017  0.1316 -0.2632  0.1608
23627W        W41151   1.287  10.166  13.041 -0.1406 -0.1133 -0.4303
23628W        W41152  18.338  17.308  13.992  0.1704 -0.2388 -0.0057
23629W        W41153   4.948   2.473  15.461  0.1399  0.4710  0.2233
23630W        W41154   5.153   9.754  13.060  0.1655  0.2298 -0.0307
23631W        W41155  18.160   2.723  12.082  0.2791 -0.0540  0.0773
23632W        W41156   5.256  15.178  14.313  0.1468  0.1528 -0.1743
23633W        W41157   9.377  11.198  13.679  0.0850  0.0694  0.0552
23634W        W41158   2.241  14.096  15.157 -0.0971  0.0841 -0.1992
23635W        W41159   6.931   3.413  14.467  0.0652 -0.3280  0.0938
23636W        W41160   2.376  15.165  14.625  0.3210 -0.0540 -0.2022
23637W        W41161  10.190   9.912   3.984 -0.2238 -0.1269  0.1914
23638W        W41162  15.364  14.734  13.090  0.1995 -0.1865  0.0510
23639W        W41163  15.187  15.664   5.099  0.3254 -0.2487 -0.2824
23640W        W41164  14.244  14.791  11.184  0.2471  0.1654  0.0238
23641W        W41165  12.514  15.003   3.618  0.1593  0.0273  0.1031
23642W        W41166  18.320   6.115  13.825 -0.0260  0.2733 -0.1837
23643W        W41167   0.971   4.352  12.886 -0.2480 -0.1726  0.0386
23644W        W41168   1.484   3.467   0.517  0.0777 -0.0135  0.0012
23645W        W41169  10.862   9.791  12.714 -0.0231  0.0356  0.1646
23646W        W41170  18.143   6.835  12.593  0.1540 -0.2496 -0.1182
23647W        W41171   8.458  10.509  11.537  0.2010  0.1045  0.0715
23648W        W41172   8.353   9.333   4.567 -0.0741  0.3121 -0.3467
23649W        W41173  17.530   1.014   3.137  0.2846  0.1412  0.0593
23650W        W41174   6.295  15.754   3.339 -0.0758 -0.2336  0.1694
23651W        W41175  10.786  13.733   2.679  0.0269 -0.0517 -0.0256
23652W        W41176   6.627   0.418  15.508  0.2043 -0.0339  0.1904
23653W        W41177  11.804   5.813  12.666  0.1220  0.0547 -0.2377
23654W        W41178  12.971  10.274   2.285 -0.0434  0.0098 -0.1263
23655W        W41179  11.512   7.388  12.504 -0.0430  0.0657 -0.2806
23656W        W41180   4.592  12.054  12.202 -0.0566 -0.2017 -0.0487
23657W        W41181  11.019   9.196   2.852  0.3100  0.2606  0.1480
23658W        W41182  15.269   1.130   1.996 -0.2649 -0.1106  0.1970
23659W        W41183   3.817   8.736   0.985 -0.0685 -0.3563 -0.2051
23660W        W41184  10.570   2.661  12.167 -0.3458  0.0498 -0.1042
23661W        W41185   1.160   9.130   2.770  0.0311  0.2633 -0.1197
23662W        W41186   1.017   1.310  12.113 -0.0129 -0.0091 -0.0244
23663W        W41187   1.059  10.971  13.630  0.1352  0.1487  0.0397
23664W        W41188  10.532  10.767  14.507  0.2426  0.1031  0.0602
23665W        W41189  13.861   3.829  11.632 -0.2938 -0.0416 -0.1505
23666W        W41190   3.456  12.838   2.706  0.1671 -0.0390 -0.0278
23667W        W41191  12.341   1.423  10.877  0.4562  0.0994 -0.0196
23668W        W41192   5.557   1.157  14.020  0.0550  0.0419 -0.3333
23669W        W41193  17.643   1.479   4.450 -0.0881 -0.3630  0.0927
23670W        W41194  16.014  15.789   3.502 -0.0023  0.0049  0.1154
23671W        W41195  18.050   2.243  15.581 -0.2223  0.1026  0.2295
23672W        W41196   8.267  12.827  14.617 -0.2564  0.0579  0.0715
23673W        W41197  10.364  13.910  14.735 -0.2611  0.0570 -0.2074
23674W        W41198  11.477   3.944  14.327 -0.2720  0.1910 -0.0629
23675W        W41199   4.391   2.193   1.265  0.0181 -0.2807 -0.1634
23676W        W41200  11.193  16.222  11.705 -0.0002 -0.3669 -0.2422
23677W        W41201   7.205  13.178   3.812 -0.0548  0.0652 -0.0993
23678W        W41202   7.376   7.922   2.432 -0.3038  0.0340  0.0143
23679W        W41203  14.105  15.119   4.420  0.0295  0.4908 -0.2469
23680W        W41204  12.175   1.547  14.225  0.2730 -0.1476  0.0252
23681W        W41205  17.064  11.218  12.749 -0.0429  0.0827 -0.1881
23682W        W41206   7.401   0.721   2.323  0.2829  0.0134  0.0718
23683W        W41207   3.874   2.924   2.549 -0.2062  0.0995 -0.0227
23684W        W41208   5.228   6.020  12.619 -0.3098 -0.1664 -0.2897
23685W        W41209  15.280   5.510  15.195  0.0197  0.1827 -0.1030
23686W        W41210   6.210  16.278   1.739 -0.1059 -0.2481  0.3629
23687W        W41211   0.915   6.154  15.228  0.0318 -0.1354  0.1289
23688W        W41212  17.275  13.863  11.931 -0.0044  0.0203 -0.2667
23689W        W41213  17.445  13.446   1.609 -0.0699 -0.1350 -0.2598
23690W        W41214  14.749  13.994   3.856  0.2437  0.0610 -0.0442
23691W        W41215   6.007  11.501  15.517  0.1128  0.3852  0.1457
23692W        W41216   6.443   1.253  13.485  0.1528  0.1150 -0.3843
23693W        W41217  15.216  15.565  13.589  0.1183 -0.0270 -0.2218
23694W        W41218   5.273   7.987   4.629  0.1448 -0.2796  0.0002
23695W        W41219  11.110   4.245  14.505 -0.1674  0.1169 -0.1863
23696W        W41220  17.560  12.361  14.004 -0.2140  0.0323 -0.1278
23697W        W41221   2.161  11.580  12.002 -0.1032 -0.1187  0.3343
23698W        W41222  10.149   1.558   5.566 -0.2887 -0.1089 -0.0592
23699W        W41223   3.689  16.706  11.419 -0.3125 -0.0087  0.0729
23700W        W41224  15.507  12.049  11.944 -0.0087 -0.0473  0.1436
23701W        W41225   8.149   1.384  13.670 -0.0864  0.2631  0.0430
23702W        W41226   0.954  12.179  14.293 -0.0210  0.0150  0.0297
23703W        W41227   5.677  17.712   2.992 -0.2256 -0.0481 -0.3335
23704W        W41228   3.850   6.496  15.136 -0.2900 -0.0767  0.0931
23705W        W41229   7.697  17.903  11.636  0.0993  0.1883 -0.0925
23706W        W41230   5.630   6.140  12.963  0.0374 -0.1012 -0.0439
23707W        W41231   4.842  16.428   5.661  0.2042  0.2274  0.0397
23708W        W41232  16.177   8.396  14.586  0.1203 -0.2080  0.1722
23709W        W41233  14.356   1.944  14.283  0.2550  0.1647 -0.0584
23710W        W41234   8.894  10.403  13.683  0.1866 -0.1339 -0.0611
23711W        W41235  12.524   0.022  12.400  0.0213  0.1806 -0.1750
23712W        W41236   9.181   6.675  11.176 -0.0956 -0.1018 -0.0088
23713W        W41237  12.056   5.323   4.397 -0.1511  0.3613  0.0446
23714W        W41238   6.343   6.176  11.180 -0.2942 -0.0140  0.2423
23715W        W41239  16.733  11.366  13.531  0.2445  0.1849 -0.0681
23716W        W41240   7.079   2.029   1.632  0.0510  0.3207  0.1656
23717W        W41241  13.102  15.365  15.583 -0.5364 -0.0786  0.0500
23718W        W41242  15.663  18.078   3.507 -0.0805  0.2155 -0.0364
23719W        W41243   4.773   4.808   1.480 -0.4362 -0.0843  0.0841
23720W        W41244  17.187  12.766   0.723 -0.3179 -0.2177  0.1475
23721W        W41245  16.146   8.540  15.228  0.0465  0.0254  0.0936
23722W        W41246   3.071  16.673  15.344 -0.0119 -0.2956 -0.0034
23723W        W41247   8.082  14.880  13.619 -0.1274 -0.2162 -0.2599
23724W        W41248  17.516  12.480   1.024 -0.0379  0.0872  0.1839
23725W        W41249  10.375   6.781  11.563 -0.2230 -0.0109 -0.1409
23726W        W41250  13.909   6.955   2.449  0.0531 -0.0389 -0.2137
23727W        W41251  10.525  16.060  14.015  0.0132  0.2295 -0.0038
23728W        W41252  16.423   2.936  13.325 -0.0071 -0.1525 -0.0579
23729W        W41253  13.171   0.482  15.479 -0.0542  0.1059  0.0938
23730W        W41254   2.274  10.635  10.453  0.1704 -0.0121 -0.0091
23731W        W41255   5.513  15.114   0.478 -0.3002  0.0259 -0.1913
23732W        W41256   3.082   6.687  12.125 -0.1480 -0.0175 -0.1495
23733W        W41257   4.581   2.116  13.508 -0.1188 -0.0787  0.0925
23734W        W41258  12.553  13.490  11.525  0.1011  0.0811  0.2843
23735W        W41259  14.306  17.763   0.257  0.2014  0.0259 -0.1555
23736W        W41260   2.252  10.105   3.113 -0.0696 -0.1966  0.1337
23737W        W41261  17.161   8.206   3.669  0.0519 -0.2526  0.2316
23738W        W41262   2.255   1.416   0.613 -0.0825 -0.1098  0.1083
23739W        W41263   4.124   7.651   9.705 -0.5422 -0.2953  0.2176
23740W        W41264   0.759   1.965   1.329 -0.2015  0.0740 -0.1705
23741W        W41265   5.719  13.861   0.778 -0.1370  0.1935  0.1826
23742W        W41266  14.940   8.210   1.060  0.0327 -0.1344  0.1753
23743W        W41267  17.830   9.535   4.042  0.0588  0.0973  0.3174
23744W        W41268   5.046   4.274   2.987 -0.3859  0.3736  0.0291
23745W        W41269  10.935  16.127  14.808  0.1408 -0.0772 -0.0840
23746W        W41270   9.595  12.543   4.731 -0.0861 -0.5794 -0.0305
23747W        W41271  16.748   0.852  14.403  0.0436  0.0813  0.0042
23748W        W41272  15.439  13.863   3.439  0.1270 -0.1799  0.3498
23749W        W41273   8.714  16.650  13.645  0.2123 -0.0382 -0.2868
23750W        W41274   7.503   9.239   2.084  0.1131  0.0503  0.1569
23751W        W41275  11.070  15.167  12.734  0.0696  0.0384 -0.1797
23752W        W41276   3.621  10.502   1.598 -0.1659  0.1654  0.1388
23753W        W41277  14.809   3.214  14.115  0.1268  0.0145  0.2605
23754W        W41278  14.540  12.773  13.766 -0.1081 -0.2641 -0.1241
23755W        W41279   9.165   3.506  14.522 -0.0891 -0.1780  0.3195
23756W        W41280   1.942  17.124   2.308 -0.2959  0.1546 -0.1715
23757W        W41281  16.623   0.379   4.987  0.0129 -0.0814  0.1687
23758W        W41282   8.376  16.570   1.242  0.3586 -0.2766 -0.0478
23759W        W41283  11.864  14.941   5.224 -0.1746  0.0807 -0.0926
23760W        W41284  13.558   0.564   0.127  0.2464  0.0265 -0.1454
23761W        W41285   9.107  10.538   2.777 -0.0286  0.3935  0.4213
23762W        W41286   3.992   7.940   3.056  0.2151  0.1863  0.0580
23763W        W41287   6.092   7.698  12.158  0.1888 -0.1756 -0.1635
23764W        W41288   5.498   1.144   1.101  0.1551 -0.2162  0.1514
23765W        W41289  10.393   0.151   3.085 -0.4113 -0.2656 -0.0303
23766W        W41290  17.859  13.037   0.373 -0.1144  0.0789 -0.0828
23767W        W41291   1.915  10.980   3.000  0.0829  0.0633 -0.3480
23768W        W41292   1.104  13.135   0.295 -0.5187 -0.3226  0.0181
23769W        W41293  12.056  10.650   1.470  0.3537 -0.1248 -0.2392
23770W        W41294   9.667  12.026   0.344 -0.0192  0.1832  0.1949
23771W        W41295   0.154   3.076   0.585 -0.2593 -0.1606  0.1056
23772W        W41296  10.659   3.106   2.309  0.0819 -0.3966  0.3399
23773W        W41297  12.037   7.512   0.652 -0.0026 -0.2619 -0.3681
23774W        W41298  11.386  13.131   0.815 -0.2941 -0.2613  0.1112
23775W        W41299  16.042   3.951  14.758  0.0745 -0.1616  0.1260
23776W        W41300   8.611   5.976   4.090 -0.3017 -0.0790 -0.0066
23777W        W41301   9.141  12.223  13.631 -0.1628 -0.1340 -0.2328
23778W        W41302   3.566  13.052   0.420  0.1370 -0.1094 -0.2272
23779W        W41303  15.189   9.019   2.062  0.1800 -0.1211 -0.1538
23780W        W41304   2.524  11.910  11.130  0.0881  0.1560  0.0384
23781W        W41305  10.696   8.753   2.663 -0.2970 -0.0172 -0.0328
23782W        W41306   7.920  13.841   1.687  0.2051 -0.2178  0.1524
23783W        W41307   8.287   9.403  13.897 -0.3832  0.0806  0.1088
23784W        W41308   5.871  18.367   1.856 -0.3171 -0.3360 -0.0402
23785W        W41309   3.411   3.749  14.613  0.0758  0.0822  0.3248
23786W        W41310   6.557  16.040  15.708 -0.2987  0.0260  0.3773
23787W        W41311   7.552  10.709   3.917 -0.1250  0.3095 -0.0986
23788W        W41312  18.455   4.452  14.083 -0.0906  0.0067  0.2175
23789W        W41313   0.816   2.506  14.791 -0.1513 -0.0751  0.1865
23790W        W41314   1.897   2.045   3.952 -0.0141  0.1114  0.2127
23791W        W41315   3.276   4.671  11.024 -0.0878  0.1064  0.2601
23792W        W41316   3.336   6.937   0.666 -0.3114 -0.2193 -0.2203
23793W        W41317  13.412  14.780  12.221 -0.3401 -0.0794  0.2167
23794W        W41318   5.307  10.222   2.734  0.3270  0.1061 -0.0293
23795W        W41319   8.331  12.670  14.132  0.2073 -0.2201  0.1676
23796W        W41320   2.241   3.783   4.218  0.0230  0.1125  0.0207
23797W        W41321  15.664   5.325   5.382 -0.0908  0.1619 -0.2106
23798W        W41322  13.893   1.521   1.415 -0.1530  0.1112  0.0746
23799W        W41323   2.906  12.974  14.848  0.1617  0.0646  0.1284
23800W        W41324  13.193  15.747   4.490 -0.0165 -0.0658  0.0622
23801W        W41325   9.902   8.615   5.398 -0.1568 -0.2917 -0.1064
23802W        W41326  13.262  12.112   5.239  0.4316  0.0012 -0.1397
23803W        W41327   5.907   5.174  13.925 -0.1223  0.0279 -0.1721
23804W        W41328   3.007   0.895   4.335  0.3018 -0.2800  0.2210
23805W        W41329  14.611   7.497  11.078 -0.0432 -0.2282  0.0880
23806W        W41330   3.963   8.528   4.273 -0.2056 -0.1475  0.0541
23807W        W41331   8.032  13.245   1.656 -0.2367 -0.1425 -0.2343
23808W        W41332   4.792   8.471  14.218 -0.2278 -0.4172 -0.1366
23809W        W41333  17.549  11.534   0.274  0.0373  0.1464  0.2556
23810W        W41334  11.174   1.760  14.205 -0.0804  0.0558 -0.0470
23811W        W41335   4.596  13.743  11.028  0.1913  0.1523 -0.4253
23812W        W41336   8.176  16.896   2.633  0.2655  0.1210  0.2355
23813W        W41337   2.836  15.227  12.534  0.1088 -0.1347  0.1712
23814W        W41338  10.119  14.940   2.494 -0.2447  0.1865  0.2201
23815W        W41339  16.771  16.572   1.597 -0.0935  0.1439 -0.0644
23816W        W41340  13.366  11.406  11.036  0.2604  0.1409  0.0901
23817W        W41341   9.352   9.177   1.047  0.4559 -0.0362  0.1767
23818W        W41342   3.958  12.713   1.521 -0.0637  0.3205  0.2836
23819W        W41343   6.950   2.127  13.200 -0.0421 -0.1699 -0.2666
23820W        W41344  16.210  18.390  11.810 -0.1267 -0.1006  0.2916
23821W        W41345   5.309  17.282  12.353 -0.0158 -0.1802 -0.0455
23822W        W41346   7.215   8.816  14.898 -0.2080 -0.2867 -0.2083
23823W        W41347  13.543   6.580  12.646 -0.1104  0.2257 -0.2848
23824W        W41348  18.370  16.152  13.721  0.0617 -0.0269 -0.0927
23825W        W41349   6.861   1.019   3.448  0.0514 -0.0359 -0.2193
23826W        W41350   1.434  11.191  13.289  0.0586 -0.0309 -0.0641
23827W        W41351   9.333  10.267  13.322  0.1366 -0.0415  0.2216
23828W        W41352   9.052  13.120   4.309  0.1362 -0.0766  0.1608
23829W        W41353   1.548   7.167   0.077  0.3014  0.2182 -0.0244
23830W        W41354  18.407  12.997  13.690 -0.0754  0.1377 -0.1089
23831W        W41355  10.207   6.176  12.662 -0.0045 -0.0777  0.2057
23832W        W41356  18.079   8.678   1.287  0.2377 -0.0600 -0.0022
23833W        W41357   9.746   2.856  11.432 -0.1489  0.2813 -0.0200
23834W        W41358   9.652   7.451  11.315 -0.3365 -0.1100  0.2656
23835W        W41359   3.838  14.734  11.776 -0.0436  0.0068 -0.4058
23836W        W41360  12.874  12.353  12.074  0.1212 -0.0249 -0.1899
23837W        W41361  14.399  10.233   2.534  0.1101 -0.0618 -0.0146
23838W        W41362  15.288  12.843  12.775  0.2235  0.1100  0.0474
23839W        W41363  15.827   0.001  11.501 -0.3292  0.1994 -0.2365
23840W        W41364   2.405   0.664  13.496 -0.0380 -0.0010 -0.1383
23841W        W41365   7.560  11.180   0.686  0.0700 -0.1875 -0.3321
23842W        W41366   2.551  12.716  14.680 -0.4090  0.1556 -0.1132
23843W        W41367   1.516  18.333  13.894 -0.3386 -0.0670 -0.2053
23844W        W41368   5.249   8.011  12.721  0.0692  0.1136  0.1929
23845W        W41369   2.056  16.703   4.217 -0.1203  0.1080  0.3140
23846W        W41370   5.612  16.019   4.502  0.0249  0.0715  0.2748
23847W        W41371  11.825   7.723   0.109  0.0902  0.1233 -0.2048
23848W        W41372   3.953   2.810   3.955  0.0525  0.0879  0.2521
23849W        W41373   9.505   5.493   1.013  0.0884 -0.1149  0.1413
23850W        W41374   4.686  10.189  12.182  0.1553 -0.0310  0.0974
23851W        W41375  10.493  17.854   4.927  0.1129 -0.2677  0.0807
23852W        W41376  10.464   2.909  15.391  0.0178  0.0880  0.4703
23853W        W41377  11.962   1.154   1.659 -0.0333 -0.1848 -0.5375
23854W        W41378   1.102   2.580   3.843  0.3011  0.1889  0.0797
23855W        W41379   9.376   2.900  15.685 -0.2580 -0.0776 -0.1276
23856W        W41380  14.715  18.084   4.954  0.1401  0.1588 -0.1571
23857W        W41381  13.409  17.868   1.854  0.3437 -0.1707  0.0091
23858W        W41382  13.388   3.901  15.390 -0.1830  0.1737 -0.5264
23859W        W41383  16.364  10.995  14.016  0.2007 -0.1350  0.2656
23860W        W41384   5.996  16.862  12.172 -0.1777 -0.0428 -0.4739
23861W        W41385   7.476   7.260  15.567  0.0239  0.3769  0.1169
23862W        W41386   4.680  17.862   2.240  0.1146  0.2976 -0.0118
23863W        W41387   4.977  16.091   3.774 -0.3093  0.0363 -0.1194
23864W        W41388   5.478  13.744  14.772  0.3430  0.3146 -0.2029
23865W        W41389   5.577   6.532   2.340 -0.0581 -0.1391 -0.0369
23866W        W41390   6.858   7.718  12.631  0.2469  0.0966 -0.1099
23867W        W41391  17.358   6.259   3.887 -0.0415 -0.0190  0.0995
23868W        W41392   5.970  14.806   4.428 -0.2197  0.0033 -0.1138
23869W        W41393  18.437  12.041  14.055 -0.0193  0.1145 -0.2746
23870W        W41394  15.379  17.667  13.837  0.0384  0.1039 -0.0874
23871W        W41395  17.303   9.696  15.617 -0.2135 -0.3889  0.3905
23872W        W41396   2.530   9.233  13.995 -0.3341  0.2498  0.1115
23873W        W41397   4.136   2.201   0.224  0.0072 -0.1600  0.0338
23874W        W41398   7.497   6.601   1.030 -0.0924 -0.0431  0.0589
23875W        W41399   5.857   9.588   3.892 -0.4126  0.2628  0.2955
23876W        W41400   8.966   5.432  11.546 -0.2364  0.1705  0.0551
23877W        W41401   2.868  13.187  14.330 -0.2073  0.1180 -0.1538
23878W        W41402  10.106  10.755  11.837  0.2039  0.1737  0.1222
23879W        W41403  16.105   8.172   3.914  0.1737  0.1675 -0.0021
23880W        W41404   6.965  17.413   3.742  0.2377  0.0870  0.2369
23881W        W41405   9.466  15.393   1.380 -0.3099 -0.1548  0.2091
23882W        W41406  16.989  12.322   0.951  0.0537  0.2617  0.1399
23883W        W41407   7.198   1.135  13.904 -0.0769 -0.1440  0.0560
23884W        W41408   9.682   0.581   1.549 -0.2470  0.1630  0.1199
23885W        W41409   1.949  18.016   0.852  0.3247 -0.0406 -0.1700
23886W        W41410  17.911  16.739   1.573  0.1102  0.0931  0.3034
23887W        W41411   8.013  18.007   0.899  0.3456  0.1628 -0.0023
23888W        W41412   2.025   6.525  13.253 -0.1494 -0.1333 -0.0276
23889W        W41413   6.631   8.265   2.384  0.0249 -0.3953  0.2209
23890W        W41414  10.686   7.596   2.940 -0.1945 -0.2312 -0.0155
23891W        W41415   2.533   6.714  11.331  0.0152 -0.2165  0.0947
23892W        W41416   1.980  11.759   0.402 -0.0740  0.2319 -0.0610
23893W        W41417   8.862  11.003   0.449 -0.1647 -0.2207 -0.0700
23894W        W41418  10.783   0.201  14.388  0.0514 -0.3248 -0.0513
23895W        W41419  10.223  13.405  14.494 -0.0949  0.1860  0.1958
23896W        W41420   8.155  14.268  14.204 -0.0234 -0.1014 -0.1504
23897W        W41421  17.159   6.727  11.070 -0.1747  0.0615  0.1507
23898W        W41422   7.959  17.478  13.682  0.0778  0.3054  0.2483
23899W        W41423  16.570   6.381  14.709 -0.0732 -0.3235 -0.1566
23900W        W41424   3.441   4.508  11.489 -0.0830  0.0559 -0.1387
23901W        W41425   9.085  13.247  14.075  0.3748 -0.0745 -0.1697
23902W        W41426   9.400   4.901   4.193 -0.2053 -0.1343 -0.2103
23903W        W41427  12.699   9.253   0.743 -0.1016 -0.0434  0.0058
23904W        W41428  13.887   0.425  11.443  0.0007  0.0694  0.1187
23905W        W41429  16.123   4.294  12.073  0.1527  0.2915 -0.0977
23906W        W41430   3.571   0.879  11.458 -0.4809 -0.2280  0.1219
23907W        W41431   9.885  15.309   2.128 -0.1515 -0.1576 -0.0126
23908W        W41432   9.802   1.377  11.363 -0.3417 -0.1472  0.1626
23909W        W41433   0.190   3.435   3.818 -0.1730  0.1097 -0.4731
23910W        W41434  17.194  16.807   0.085 -0.2083 -0.2096 -0.1084
23911W        W41435  11.851   0.536  11.313  0.1703  0.0998 -0.0232
23912W        W41436   9.173   7.476  10.003 -0.1114 -0.0145  0.0394
23913W        W41437   4.363   1.739   4.082  0.2451 -0.2951  0.1875
23914W        W41438   8.377   7.449  12.344  0.1233 -0.0276  0.0427
23915W        W41439   0.458   6.685  12.695 -0.1936  0.1447  0.2078
23916W        W41440   4.651   4.792  15.344 -0.3054 -0.2608  0.0994
23917W        W41441   1.211  16.553  14.512  0.0199 -0.0048 -0.0241
23918W        W41442   0.092   9.193  10.009  0.2097 -0.3097  0.2528
23919W        W41443   2.827   8.757  15.680  0.2251 -0.0584 -0.0453
23920W        W41444  17.006  18.294  11.796  0.1611 -0.0813  0.0674
23921W        W41445   5.331  17.129  15.508 -0.0634  0.2758  0.0856
23922W        W41446  14.142  14.330   3.309  0.0462 -0.3849 -0.0017
23923W        W41447   2.088   3.887   3.471 -0.0746  0.0676 -0.0963
23924W        W41448   5.084   7.169   3.960  0.0916 -0.2630 -0.0765
23925W        W41449   7.384  13.820   3.336 -0.1182 -0.0120 -0.1632
23926W        W41450   7.019   7.702  14.451  0.1160 -0.0217  0.2461
23927W        W41451  16.892   3.244  10.840  0.0362 -0.4274 -0.3071
23928W        W41452   4.014  12.071   1.235 -0.1889  0.1238  0.0221
23929W        W41453   2.218  14.321  12.959  0.5356  0.1156 -0.1005
23930W        W41454   9.054   7.691  14.635 -0.0998  0.1176  0.2317
23931W        W41455   5.033   2.911  12.340 -0.2660 -0.0181  0.0651
23932W        W41456   0.679   3.408   2.601 -0.0979 -0.0106  0.0129
23933W        W41457   5.379   6.822   3.640 -0.0330  0.0119  0.0099
23934W        W41458   4.666   2.874  12.711 -0.0161  0.0200  0.1732
23935W        W41459  17.558   6.469  14.079 -0.0338  0.0936 -0.0062
23936W        W41460   5.546   4.438   0.184  0.0196  0.1006  0.2050
23937W        W41461   9.779  12.983   2.158 -0.1242 -0.0194  0.1828
23938W        W41462  18.163  11.036   2.760 -0.0561  0.2517  0.2327
23939W        W41463  15.766  18.263  13.490  0.0651  0.1614  0.2013
23940W        W41464  14.845   3.779   3.113 -0.2571 -0.1550 -0.0317
23941W        W41465   9.841  10.442  13.833  0.0707  0.0228  0.0183
23942W        W41466  14.427  16.086  11.253 -0.2151 -0.1297 -0.0200
23943W        W41467   2.333  11.136  11.707 -0.1996 -0.2714  0.0120
23944W        W41468   3.343   0.728  12.884 -0.1838 -0.1529  0.1084
23945W        W41469  10.731   5.032   4.473 -0.1573 -0.0775 -0.1695
23946W        W41470  13.004   7.464   2.409  0.4117  0.3430 -0.0586
23947W        W41471  17.674  11.714  12.365  0.1090 -0.1930 -0.0183
23948W        W41472  15.523   2.052  13.891 -0.2624  0.0542  0.0699
23949W        W41473  18.070   1.920  13.889 -0.3905 -0.0127 -0.0119
23950W        W41474   3.349  16.788   3.974  0.2527  0.0842  0.0164
23951W        W41475  16.458   7.911  11.256  0.0207  0.1587 -0.2139
23952W        W41476   5.500   7.540  10.881  0.0732 -0.0735 -0.0400
23953W        W41477   4.570   2.601  10.820  0.1195 -0.0738  0.0439
23954W        W41478   1.916   4.350   0.334  0.1718 -0.1908 -0.1446
23955W        W41479   4.115  16.890  15.249  0.0702 -0.0701 -0.2998
23956W        W41480   3.684  12.973  12.249 -0.0582 -0.0047 -0.0090
23957W        W41481   5.623   6.962  13.564 -0.2560  0.0559 -0.0789
23958W        W41482   7.261   0.526   2.920 -0.0378 -0.0838 -0.0833
23959W        W41483  11.813   7.847   2.946 -0.0252  0.1411  0.2244
23960W        W41484   2.797  16.705  11.693  0.1157  0.1396  0.1571
23961W        W41485   4.852   2.023  15.679 -0.2206 -0.0540  0.0554
23962W        W41486   8.336   2.640   2.820 -0.0580 -0.1904  0.1543
23963W        W41487   5.268   9.652   0.354  0.1628  0.0927  0.0924
23964W        W41488  12.489   3.553  11.227  0.0754  0.2769 -0.0092
23965W        W41489   4.230   2.359   4.747  0.2519 -0.2609 -0.1882
23966W        W41490   3.596  13.421  15.223  0.2984 -0.3448 -0.0719
23967W        W41491  10.318   3.565   1.325  0.2690 -0.0940  0.0228
23968W        W41492  16.506   0.603   2.943  0.1630 -0.0599  0.2087
23969W        W41493  15.525   9.027  11.424 -0.0297 -0.1422 -0.3943
23970W        W41494  15.527   0.079   2.813 -0.1805  0.1683 -0.2447
23971W        W41495  11.618  10.174   2.487 -0.0546 -0.0382 -0.0292
23972W        W41496   5.392  16.241   2.280  0.1293 -0.1363 -0.0768
23973W        W41497   3.417   8.791   5.237  0.1327 -0.1974  0.1130
23974W        W41498  15.913  16.495   1.466 -0.0662  0.0538 -0.0093
23975W        W41499  15.308   3.053   0.656 -0.5364  0.2982  0.0929
23976W        W41500  11.272   5.668   2.368 -0.1478 -0.1587  0.1326
23977W        W41501  12.235   8.228  11.718 -0.0535  0.3119  0.0588
23978W        W41502  12.484   8.104  11.301 -0.2293  0.4576 -0.1575
23979W        W41503   3.368  17.486  15.606  0.2753  0.0436  0.0219
23980W        W41504  16.870   9.075  12.023  0.1527 -0.0511  0.2369
23981W        W41505  16.318   9.790  14.380 -0.0589 -0.1376  0.1372
23982W        W41506  16.777   0.143   0.887  0.1931 -0.0646  0.0890
23983W        W41507  10.630  11.232  14.181  0.2637  0.5125 -0.2121
23984W        W41508  15.443  12.566   0.400  0.1052 -0.0438 -0.0362
23985W        W41509  12.281   6.902  11.802 -0.1958 -0.1717 -0.1633
23986W        W41510  17.111   2.191   3.203  0.0916  0.0198 -0.0847
23987W        W41511   4.658  12.382   3.109  0.1572  0.0797  0.2109
23988W        W41512   1.968   0.998   0.352 -0.1889 -0.0543 -0.1486
23989W        W41513   0.926  12.646  10.340  0.0248 -0.3148 -0.2277
23990W        W41514   3.766  12.500  12.431 -0.1572  0.0382  0.0555
23991W        W41515   1.186   7.640  13.505 -0.3375 -0.0142  0.0383
23992W        W41516   8.875   5.676  12.020 -0.0466 -0.1609  0.0160
23993W        W41517  16.089  16.158   5.391  0.0024  0.1164 -0.0865
23994W        W41518   4.605   0.438  14.248 -0.2782  0.0627 -0.0489
23995W        W41519   6.199  16.479  14.806  0.1818 -0.0579 -0.2405
23996W        W41520   7.871  10.239  15.391  0.0004 -0.1549 -0.2716
23997W        W41521   8.781  10.098   3.899 -0.2553  0.1390  0.1128
23998W        W41522  16.794  12.752  13.881 -0.0611  0.3466  0.0741
23999W        W41523   7.214  14.598  13.696  0.3149 -0.2676  0.3451
24000W        W41524   7.686  11.224   3.922 -0.2405  0.3227 -0.1762
24001W        W41525  10.995   3.059   3.061 -0.0468  0.1908  0.4150
24002W        W41526   6.303   7.295  10.272 -0.3476 -0.0235  0.3009
24003W        W41527  14.294   6.130  13.459  0.1966  0.1186 -0.0517
24004W        W41528  16.562  10.223   3.342 -0.1152  0.1956 -0.1830
24005W        W41529   2.026   9.083   0.503  0.0410 -0.0988 -0.0365
24006W        W41530  18.203  18.436  12.515  0.0774  0.0182 -0.0617
24007W        W41531  10.739  10.607  12.192 -0.0375  0.1558 -0.2881
24008W        W41532  13.679   4.425   4.386 -0.2596  0.2434  0.3008
24009W        W41533  14.035  17.611   1.246 -0.0537 -0.1042 -0.2472
24010W        W41534  10.514   9.251   2.850  0.0088  0.1345  0.1826
24011W        W41535   5.442  16.338  12.495 -0.1128 -0.2045 -0.0268
24012W        W41536  15.947  17.945  14.502 -0.1859 -0.1565 -0.1481
24013W        W41537   7.491   8.651   1.820 -0.0035 -0.2235  0.0063
24014W        W41538   8.617  17.134  13.668 -0.0461  0.0994 -0.1269
24015W        W41539  13.434  17.512   2.962 -0.0015 -0.2824 -0.3482
24016W        W41540   3.163  12.143  13.367  0.1806 -0.0228 -0.0642
24017W        W41541   6.820  12.862   0.503  0.3993 -0.0308 -0.0424
24018W        W41542  12.263   1.182   0.385  0.1434  0.1021  0.1413
24019W        W41543  12.627   0.867   4.279 -0.0553  0.2102  0.4748
24020W        W41544  15.739   2.571   1.939  0.1124  0.1411  0.0291
24021W        W41545  12.189   6.698   0.923 -0.1251 -0.0452  0.1252
24022W        W41546   2.918  11.196   3.394  0.1976 -0.0315 -0.1120
24023W        W41547   9.984  17.948   4.690 -0.2761  0.1847 -0.0717
24024W        W41548  14.981   6.120   1.808  0.0458 -0.1009  0.0425
24025W        W41549   5.562   7.844   0.701 -0.0297 -0.0796 -0.3318
24026W        W41550  15.457   6.990   1.008 -0.3152  0.0388 -0.0786
24027W        W41551   7.437  13.512  15.674 -0.1295 -0.2792  0.0049
24028W        W41552  12.578  17.431   2.693 -0.0304 -0.2996 -0.1918
24029W        W41553   8.578   4.525  14.542  0.2514  0.1306 -0.1133
24030W        W41554   6.937   7.427   9.984 -0.0145 -0.2046  0.0845
24031W        W41555   4.813   0.843   2.197  0.0196 -0.1794  0.1139
24032W        W41556   4.486   4.739   0.700 -0.2137  0.0630  0.1476
24033W        W41557  13.840  10.342   4.629  0.2119  0.3807 -0.1197
24034W        W41558   3.106   2.543   3.525  0.0405 -0.2105 -0.1955
24035W        W41559   1.956   4.843  15.714 -0.1694  0.3038 -0.0797
24036W        W41560  16.159  16.227  12.129 -0.0801 -0.1406  0.0358
24037W        W41561  16.228   2.906   4.709  0.0036 -0.1111  0.0642
24038W        W41562  13.507  11.286   4.482  0.2858  0.0838 -0.0752
24039W        W41563  12.335   1.013   3.837  0.1842 -0.1711 -0.2500
24040W        W41564  15.518  14.253  10.770  0.1860 -0.0989  0.2777
24041W        W41565   7.466  13.273  14.411  0.0456 -0.1675 -0.0099
24042W        W41566  13.451   9.863   4.371  0.3850 -0.1179 -0.0833
24043W        W41567  13.992  15.711  14.869 -0.1372 -0.1266 -0.0864
24044W        W41568  12.064   1.965  10.382  0.1574 -0.0910  0.0174
24045W        W41569  14.629   0.650  10.990  0.0280  0.3974  0.1886
24046W        W41570  11.641   8.528  11.839  0.0044 -0.1605 -0.0098
24047W        W41571   9.855  14.967  11.378  0.0015  0.2966  0.1873
24048W        W41572  12.093   4.675   0.985 -0.1880 -0.2158 -0.0796
24049W        W41573  11.386   2.394  11.937  0.0139  0.0755  0.1718
24050W        W41574   4.364   9.283  12.727  0.1226  0.0579 -0.1495
24051W        W41575   4.233   3.562   3.031  0.1078 -0.3724  0.2415
24052W        W41576  12.683   1.870  11.663  0.1284 -0.0559 -0.0882
24053W        W41577  12.778   4.111  12.032 -0.2144  0.4564  0.0157
24054W        W41578   7.939  17.757  15.317 -0.0043 -0.0824  0.1489
24055W        W41579   7.923  10.517  10.823  0.0321  0.1408  0.0921
24056W        W41580   8.871   9.066   3.636 -0.0349  0.0696 -0.1380
24057W        W41581  14.564   8.139  11.399  0.0494  0.0797  0.2937
24058W        W41582  11.724  15.471   4.509  0.0785 -0.0303  0.0100
24059W        W41583   5.276   6.437  14.837  0.1475  0.1888  0.1828
24060W        W41584  15.951   5.672  11.312 -0.0634 -0.4909  0.2884
24061W        W41585  11.831   6.854   5.133 -0.1111 -0.3146 -0.2263
24062W        W41586  14.029   8.291   2.886 -0.1328  0.2991  0.0509
24063W        W41587  18.074  14.665   1.358  0.2101  0.1138  0.0565
24064W        W41588   1.895   8.234  12.073  0.0080  0.1033 -0.0008
24065W        W41589   6.272   0.457  12.271  0.1873  0.2593 -0.1769
24066W        W41590  11.362  12.704   0.045 -0.1239 -0.1365  0.1320
24067W        W41591   0.184   9.925  13.392  0.2729 -0.0210  0.1026
24068W        W41592   6.378   0.649  14.200  0.1058  0.2687  0.0683
24069W        W41593  11.281  14.985  14.636  0.2395  0.3608 -0.0224
24070W        W41594   8.658  16.099   1.200  0.0066  0.1036 -0.2675
24071W        W41595  14.865  17.045  14.348  0.0330  0.0681 -0.2678
24072W        W41596   8.666  13.431  10.564 -0.3026  0.1608 -0.1637
24073W        W41597   5.066   3.427  11.707  0.1215  0.3244  0.0735
24074W        W41598  10.397   4.330  14.026  0.3304  0.0149  0.1340
24075W        W41599   1.328   6.746  14.980 -0.0521 -0.2888  0.1425
24076W        W41600  18.096  13.361  12.023  0.0133  0.0308  0.0690
24077W        W41601   3.429  14.039   0.246  0.0345  0.1569  0.0236
24078W        W41602   2.860   4.870  11.008  0.2215 -0.2175  0.0221
24079W        W41603   4.275   0.311   2.787 -0.1501 -0.0712  0.0955
24080W        W41604  11.875  10.316  12.023  0.4378 -0.1779  0.2967
24081W        W41605   4.725   3.268   2.247 -0.1751 -0.0728 -0.2167
24082W        W41606   0.960  18.194  14.088 -0.0755  0.1175  0.0976
24083W        W41607  15.618   8.660  12.117 -0.2306  0.2045 -0.1537
24084W        W41608   4.202  11.688  12.875 -0.1962  0.1935  0.0378
24085W        W41609   9.392   1.626   2.843  0.2320  0.2556  0.5148
24086W        W41610   4.950   7.278  11.109  0.2178 -0.1392  0.0393
24087W        W41611   0.466   5.434  13.320 -0.0059  0.0014 -0.0532
24088W        W41612   8.188   8.454   4.789  0.0768 -0.0376 -0.1741
24089W        W41613  11.237   1.197  13.267  0.1188  0.2917 -0.1724
24090W        W41614   5.909   7.734  14.265 -0.0955 -0.1110  0.0338
24091W        W41615  14.241  14.471  13.332  0.0330  0.0032  0.0514
24092W        W41616   4.493   0.279   4.589  0.1325  0.2570 -0.0510
24093W        W41617  18.073   2.612  11.377 -0.0050  0.0921 -0.0301
24094W        W41618   1.043   8.369   1.278 -0.2483  0.0925 -0.1630
24095W        W41619  15.067  15.701  10.676 -0.1157  0.0527  0.1053
24096W        W41620   4.837   8.449  15.397  0.2828  0.0592 -0.1844
24097W        W41621  13.169  15.736   5.051 -0.3085 -0.0303 -0.1292
24098W        W41622  13.233  12.508  14.581 -0.0726 -0.0886 -0.3135
24099W        W41623  14.133   7.355   1.694  0.3471 -0.1546 -0.0767
24100W        W41624  11.824   4.308  15.620  0.0720 -0.5447 -0.1885
24101W        W41625  15.110   3.493  14.472  0.0682  0.3897 -0.3731
24102W        W41626  11.891  18.243   4.267  0.0073 -0.2962 -0.3274
24103W        W41627  18.252  18.385   2.684  0.3113 -0.0296  0.0852
24104W        W41628   6.997  10.794   2.738 -0.0538  0.0766 -0.0116
24105W        W41629   7.085   3.100   2.574  0.0823 -0.1323  0.1566
24106W        W41630   9.746  11.533  14.712  0.2238 -0.1742  0.2578
24107W        W41631  17.801   5.594   1.589 -0.4349  0.2311 -0.0612
24108W        W41632   5.024   9.340  14.800 -0.2234  0.0502 -0.0708
24109W        W41633   5.923   9.100   5.591  0.0271  0.0588 -0.2781
24110W        W41634  14.653  14.529   4.675 -0.1317  0.0942  0.0047
24111W        W41635  12.265  15.910  14.532  0.0030  0.0751 -0.0844
24112W        W41636  16.463   5.547  14.013 -0.0945  0.0550  0.0891
24113W        W41637  18.427  17.148  11.686  0.0127  0.2355 -0.0439
24114W        W41638   4.654  17.215   1.723 -0.2586 -0.1137 -0.1124
24115W        W41639  14.446  14.822   3.953  0.1209 -0.1830 -0.2385
24116W        W41640   1.410   2.157   3.533  0.1181 -0.1632  0.0639
24117W        W41641  15.664   0.685   3.148 -0.1163  0.0632  0.0978
24118W        W41642   8.781  10.276   1.574 -0.2232  0.2463  0.1737
24119W        W41643   1.341   3.321  13.393  0.2190  0.1674 -0.1665
24120W        W41644   9.595   0.372   2.961 -0.0525  0.0343 -0.2401
24121W        W41645  13.054  10.245  12.265 -0.1441  0.2564  0.1361
24122W        W41646  13.924   2.796   4.328  0.0710  0.1573 -0.0739
24123W        W41647  12.127   4.832   1.884 -0.1529 -0.0209 -0.3321
24124W        W41648   2.132  16.211   0.250  0.0730 -0.4449 -0.3107
24125W        W41649   9.125  13.801  11.858 -0.1500 -0.1974 -0.0764
24126W        W41650  15.210   6.426  12.691 -0.0274  0.3529 -0.0898
24127W        W41651   6.409  12.447   0.634 -0.0470  0.0836 -0.0042
24128W        W41652   8.613  11.186   4.543  0.2343 -0.3300  0.1967
24129W        W41653  17.809  16.365  14.510  0.0351  0.0160 -0.0987
24130W        W41654   7.694   7.374   4.292  0.1834  0.2479 -0.1803
24131W        W41655   7.581  13.890   0.304 -0.0385  0.3513 -0.1359
24132W        W41656   4.006   3.980   3.276 -0.0889 -0.0209  0.3110
24133W        W41657   9.580  15.552   3.825 -0.1217 -0.2363 -0.2444
24134W        W41658  11.578   4.595   0.246  0.0654  0.0786  0.1074
24135W        W41659  15.611  15.024   4.779  0.1389 -0.1962 -0.1600
24136W        W41660   0.133  15.554   2.118 -0.0564  0.0556 -0.5218
24137W        W41661  10.361  11.089   4.169  0.0094  0.1233 -0.0548
24138W        W41662   6.183   0.713   6.314  0.0581 -0.1093 -0.2312
24139W        W41663   2.403   5.675   0.448  0.3877 -0.0726  0.2075
24140W        W41664   3.201   9.025  14.084  0.1346 -0.0457  0.5422
24141W        W41665  10.623   9.025  13.410 -0.1100 -0.0602 -0.0173
24142W        W41666   8.170  10.407  14.198 -0.1491  0.1029 -0.0154
24143W        W41667   1.998   0.183  13.922 -0.1529 -0.3384 -0.1557
24144W        W41668  16.687   8.689   2.152 -0.0408  0.2209 -0.0320
24145W        W41669  10.243  16.073  13.505 -0.0435  0.1222  0.0473
24146W        W41670   5.857  15.408   1.586 -0.0677 -0.3538 -0.0571
24147W        W41671   5.099   8.765  14.572 -0.0762 -0.1832 -0.0192
24148W        W41672   7.410   4.822   2.467 -0.0052 -0.1244  0.1703
24149W        W41673  10.729  13.761  10.261  0.0419  0.3180 -0.1519
24150W        W41674   2.363  13.017  15.034 -0.1750  0.3474  0.2139
24151W        W41675   4.276   5.535   3.634  0.0119  0.1515 -0.3230
24152W        W41676   1.248   7.674   3.046 -0.4163  0.0265 -0.1439
24153W        W41677  16.529  15.271  11.061  0.1187  0.1587  0.1879
24154W        W41678  10.884   5.763   0.625  0.4093  0.0898  0.1373
24155W        W41679   7.968   8.562  11.671  0.1681 -0.2586  0.0256
24156W        W41680   6.724   2.912  10.685  0.1298 -0.3198  0.3199
24157W        W41681   7.099  11.126  12.809  0.0160  0.0714 -0.1609
24158W        W41682  14.492  18.392   4.303 -0.0911  0.4106  0.0010
24159W        W41683  11.111   3.707  14.492  0.1580  0.0618 -0.0015
24160W        W41684   1.013   9.326  10.868 -0.1664  0.0710  0.1145
24161W        W41685   4.772  11.701   3.464  0.1739  0.2298  0.3091
24162W        W41686  15.979   1.842  10.677  0.2690  0.2210  0.2055
24163W        W41687   3.583   5.247   1.548  0.0274 -0.1703 -0.2016
24164W        W41688   5.962   6.507  12.938 -0.1459  0.1888 -0.0870
24165W        W41689  11.876   1.704   1.909  0.0908  0.0058  0.3183
24166W        W41690   4.021   0.786  13.401 -0.1866  0.0122  0.1142
24167W        W41691  10.611  17.357   4.773 -0.1658 -0.0514  0.2088
24168W        W41692  18.095   7.281   5.889 -0.0489  0.1849  0.0785
24169W        W41693   2.480   3.903  11.806 -0.2102  0.0496  0.1924
24170W        W41694   0.789  17.379  14.668  0.1321 -0.0061 -0.0764
24171W        W41695   6.551   3.670  12.246  0.0381 -0.2047 -0.0955
24172W        W41696   0.820  13.887   0.104 -0.1991 -0.1289 -0.0083
24173W        W41697   9.907  17.890  14.019 -0.3557 -0.4322 -0.2263
24174W        W41698   9.392  14.599  13.506  0.0211  0.2281 -0.0586
24175W        W41699  13.491   5.883   0.756 -0.1018 -0.0695  0.3502
24176W        W41700   8.057   7.482  15.229  0.0205  0.5027 -0.1919
24177W        W41701  10.097  13.905  13.701  0.1705 -0.2570  0.0143
24178W        W41702   9.771   6.130  12.894  0.1034  0.0706  0.0723
24179W        W41703  10.848  13.264   4.794  0.0058 -0.0213 -0.2321
24180W        W41704   6.580  13.346  11.889 -0.4238 -0.0727 -0.0840
24181W        W41705  10.840  10.148   4.625  0.0195  0.0237  0.1285
24182W        W41706   3.568   1.183   2.552 -0.1678 -0.0922 -0.4899
24183W        W41707  14.152   4.623   1.866 -0.0978 -0.1383 -0.0945
24184W        W41708  13.683   2.355   1.226 -0.1865 -0.0123 -0.3975
24185W        W41709   6.537   6.140   4.561  0.0764  0.1634 -0.0489
24186W        W41710   4.091  15.116   3.546  0.0878 -0.2493  0.1687
24187W        W41711   8.498  15.842   3.447 -0.0695  0.1087 -0.0114
24188W        W41712   3.189  16.575   3.508 -0.0404 -0.1736 -0.0556
24189W        W41713  18.331   1.425  14.157 -0.0403  0.2026 -0.1431
24190W        W41714   9.112  14.937  12.236  0.0771  0.1586  0.3105
24191W        W41715  14.762   2.038  10.372 -0.0416  0.0267  0.1524
24192W        W41716  11.411   2.989  13.237 -0.1031  0.3022  0.1447
24193W        W41717  12.342   1.518  15.214 -0.0985 -0.1783  0.3694
24194W        W41718   3.121  15.977  12.102 -0.0149  0.2414 -0.2485
24195W        W41719   3.882   8.223  10.840 -0.1557  0.0890  0.0579
24196W        W41720  12.603  18.445   3.159  0.2696  0.3337  0.0314
24197W        W41721   9.677   0.226  14.866 -0.2324  0.2943  0.1983
24198W        W41722   2.537   6.770   3.118  0.0678 -0.2499 -0.2668
24199W        W41723  11.808   3.859  11.951  0.2037 -0.1384 -0.0541
24200W        W41724   4.784  17.281  15.229  0.1573 -0.0382  0.0428
24201W        W41725   6.840  12.475  14.896 -0.0412 -0.1182  0.1692
24202W        W41726  11.384   4.468  12.431 -0.0467  0.0524  0.2023
24203W        W41727  12.325  16.015  11.727  0.0346 -0.0340 -0.1953
24204W        W41728  11.807   5.185   3.774  0.1528 -0.1985  0.0442
24205W        W41729  11.618   6.217  14.311 -0.1171  0.3387 -0.1921
24206W        W41730   0.941   6.722   0.301 -0.1816  0.0604 -0.0817
24207W        W41731  17.678  18.096   5.231  0.1312 -0.0175 -0.2267
24208W        W41732   8.427   4.797   0.041 -0.1522 -0.0432 -0.0829
24209W        W41733  17.076  16.921   4.563  0.0527 -0.1819  0.0850
24210W        W41734  15.176   8.818  15.063 -0.1742 -0.1233 -0.1060
24211W        W41735   2.262   1.192  15.630  0.3025 -0.4269  0.2164
24212W        W41736  16.883   0.741  13.900 -0.0551  0.0515 -0.1413
24213W        W41737   3.250   9.163   2.877  0.2361  0.2274  0.1733
24214W        W41738   6.886  10.476  15.042 -0.3346 -0.2999  0.0656
24215W        W41739   6.613   3.206  12.811 -0.1688 -0.3233  0.3526
24216W        W41740  18.382  18.097  11.396  0.3539 -0.1443 -0.2633
24217W        W41741   5.104   6.890  12.429  0.2885 -0.3755 -0.1116
24218W        W41742   6.372  18.460   3.276  0.2155  0.0897  0.5001
24219W        W41743  11.571  15.685   5.343  0.3047 -0.2862  0.0091
24220W        W41744   2.867   2.036  12.315  0.0093  0.1533 -0.0783
24221W        W41745   0.128  11.985  12.568 -0.0126 -0.2962  0.2604
24222W        W41746  15.069   4.796   4.310 -0.0649 -0.0017  0.2331
24223W        W41747   2.953  10.872   4.185  0.3060 -0.1504  0.1869
24224W        W41748   1.955  13.730   5.026  0.2385  0.0468  0.0626
24225W        W41749   7.486  13.764  11.242 -0.1302 -0.4647 -0.1123
24226W        W41750   2.255   2.433  11.366 -0.0154  0.1114 -0.0831
24227W        W41751   7.295   3.153   0.904  0.0015  0.1211 -0.0304
24228W        W41752  15.942  14.968  12.205  0.1990 -0.3236 -0.1985
24229W        W41753   9.521  13.944   2.569  0.1210  0.0056  0.1966
24230W        W41754   1.517  12.885   1.232  0.0295 -0.0757  0.0143
24231W        W41755  10.419  13.257   1.096 -0.0875  0.0211  0.0578
24232W        W41756   9.650  14.152  12.951 -0.3074 -0.2430  0.2336
24233W        W41757   0.687   4.338   4.696 -0.1499 -0.0817  0.2602
24234W        W41758   2.953   0.199   5.051 -0.0676  0.3724 -0.2039
24235W        W41759  12.549   0.771  15.085  0.1645  0.1212 -0.1061
24236W        W41760   5.612  11.105   3.852  0.1551 -0.0291  0.0079
24237W        W41761   9.918   0.438  14.531 -0.0815 -0.0872  0.3826
24238W        W41762   9.600  12.496  15.325 -0.1274  0.1241 -0.1485
24239W        W41763   4.753  14.664  11.158 -0.7432  0.4108  0.0661
24240W        W41764   9.190   8.011   1.211  0.1949 -0.1468 -0.2059
24241W        W41765  16.042  10.599  14.055 -0.1433  0.2891  0.1659
24242W        W41766   1.742   1.180  15.684  0.2808  0.0916 -0.1298
24243W        W41767   8.776  11.177  12.364 -0.1178  0.0847  0.0172
24244W        W41768  12.041   6.437  14.357 -0.2778  0.2302 -0.0408
24245W        W41769   6.306  14.231  12.714 -0.0767 -0.1483  0.0729
24246W        W41770  15.806  18.377   4.333  0.0691  0.1126  0.1826
24247W        W41771  14.047  16.823   3.920 -0.0423 -0.2633  0.2865
24248W        W41772  10.412   0.103   0.490 -0.0169  0.1225 -0.1770
24249W        W41773   9.617   3.675  13.270  0.1339 -0.0409 -0.2607
24250W        W41774   5.513   4.597   4.175  0.0817  0.1230 -0.1514
24251W        W41775  12.478   5.057  12.845 -0.4022  0.5303 -0.0681
24252W        W41776  14.885   3.375  10.897  0.1322  0.1259  0.1344
24253W        W41777   5.811   1.603  10.288  0.0799  0.1492 -0.2414
24254W        W41778   0.346  11.707   2.728  0.2840  0.2102 -0.0764
24255W        W41779  18.074  15.898   3.291  0.2179 -0.0553  0.1505
24256W        W41780   8.974  11.473   2.274  0.0294 -0.0459 -0.2055
24257W        W41781   2.531   7.329  15.694  0.0082  0.0601 -0.2555
24258W        W41782   8.788   0.501   0.243  0.0282 -0.1367 -0.0693
24259W        W41783  10.319   8.768  13.710  0.2756  0.0350 -0.0190
24260W        W41784  14.191   2.693  10.757  0.0890 -0.3174 -0.0866
24261W        W41785  14.568   7.729  15.220  0.1093  0.0478 -0.0272
24262W        W41786  12.988   4.148   1.969  0.0455  0.0819 -0.2047
24263W        W41787  17.932   8.216  11.153 -0.1080 -0.1179 -0.2134
24264W        W41788  18.310  10.139   1.282  0.3156  0.0035  0.1362
24265W        W41789  18.276  15.316  14.035  0.0942 -0.0430 -0.2383
24266W        W41790  11.515  17.365  14.671 -0.0445 -0.1342  0.0209
24267W        W41791  16.534   6.128  11.316 -0.0702  0.2090  0.1857
24268W        W41792   9.957   1.616  11.808  0.1216  0.2407  0.0411
24269W        W41793  10.364  17.721   1.504  0.0394 -0.1074 -0.2339
24270W        W41794  13.090   0.846   4.602 -0.0338 -0.1186  0.0991
24271W        W41795  12.193   6.167  12.801  0.1586  0.2917 -0.1091
24272W        W41796  15.662  17.003   4.269  0.0040 -0.0145  0.1440
24273W        W41797  13.754   5.943  11.912  0.3591 -0.2674  0.1594
24274W        W41798   4.006   4.039  13.778  0.2960  0.0294  0.2505
24275W        W41799   0.062   1.803   1.426 -0.0843 -0.1296 -0.1155
24276W        W41800  10.136   0.787   0.367  0.2527  0.1148 -0.1298
24277W        W41801   8.882   7.081   1.328  0.0226  0.2762  0.3175
24278W        W41802   2.723   4.934  13.546  0.2734 -0.0071  0.0532
24279W        W41803  15.796  13.512  13.094  0.1849  0.4188  0.1283
24280W        W41804   5.161  11.761  14.906  0.0757  0.1646  0.0961
24281W        W41805  14.290  13.579   4.740 -0.1219  0.3329 -0.0565
24282W        W41806  18.446  14.075  12.219  0.1328  0.3196 -0.2782
24283W        W41807  16.979  15.833  15.365  0.0859 -0.1170 -0.1832
24284W        W41808   4.678   5.853   3.722  0.2137  0.2279 -0.3067
24285W        W41809   7.849   4.830  13.201 -0.0389  0.1012  0.0405
24286W        W41810  15.581  17.435   0.368 -0.1288 -0.1062  0.3944
24287W        W41811   1.967   7.539  13.039 -0.1368 -0.0064  0.1991
24288W        W41812  11.116   9.227   1.924 -0.0361 -0.2029  0.0903
24289W        W41813   7.611  14.854   4.836  0.0786  0.2235 -0.0586
24290W        W41814   9.831   1.396   4.476 -0.1643 -0.2062  0.1727
24291W        W41815   8.777  18.340  15.353  0.2638  0.0195  0.1220
24292W        W41816  15.061   3.675  15.047 -0.3349  0.0766  0.1985
24293W        W41817  12.306   6.563   1.716  0.1045  0.1439 -0.1226
24294W        W41818  13.130  12.025   3.685 -0.4759 -0.1281  0.0762
24295W        W41819   9.508   1.796  12.410  0.1242  0.2710  0.1598
24296W        W41820   5.472  17.706  12.606 -0.0046  0.1119 -0.5183
24297W        W41821  12.406   1.022  12.196  0.1507 -0.3906  0.0009
24298W        W41822  10.364  14.839  15.714 -0.2372  0.1345  0.1662
24299W        W41823   6.704   2.317  15.239 -0.2356 -0.1540  0.0188
24300W        W41824  10.382   4.565  14.576  0.0510 -0.2801 -0.0307
24301W        W41825   2.889   7.289  15.298 -0.0670  0.1799  0.3187
24302W        W41826   5.757   1.339   2.860 -0.3423 -0.0465 -0.2602
24303W        W41827   5.833   9.417  13.586 -0.0530 -0.3525  0.1129
24304W        W41828  14.115   1.213  14.619  0.0687 -0.0801 -0.0325
24305W        W41829  16.981  11.679   4.088 -0.0955 -0.2502  0.1380
24306W        W41830  17.616  17.375  11.240 -0.0980  0.2480  0.1249
24307W        W41831   5.473  15.621  10.369 -0.1730 -0.1321 -0.3236
24308W        W41832   2.185   0.368   3.550 -0.1512  0.0221 -0.2410
24309W        W41833  13.540  12.440  12.006  0.1094 -0.1201  0.1716
24310W        W41834  11.386   3.410   4.639 -0.1807  0.1606 -0.1719
24311W        W41835   1.555   8.193  15.520 -0.1177 -0.2802 -0.1007
24312W        W41836  13.219  12.215   3.174  0.0839  0.1030 -0.1866
24313W        W41837  12.234  17.114  12.982  0.0339  0.1557  0.0715
24314W        W41838  17.241   4.839   2.770 -0.3079  0.2291 -0.0090
24315W        W41839   7.823   4.103   4.453  0.0887  0.1900 -0.3829
24316W        W41840   4.429  11.946   3.038  0.0048  0.1492 -0.1596
24317W        W41841   0.631   9.292   4.006 -0.1049  0.0114 -0.0558
24318W        W41842   1.473  10.302  13.908 -0.1188 -0.1378  0.0593
24319W        W41843   1.883  12.729   0.046 -0.0196 -0.0056 -0.1039
24320W        W41844  18.167  14.819   2.377 -0.1912 -0.0811 -0.1103
24321W        W41845  10.227   6.886   5.600 -0.0768  0.3095 -0.3807
24322W        W41846   5.752  11.611   1.886  0.1896  0.4928  0.0200
24323W        W41847   8.297   8.879  12.073  0.2644 -0.2975  0.1026
24324W        W41848   9.015  11.451  14.535  0.1842  0.1685 -0.2894
24325W        W41849   7.625   2.860   0.241  0.1153 -0.0904 -0.2173
24326W        W41850   5.907   9.109  11.646  0.1777 -0.1154 -0.0129
24327W        W41851   1.452   7.638  15.609 -0.0524 -0.0770  0.0571
24328W        W41852  13.632  17.052   1.467 -0.2151  0.0445  0.3745
24329W        W41853   5.341   5.195  10.707 -0.0988 -0.1135 -0.2410
24330W        W41854   4.585   1.308   3.883  0.1856 -0.2283 -0.3920
24331W        W41855  15.027  10.465  11.307 -0.1758  0.0350 -0.0901
24332W        W41856   8.382  14.579   1.137  0.0771  0.3457  0.0509
24333W        W41857   2.390   9.260  12.958 -0.0254  0.0484  0.1029
24334W        W41858   2.361  11.033   1.644  0.4184  0.1161 -0.0176
24335W        W41859   1.760  12.633  10.017 -0.1141  0.0497 -0.3711
24336W        W41860   0.069  13.506  14.820  0.3289 -0.1726  0.0617
24337W        W41861   0.830   0.379   0.917 -0.3292  0.2707 -0.0689
24338W        W41862   1.176   0.453   3.916  0.0282 -0.1563 -0.0864
24339W        W41863   7.274   3.996  13.265  0.0162 -0.2777  0.0438
24340W        W41864   9.125   6.759  11.735 -0.2235 -0.1450  0.1358
24341W        W41865  10.976   7.956  14.269 -0.0028 -0.2596  0.1006
24342W        W41866   2.023   4.723   3.471 -0.0821 -0.1026  0.1737
24343W        W41867  17.910   6.312   4.839 -0.0877  0.0590  0.2536
24344W        W41868  14.157   3.169   2.668 -0.0454 -0.0039  0.0118
24345W        W41869   9.838   9.749   1.097  0.0971 -0.2387 -0.2154
24346W        W41870  16.945   1.686   3.242 -0.0899 -0.1628  0.0498
24347W        W41871  14.412   0.754   3.952 -0.0176 -0.0811  0.0936
24348W        W41872  16.793  12.954  12.498  0.1666 -0.1140  0.0596
24349W        W41873   6.049   4.643   0.857  0.2364  0.0273  0.0275
24350W        W41874   3.552  18.280  15.351 -0.0290 -0.0715  0.0178
24351W        W41875  13.572  12.336  11.515  0.1113  0.3155 -0.1065
24352W        W41876  15.617  18.264  11.059  0.2548  0.2657 -0.0129
24353W        W41877  10.206   8.696  12.933 -0.0642  0.2956  0.4223
24354W        W41878  16.561  15.455   2.981 -0.0235  0.0650 -0.1567
24355W        W41879  17.259   3.375  13.296  0.0200 -0.0084  0.1196
24356W        W41880   5.740  11.753   3.688  0.0918  0.2165  0.1476
24357W        W41881  11.482  18.372  12.743  0.1252  0.0098  0.1643
24358W        W41882   0.817   2.942   3.023  0.2492  0.0710 -0.2744
24359W        W41883   8.219  18.348   1.122  0.2714 -0.0028  0.0331
24360W        W41884  14.062   0.388  15.639 -0.1769  0.1339 -0.1501
24361W        W41885  18.233   0.711   0.786 -0.4027 -0.0944 -0.4287
24362W        W41886  11.735  15.899   4.865 -0.3397 -0.2214 -0.1325
24363W        W41887  16.100   7.622   5.446  0.1844 -0.3130  0.0298
24364W        W41888  10.635  15.384  15.691 -0.1479  0.2143 -0.1540
24365W        W41889   1.110  12.144   0.566 -0.1751 -0.0475  0.4034
24366W        W41890   1.820   9.647  13.530 -0.0708  0.0240 -0.2364
24367W        W41891   5.861   0.801   2.254 -0.0952 -0.0606  0.0198
24368W        W41892   1.518  13.392  14.603  0.0372  0.0557 -0.0886
24369W        W41893   1.299  11.812   4.755  0.2279  0.1445 -0.1226
24370W        W41894  10.720   1.671  12.357  0.1426 -0.2051  0.2560
24371W        W41895   0.484   7.030  13.130 -0.0756  0.1258 -0.2340
24372W        W41896   2.393   4.820   2.497  0.0928 -0.2071  0.2378
24373W        W41897   8.682  16.837  12.701  0.1179  0.0042 -0.0138
24374W        W41898  16.863  10.267  15.614  0.1209 -0.2435 -0.0693
24375W        W41899   5.963  17.655   0.895 -0.0603  0.1700  0.0461
24376W        W41900  12.914   6.839  15.381 -0.0518  0.1264  0.0014
24377W        W41901   5.625  11.333  11.132 -0.3688 -0.2054  0.1363
24378W        W41902   0.486   6.806  10.938 -0.1686  0.2462 -0.1308
24379W        W41903  13.374   1.460   0.254  0.3813  0.0381  0.1622
24380W        W41904   1.743   5.362  13.227  0.0233 -0.2213 -0.0364
24381W        W41905   5.371   1.794   3.951 -0.0804 -0.1828  0.0868
24382W        W41906  15.772   6.539  11.557 -0.2262  0.1392  0.0003
24383W        W41907  10.613   4.031   3.503  0.0613  0.1171  0.1762
24384W        W41908   7.334   6.988  14.146  0.2240  0.5208 -0.2131
24385W        W41909   4.607   1.016  14.378 -0.0381 -0.0501  0.2057
24386W        W41910   5.000   4.330  14.469  0.2071 -0.2406 -0.1081
24387W        W41911   1.587   4.747  13.746 -0.0219 -0.1931  0.2797
24388W        W41912  18.156   8.166   2.866 -0.3220 -0.3999 -0.1447
24389W        W41913   0.040   6.026  12.001 -0.3538  0.0690 -0.1794
24390W        W41914   9.306  10.406  15.645  0.1368  0.0924 -0.0546
24391W        W41915   1.698   3.918  12.651  0.3382  0.2562  0.0165
24392W        W41916   1.408  14.808   3.052 -0.1890  0.2120 -0.0276
24393W        W41917   4.197  12.690  14.947  0.1566  0.1515  0.4437
24394W        W41918   0.173  11.529  14.106 -0.0220 -0.1008 -0.0288
24395W        W41919   5.098  10.015  13.984  0.0463 -0.0111 -0.0746
24396W        W41920  16.557  18.408  12.919 -0.2296  0.1354  0.1387
24397W        W41921   4.556  16.621  12.239 -0.1033  0.0814  0.2605
24398W        W41922   8.841   4.125   3.745 -0.0698 -0.2195 -0.1558
24399W        W41923   6.166   2.796  11.880 -0.1326 -0.0899  0.0023
24400W        W41924   8.801   5.971  13.435  0.0075  0.0263  0.1741
24401W        W41925   0.012  11.571  12.860 -0.0113 -0.0869  0.0454
24402W        W41926   3.004   7.472  11.905 -0.2924 -0.0814  0.4067
24403W        W41927  17.732  10.682  13.400  0.2456 -0.2429  0.0431
24404W        W41928   5.098  13.517  13.858 -0.0330 -0.0279 -0.0672
24405W        W41929  13.356   8.220   1.248 -0.2645  0.0794 -0.3306
24406W        W41930   7.169   7.404   0.824 -0.1416  0.1143  0.0111
24407W        W41931   4.568  14.565   2.708  0.1978 -0.1733 -0.0828
24408W        W41932  11.802  13.470   4.620  0.0659 -0.1665 -0.0849
24409W        W41933   6.804  17.561   4.914  0.3132  0.2224 -0.0383
24410W        W41934   2.898   0.484  11.100  0.0301  0.0637 -0.4439
24411W        W41935   4.291   8.111  13.090  0.0570 -0.1658  0.1139
24412W        W41936  11.466   4.114  14.827 -0.1817  0.0650  0.2082
24413W        W41937   1.391   6.863   1.078 -0.1716  0.0223 -0.0389
24414W        W41938  10.812  17.733   4.420  0.0214 -0.1790 -0.0803
24415W        W41939   3.625  16.772  13.549  0.2358  0.2431 -0.0317
24416W        W41940  13.018  12.092  14.739  0.2927 -0.3056  0.3221
24417W        W41941   8.535   8.056  10.039 -0.0536  0.0216 -0.0038
24418W        W41942   6.868   2.209   4.538  0.2253  0.1218 -0.1326
24419W        W41943  17.785  10.507   2.448 -0.1586 -0.1850  0.1512
24420W        W41944  12.710   9.917   3.135 -0.1327  0.0340  0.0018
24421W        W41945  11.336  11.773  12.780  0.0011  0.0310  0.1397
24422W        W41946  17.983   8.203   0.484  0.0805  0.1107  0.1109
24423W        W41947  15.889   4.666  15.180 -0.4907  0.3242  0.0205
24424W        W41948  10.973   3.878  14.950  0.3405 -0.0651  0.1025
24425W        W41949   8.964   3.098  15.371 -0.0414 -0.0425  0.1647
24426W        W41950   0.650  17.599   0.356 -0.0437 -0.0161  0.3413
24427W        W41951   7.292  15.320  15.071  0.0700  0.1358 -0.0540
24428W        W41952  10.050  10.276   4.335  0.4043  0.1533  0.1996
24429W        W41953   0.529  15.493  13.420  0.1971 -0.1921 -0.1705
24430W        W41954   0.191  18.405   0.094  0.0343  0.0564 -0.1515
24431W        W41955   9.089  10.077  12.936 -0.1590  0.2207  0.0854
24432W        W41956   5.976   5.589   2.663 -0.1806 -0.0044 -0.5044
24433W        W41957   1.160   6.962   2.667  0.1810 -0.0215  0.2170
24434W        W41958   7.843   3.434  14.282 -0.0251  0.0798  0.0767
24435W        W41959   5.572   3.154  12.511  0.0562  0.0891  0.0552
24436W        W41960  16.220   1.521   1.158  0.3623 -0.2553 -0.0964
24437W        W41961   5.638   8.179   3.914  0.2528 -0.1386 -0.0247
24438W        W41962   6.614  11.326  10.145 -0.0953  0.0902  0.1709
24439W        W41963  10.950  12.367  11.780  0.1907 -0.2224 -0.0637
24440W        W41964   6.561  10.573  12.851  0.1204 -0.1637  0.0018
24441W        W41965  11.020   5.550  14.026 -0.3189  0.0318 -0.3033
24442W        W41966  14.935  10.321   0.572  0.1944  0.0644  0.0793
24443W        W41967   7.203   6.324   1.286  0.1102  0.1037 -0.1543
24444W        W41968  16.372  13.406   4.652 -0.1690  0.3479  0.0193
24445W        W41969  16.624  17.514   3.217 -0.0324  0.0031 -0.0808
24446W        W41970  10.787   3.674  12.070  0.2170 -0.1018 -0.6197
24447W        W41971  10.560  10.008  13.094  0.1621  0.1783  0.1469
24448W        W41972   3.125  13.361   5.081 -0.5336 -0.1673  0.1643
24449W        W41973  17.168   3.414   4.547  0.3124  0.0428 -0.0916
24450W        W41974  11.738   7.004  15.157 -0.0201 -0.0669  0.0964
24451W        W41975   3.386   7.892  11.547  0.0096  0.3198  0.0373
24452W        W41976   0.437   7.919   1.416 -0.2301  0.1754 -0.1137
24453W        W41977  10.849   5.206   1.551 -0.0911  0.1067  0.0695
24454W        W41978   3.342  14.289   4.470 -0.1793 -0.2153 -0.0339
24455W        W41979  15.512   1.761  15.254  0.1756 -0.2722  0.2429
24456W        W41980  17.314   7.480  14.612 -0.3202  0.0988 -0.0010
24457W        W41981   8.991   8.551   1.853  0.2031 -0.1787 -0.0783
24458W        W41982  18.102   9.028  12.097 -0.2026 -0.1613 -0.0769
24459W        W41983  12.062  17.615  13.003 -0.3963 -0.0946  0.0841
24460W        W41984   1.334   9.037   3.433  0.2939 -0.0753  0.0055
24461W        W41985   4.646   5.469   2.032  0.3318 -0.1859  0.3388
24462W        W41986  12.287  15.953   3.425 -0.1912 -0.0906 -0.3318
24463W        W41987  13.941   2.144   0.527  0.0866  0.2166  0.0595
24464W        W41988  15.134   0.681  11.831  0.3281 -0.0446  0.0298
24465W        W41989   9.121  13.678   3.509 -0.0321  0.0108 -0.1109
24466W        W41990   6.518  12.962  11.635  0.1367  0.0047  0.0296
24467W        W41991   1.199  16.194   0.198  0.2349  0.0677  0.0351
24468W        W41992  12.866  16.147   4.365 -0.0763 -0.0509 -0.1155
24469W        W41993   7.013   8.702  11.075  0.2578 -0.1382  0.0820
24470W        W41994  10.060  15.037  14.090 -0.1057 -0.2587  0.2356
24471W        W41995   8.072  12.263   0.114  0.1534 -0.2326  0.2128
24472W        W41996  18.415  11.998  12.060 -0.2222  0.1675 -0.0689
24473W        W41997   3.538  13.724  11.753 -0.2455  0.0061  0.1462
24474W        W41998   2.592  10.384  15.108  0.1946 -0.1309  0.0245
24475W        W41999  13.856  17.485  12.325 -0.1158 -0.0725 -0.1808
24476W        W42000   4.562  11.867   3.931  0.1702 -0.0102  0.2832
24477W        W42001  17.183   1.985  11.414 -0.1886  0.2563 -0.1581
24478W        W42002   2.854  17.687   1.256 -0.0484  0.0531  0.2573
24479W        W42003   7.030  13.045  11.699  0.2485  0.0859  0.0608
24480W        W42004  11.553  15.315   3.481  0.1139  0.0608  0.4694
24481W        W42005   7.882   5.427   4.021  0.1841 -0.3251 -0.1816
24482W        W42006  10.504  17.504  12.455 -0.2884  0.1009 -0.1153
24483W        W42007  11.122   8.993   3.389  0.1699 -0.3497 -0.1374
24484W        W42008   7.587   7.545   0.518  0.0591  0.2202 -0.0249
24485W        W42009   2.954   9.154  11.733 -0.1273 -0.2620 -0.0977
24486W        W42010  14.416   6.156   0.386 -0.0326 -0.1754  0.2613
24487W        W42011  18.384  15.138   1.220 -0.2282  0.1330  0.0754
24488W        W42012   2.806   9.857  15.192 -0.0538 -0.1950  0.0980
24489W        W42013   5.452  18.053  11.832 -0.2232  0.0983 -0.1310
24490W        W42014  10.643  12.114  12.069 -0.2749  0.0879  0.2320
24491W        W42015   0.944   6.479   2.295  0.0678 -0.0731 -0.2916
24492W        W42016  14.799  17.486  14.878  0.0221  0.0991  0.0760
24493W        W42017   9.133   3.450  12.613 -0.2829  0.1347 -0.3761
24494W        W42018  15.932  13.563   4.405  0.0033 -0.0137 -0.3324
24495W        W42019   9.558   0.831  14.026  0.3341  0.1772  0.0376
24496W        W42020  17.090  13.267   2.026 -0.1054  0.1081  0.3244
24497W        W42021  16.596  12.850  11.286 -0.0041 -0.2859 -0.3182
24498W        W42022   7.839  16.744  15.318  0.0664  0.0530  0.0201
24499W        W42023  16.474   3.324   2.594  0.1165 -0.3644 -0.3495
24500W        W42024   5.429   6.533   4.995 -0.0299  0.0804 -0.2369
24501W        W42025  15.322  18.137   2.205  0.1349  0.2174  0.0373
24502W        W42026   1.439  12.886   2.900  0.1051  0.0016 -0.2975
24503W        W42027   1.921   4.720  14.082  0.2976 -0.2313  0.1836
24504W        W42028  17.886  16.839  14.629  0.0257 -0.1581  0.1848
24505W        W42029  12.569   6.989   0.768 -0.1685 -0.1314  0.0281
24506W        W42030   9.059  15.207   4.456  0.3569  0.0420  0.1142
24507W        W42031  16.615  12.250  13.892  0.0531  0.1110  0.0038
24508W        W42032   3.077   9.390   0.662 -0.3113  0.2011 -0.0411
24509W        W42033   4.424  10.335  13.268  0.2989 -0.1679 -0.5312
24510W        W42034  16.222  13.675   3.525 -0.0118 -0.0153 -0.1032
24511W        W42035   2.847  15.351  15.057  0.1219 -0.2198  0.0410
24512W        W42036   6.876   3.238  12.297 -0.0512  0.3088 -0.1518
24513W        W42037   9.430   5.987   1.032 -0.0460  0.0092  0.0403
24514W        W42038   7.259  11.589   0.043 -0.0028 -0.0061 -0.0589
24515W        W42039  16.800  16.941   4.097  0.0713 -0.1631  0.1159
24516W        W42040  17.396  10.186  15.584  0.1477 -0.1976  0.1302
24517W        W42041  10.631   0.954   3.155 -0.2845 -0.1559 -0.1488
24518W        W42042  11.913   5.397  12.084  0.0608  0.2452 -0.1923
24519W        W42043  11.335  17.225   0.628  0.0350  0.0677  0.0097
24520W        W42044  16.232   8.133  12.799 -0.4171 -0.0919  0.0075
24521W        W42045   4.668   9.870  11.307 -0.1749  0.1666  0.0734
24522W        W42046   3.643   6.317  12.822  0.4860  0.1535  0.1923
24523W        W42047  11.970  12.085   0.054  0.0851 -0.1712  0.1677
24524W        W42048   4.758  14.126  15.411 -0.0573 -0.0521  0.1112
24525W        W42049   5.601   1.490  13.605  0.1331  0.2070  0.1166
24526W        W42050   7.743   7.147  15.089  0.1014  0.0927 -0.2248
24527W        W42051  15.628  13.475   3.055  0.3602 -0.0161 -0.0296
24528W        W42052   3.149   1.785  10.972  0.1062  0.0694  0.0292
24529W        W42053   3.400   6.339  15.067  0.0239 -0.1535 -0.1026
24530W        W42054  17.749   5.877  12.854 -0.0248 -0.1611  0.1278
24531W        W42055  18.060   4.214   3.761  0.0390 -0.1570 -0.0420
24532W        W42056   7.385   1.439  12.094  0.0566  0.3458 -0.0861
24533W        W42057   0.235   6.810  14.273 -0.3558  0.1695 -0.0804
24534W        W42058   8.199   8.523  14.930  0.0905 -0.0307  0.0987
24535W        W42059   1.270  10.223   1.849  0.4075 -0.2707  0.0732
24536W        W42060   3.620   5.672  10.320 -0.0891 -0.0990 -0.0887
24537W        W42061   6.824   3.651  13.651 -0.1214  0.2642 -0.1983
24538W        W42062  16.526  13.878  11.407 -0.2461 -0.0101  0.2890
24539W        W42063   8.708  10.558   1.936  0.2819 -0.0575  0.1365
24540W        W42064  17.734   6.366   3.090 -0.1329 -0.1954 -0.0595
24541W        W42065  10.721   3.215  12.266 -0.2665 -0.0122  0.1400
24542W        W42066   7.785   3.249  13.364 -0.2039  0.0799 -0.0145
24543W        W42067   8.721   2.201   4.402  0.4210  0.1264  0.0218
24544W        W42068  13.441  11.714   3.897 -0.1406 -0.0027 -0.2408
24545W        W42069   9.284   1.112   2.585  0.1869  0.0852  0.2135
24546W        W42070  16.902   0.348   0.114  0.0175 -0.3947 -0.0110
24547W        W42071   3.282  11.474  14.862  0.0475  0.1588  0.0290
24548W        W42072   1.779   4.508  12.619  0.5166 -0.0833  0.0662
24549W        W42073   3.269  13.553   3.436  0.2753  0.0006 -0.0252
24550W        W42074  11.690   0.556  13.354  0.0361  0.0461 -0.1794
24551W        W42075   9.516   3.351  10.956  0.0559  0.1225  0.2505
24552W        W42076   8.838   2.735   0.042 -0.1151 -0.3088 -0.3412
24553W        W42077   4.023  13.396   3.205  0.0360 -0.2372  0.3452
24554W        W42078   3.184   6.916  15.189  0.2988 -0.0014 -0.1283
24555W        W42079  10.842  13.546  13.757 -0.1091 -0.1157  0.0126
24556W        W42080   2.676   1.822  11.890 -0.3925  0.2649  0.1254
24557W        W42081   4.338  10.395  15.620  0.3418  0.0463  0.2420
24558W        W42082   0.586  18.290   4.175  0.0710  0.0254 -0.1860
24559W        W42083  16.351   7.526  11.689  0.3757  0.1830 -0.1326
24560W        W42084  11.759   2.280   2.465  0.1203 -0.1306 -0.1651
24561W        W42085   4.004  17.048   3.315 -0.0621  0.1593  0.1030
24562W        W42086   1.749  12.423   1.847 -0.3031  0.1932 -0.1506
24563W        W42087  12.389   4.698   2.979  0.3245 -0.0377 -0.1096
24564W        W42088   8.265  17.981   3.410 -0.2847 -0.0710 -0.1238
24565W        W42089  13.537  17.666  13.536  0.0553  0.0381  0.0685
24566W        W42090  15.482   3.033   4.123 -0.0964 -0.1562 -0.0102
24567W        W42091  15.873   5.023   2.452 -0.1406  0.1610 -0.2365
24568W        W42092  15.065   8.310  13.829  0.0678 -0.3931  0.0715
24569W        W42093   4.350   2.725   4.244  0.2474 -0.1372 -0.1612
24570W        W42094   8.510   7.239   1.922  0.1051 -0.2577 -0.2312
24571W        W42095   7.654  13.055   2.089 -0.2737  0.0954  0.1965
24572W        W42096  11.198   0.349   0.486 -0.2690 -0.0413 -0.1949
24573W        W42097   8.594   9.511   0.128  0.4985 -0.0019 -0.0520
24574W        W42098  13.849   0.454   4.672 -0.0585 -0.3224 -0.1729
24575W        W42099  14.652  16.385   4.877 -0.2209 -0.1734  0.2174
24576W        W42100  11.174  10.598  15.247  0.3779  0.0922  0.1085
24577W        W42101  15.522   1.089   4.927  0.3459  0.0040  0.3584
24578W        W42102   5.489  14.401  13.212  0.0137 -0.0870  0.0088
24579W        W42103   3.183   4.616   1.143 -0.0832  0.0314 -0.0055
24580W        W42104  11.755   8.946  14.724  0.1584 -0.1424 -0.0174
24581W        W42105  18.048  16.851  12.646 -0.3182  0.3519 -0.0518
24582W        W42106   2.468  11.949   0.475 -0.1428  0.2275 -0.0222
24583W        W42107   6.101   8.842   2.527 -0.0245 -0.1575  0.0212
24584W        W42108  18.275  13.797   3.733 -0.0083  0.1172  0.1082
24585W        W42109  14.884  13.528   4.068  0.3029 -0.0890  0.0924
24586W        W42110  12.795  18.020  14.600  0.0662  0.0207  0.0595
24587W        W42111   2.852  12.779   4.589  0.2428 -0.2736  0.0450
24588W        W42112  12.691  18.476  14.512  0.1144 -0.2282  0.1579
24589W        W42113  14.144  16.253  12.136 -0.1761 -0.5279 -0.0696
24590W        W42114   3.554   2.783  14.230  0.0098  0.1721 -0.2101
24591W        W42115   7.590   4.830   2.941 -0.0441  0.5015 -0.0088
24592W        W42116  18.255  11.634  13.739  0.2448 -0.1120 -0.2346
24593W        W42117   6.815   1.030   0.768  0.0278 -0.0892 -0.2285
24594W        W42118  15.756  14.152  11.889  0.0324  0.2110  0.2194
24595W        W42119   5.726   7.399   2.216  0.2129 -0.1511 -0.3916
24596W        W42120   1.741   0.981  14.253 -0.0662 -0.2747  0.3122
24597W        W42121   6.879   7.400   4.613  0.2322 -0.2365  0.1036
24598W        W42122  14.311   9.439   2.366  0.1307  0.2527 -0.1100
24599W        W42123  12.629  14.731   4.046  0.1151 -0.0019 -0.0838
24600W        W42124  15.553   5.065   2.845  0.1053  0.1650  0.0867
24601W        W42125   0.582   2.647   3.689 -0.0900 -0.1147  0.4128
24602W        W42126  15.411  16.737   1.900 -0.4832  0.0803  0.1523
24603W        W42127  16.688   3.054  11.721  0.0083 -0.3231 -0.1597
24604W        W42128  17.443   6.020   3.326 -0.1904 -0.1660  0.0259
24605W        W42129   1.921   4.488  13.084  0.0536  0.0321 -0.2768
24606W        W42130   2.150  16.385  15.502  0.0841  0.0042 -0.1813
24607W        W42131   7.096   2.033  10.096  0.0352 -0.2527  0.2076
24608W        W42132   3.933   7.616  14.115 -0.0436  0.0282 -0.1469
24609W        W42133  12.572  12.892  12.828  0.2448  0.0395 -0.0757
24610W        W42134  14.647   5.163   3.357  0.0082 -0.0275  0.1969
24611W        W42135   1.651   9.853   0.030 -0.1615 -0.0942 -0.1101
24612W        W42136  11.506  15.818   0.756 -0.2650 -0.0934  0.0282
24613W        W42137   2.360  15.242  13.179 -0.1563 -0.1891  0.0988
24614W        W42138   9.695  17.051   2.085  0.1153 -0.4246 -0.0740
24615W        W42139   8.263   4.354   3.371  0.0541 -0.1649  0.1537
24616W        W42140  13.516   2.950  15.174 -0.3122 -0.1603  0.1628
24617W        W42141  12.144   9.640  14.666 -0.2802 -0.1001 -0.2541
24618W        W42142  18.028   0.929  15.091  0.3288 -0.0896 -0.0857
24619W        W42143  13.712   1.397   4.004  0.3036  0.1203  0.2338
24620W        W42144   8.730  10.843   0.012 -0.1425  0.2779  0.1962
24621W        W42145   0.603  17.727  14.273 -0.1314  0.1847 -0.2946
24622W        W42146   2.220  11.999  11.725 -0.1182 -0.1542 -0.0649
24623W        W42147  18.157   5.714  10.787 -0.0321 -0.2138  0.1342
24624W        W42148  13.839  14.404   1.824  0.1416  0.2897  0.0669
24625W        W42149  15.773  13.229   1.802  0.1438 -0.2114 -0.2262
24626W        W42150  18.383   5.241   0.855 -0.0287  0.0901 -0.1769
24627W        W42151   4.349   4.391  15.641  0.2838 -0.1618 -0.1346
24628W        W42152  17.386  10.698   2.100  0.3006 -0.2560  0.0686
24629W        W42153   0.735  18.351   0.780 -0.0098 -0.1424  0.1599
24630W        W42154  14.061   2.503   0.892 -0.1306 -0.1485 -0.0265
24631W        W42155  17.229   9.840  12.059 -0.1980 -0.2390 -0.1417
24632W        W42156   7.927  15.582  12.153 -0.1720  0.1868 -0.0488
24633W        W42157   1.686   2.596  14.577  0.3037  0.0137 -0.0494
24634W        W42158   2.308  16.215   1.607 -0.3875  0.0362 -0.2048
24635W        W42159  17.725  15.283   1.049  0.0315  0.1995 -0.0992
24636W        W42160   0.913   4.162   1.481  0.2095 -0.0529  0.0758
24637W        W42161  11.631   7.989   2.479 -0.2312  0.0637 -0.0794
24638W        W42162   9.105  11.474  12.584 -0.1808  0.1389 -0.4597
24639W        W42163   9.786   2.864   1.598  0.2388 -0.0709  0.0636
24640W        W42164  18.203   3.183   3.679 -0.2575 -0.0691  0.1146
24641W        W42165  16.407   3.765   2.957 -0.0749  0.1615 -0.0128
24642W        W42166   4.588   0.748   1.745 -0.2724 -0.0885  0.2714
24643W        W42167   1.115  11.761  14.017  0.1028 -0.3997  0.0301
24644W        W42168   8.334   6.982   0.609  0.0631  0.1952  0.0271
24645W        W42169   3.740   3.592  15.554  0.0743 -0.0326 -0.0638
24646W        W42170  16.462  10.827   1.973  0.1044  0.1747 -0.2181
24647W        W42171   7.664   1.991  11.581  0.4587 -0.2060  0.0845
24648W        W42172   3.149   0.093  15.705 -0.2707  0.5905 -0.1933
24649W        W42173  14.644  16.540  11.357 -0.2675 -0.3208  0.1246
24650W        W42174   2.664  10.878   2.036  0.2608  0.2820 -0.0873
24651W        W42175   0.588  13.553   3.271 -0.0449 -0.2054  0.0847
24652W        W42176  17.742   6.749   0.170 -0.5848  0.1072 -0.0380
24653W        W42177   5.069   3.958  14.108  0.1090  0.1259  0.2365
24654W        W42178   1.324   5.083   3.599  0.0257  0.2782 -0.0343
24655W        W42179  11.925  16.737   2.394 -0.0153  0.2599  0.1289
24656W        W42180   9.467  10.344   0.854  0.0993 -0.3355  0.3061
24657W        W42181  12.025   5.121  12.531  0.1096 -0.1483  0.2248
24658W        W42182  16.378   6.966  11.145 -0.1666  0.3210  0.0138
24659W        W42183   0.078   8.762  13.459  0.1692  0.1390  0.0121
24660W        W42184   0.209  17.980  14.024  0.1236  0.0492  0.2120
24661W        W42185   5.714  14.681   3.944 -0.0806  0.1621  0.3112
24662W        W42186   1.878  14.041   0.841  0.2588 -0.1834  0.0560
24663W        W42187   1.711  13.825   3.964  0.1482 -0.1739 -0.0606
24664W        W42188   3.543   0.152   2.538  0.0424 -0.1062 -0.0952
24665W        W42189   9.101   4.518  11.528 -0.0638  0.3312  0.1593
24666W        W42190   7.070   1.251  13.002 -0.0033  0.0793 -0.0375
24667W        W42191   7.331   9.326  12.869 -0.2699  0.2367 -0.2335
24668W        W42192   0.132   7.750  14.823 -0.0899  0.0634  0.2466
24669W        W42193   9.012  11.230  10.177 -0.2739  0.2089  0.1960
24670W        W42194   7.680  12.495   3.222  0.0426  0.0269  0.3323
24671W        W42195   0.864  10.147   1.230  0.0625  0.1353  0.1498
24672W        W42196   9.407  15.033  13.739 -0.0077  0.2112 -0.1509
24673W        W42197  14.677   2.377  11.769 -0.1419  0.4958 -0.2280
24674W        W42198   2.252  17.573   5.243  0.0012 -0.0755  0.0769
24675W        W42199  14.478  13.521  12.892  0.0751  0.0971 -0.0625
24676W        W42200   0.500  10.398  11.006  0.0733  0.1054 -0.0683
24677W        W42201  16.797  17.185  15.074  0.3271 -0.0440  0.2021
24678W        W42202   0.922  12.160  11.334 -0.0357  0.0123  0.1358
24679W        W42203   5.448  16.676   3.326  0.3452  0.0434 -0.2166
24680W        W42204  10.232  10.635   4.038  0.0612 -0.2326 -0.1327
24681W        W42205   8.738  12.759   0.216 -0.0868  0.1469  0.0211
24682W        W42206   8.488   1.767  12.834  0.0024 -0.3452  0.0034
24683W        W42207   5.437  10.367  13.833  0.3420  0.2232 -0.0021
24684W        W42208   4.066  10.593   2.348 -0.0791  0.0208  0.1053
24685W        W42209  11.755  13.100  15.720 -0.1276 -0.4480  0.1504
24686W        W42210  11.221   8.404   2.572 -0.0503  0.6550 -0.1960
24687W        W42211   0.041  11.265  14.581 -0.1470  0.1646  0.2162
24688W        W42212  11.147  17.514  12.860  0.0857  0.3869 -0.1795
24689W        W42213   0.770  15.785  12.685 -0.4170  0.1554  0.3517
24690W        W42214   9.089   1.688   1.421 -0.0816 -0.2114 -0.0403
24691W        W42215  17.234  16.177   1.164 -0.0883 -0.0785  0.1473
24692W        W42216   1.089   4.843   3.952  0.0497 -0.0591  0.0656
24693W        W42217   5.548   7.715   9.811 -0.0264  0.2738  0.0310
24694W        W42218  18.142  14.172  10.180 -0.2610 -0.1820  0.0592
24695W        W42219  15.785  15.498   4.878 -0.0664  0.2411 -0.1149
24696W        W42220   7.865   9.995  10.488  0.1584 -0.0382 -0.2544
24697W        W42221   8.508  17.847  12.705  0.0710 -0.2225 -0.2830
24698W        W42222  16.606   3.409   1.391  0.0862 -0.2378  0.1299
24699W        W42223   4.563  14.041   1.249  0.1024 -0.1399 -0.2333
24700W        W42224   0.348   9.801   1.852  0.1970  0.2034 -0.2043
24701W        W42225  18.366   8.936   2.051 -0.1645  0.4056 -0.2209
24702W        W42226  12.084   8.158  10.423 -0.0035 -0.1519  0.0815
24703W        W42227   0.594   8.592  14.174 -0.1332 -0.1145 -0.1936
24704W        W42228  11.445  17.745  12.103 -0.0614  0.1333  0.1902
24705W        W42229   8.123   9.404   3.133  0.1152  0.1161 -0.0366
24706W        W42230   7.837  11.804   2.798  0.1503  0.3027 -0.4246
24707W        W42231   6.195  16.285   3.216  0.0189 -0.1434  0.1976
24708W        W42232   7.896   7.523  12.563  0.3816 -0.1595  0.3274
24709W        W42233  11.668   1.483  14.069 -0.1814  0.1081 -0.0838
24710W        W42234  13.482  10.628  11.379  0.0523  0.2425  0.1286
24711W        W42235   3.048  17.501  13.732 -0.0608  0.1712 -0.2344
24712W        W42236  17.675   0.489  12.815  0.2941  0.0178 -0.0902
24713W        W42237  16.181  18.213  12.288  0.0972  0.3518  0.0775
24714W        W42238   4.155  14.916  11.322  0.0424 -0.2092 -0.0354
24715W        W42239  11.303  10.761  12.134 -0.0525 -0.0742 -0.2537
24716W        W42240   3.078   4.197   1.589  0.1854  0.1369  0.2659
24717W        W42241   3.730   4.281  11.133  0.2957  0.0210 -0.2231
24718W        W42242   6.233   7.005  12.731 -0.1513  0.1998  0.0156
24719W        W42243  15.999   6.169  12.667 -0.1852  0.0117 -0.0504
24720W        W42244   8.776   9.429   3.266  0.0992 -0.1128 -0.1399
24721W        W42245   8.494   8.892  14.706 -0.0769 -0.0852 -0.3328
24722W        W42246  17.076  16.880  12.836  0.2396 -0.0280 -0.0611
24723W        W42247  10.936  12.906   5.835 -0.2569  0.0652 -0.0574
24724W        W42248  11.316  14.934   2.673  0.0992  0.1190 -0.2715
24725W        W42249   0.043   6.990  12.931 -0.1293  0.4289  0.3396
24726W        W42250  14.494  10.621  10.414  0.1344 -0.3035  0.2500
24727W        W42251   3.224   1.827   3.327 -0.1049 -0.1524  0.1281
24728W        W42252  15.245   3.544   2.631  0.2158  0.0920  0.0891
24729W        W42253   2.922  14.073  15.649 -0.2168 -0.0693  0.0407
24730W        W42254  13.737   4.903   1.977 -0.1865 -0.3334  0.1522
24731W        W42255  16.132  15.100   4.864  0.0232  0.2539 -0.1373
24732W        W42256   9.892  14.230  12.526  0.1046 -0.1008 -0.3848
24733W        W42257   8.835  10.133   4.420 -0.2759  0.0275 -0.0936
24734W        W42258   6.998   6.182   1.915 -0.0457  0.0863  0.1110
24735W        W42259  11.043   4.293  13.475  0.0019  0.1169 -0.0471
24736W        W42260   0.328  11.631   2.208 -0.0954  0.5262  0.2236
24737W        W42261   1.513   6.155   3.958 -0.0146  0.3307 -0.2333
24738W        W42262   8.653   0.086   0.906 -0.2172 -0.4943 -0.0624
24739W        W42263   1.145  14.847   4.661 -0.2802  0.1062 -0.0017
24740W        W42264  16.076  14.662  11.239 -0.0496 -0.1440  0.2077
24741W        W42265   5.580  16.965   2.640  0.0212  0.0583 -0.0917
24742W        W42266   6.737  14.577  14.741  0.0164  0.2073 -0.2305
24743W        W42267  10.615   2.402   1.107  0.3319  0.0892 -0.0990
24744W        W42268  11.864  18.302  15.417  0.1538 -0.3389 -0.2896
24745W        W42269  10.520   6.292  13.526  0.0320  0.0040 -0.0174
24746W        W42270   6.350   7.772   1.133 -0.0485 -0.0144 -0.0773
24747W        W42271  10.812  18.350   2.894  0.0864 -0.1934 -0.0438
24748W        W42272   1.850   8.642  14.028 -0.0922 -0.0090 -0.0386
24749W        W42273   7.816   4.643   5.377 -0.1735 -0.0143 -0.0251
24750W        W42274  11.677   2.949   1.920 -0.0668  0.1828  0.0272
24751W        W42275   8.777  11.612  15.413  0.1547  0.3368 -0.0272
24752W        W42276   6.898  10.752  12.412  0.1481  0.1497 -0.2357
24753W        W42277  16.431  17.267   2.759 -0.5269 -0.1797 -0.1539
24754W        W42278  17.139  15.939  13.789 -0.1608 -0.0609 -0.1068
24755W        W42279  15.953   8.206  11.961 -0.0784 -0.1752 -0.1825
24756W        W42280   1.988  13.183   1.221 -0.0136 -0.0785 -0.1953
24757W        W42281   2.352   5.353  11.165 -0.1177  0.1770 -0.0342
24758W        W42282  14.802  10.455   1.538 -0.0554  0.1528 -0.1471
24759W        W42283   6.787   6.593   1.526  0.0383 -0.1810 -0.5109
24760W        W42284   3.976   1.520  12.972 -0.0756 -0.1393 -0.1336
24761W        W42285  15.449  12.303   2.548  0.2240 -0.1238  0.3001
24762W        W42286  10.225   4.101  14.736 -0.0054 -0.1669 -0.4756
24763W        W42287  10.055  18.216  12.945  0.0034 -0.0544 -0.3956
24764W        W42288  13.283  13.364  15.658 -0.0756  0.1820  0.0361
24765W        W42289  16.013   4.098  13.187  0.1377  0.1269  0.2846
24766W        W42290  17.006  11.374  11.003 -0.4313  0.1546 -0.0162
24767W        W42291  13.781   6.012   3.955  0.0546  0.0268  0.0640
24768W        W42292  14.193  13.734   1.623 -0.1999  0.0228  0.1912
24769W        W42293   1.538  10.031   2.324  0.0943 -0.0432 -0.0593
24770W        W42294  17.573   2.656  14.777 -0.1011 -0.1927 -0.0906
24771W        W42295  12.067  18.207  11.505 -0.2706 -0.0775 -0.1451
24772W        W42296  10.536  11.631   3.031 -0.0027  0.0434  0.1554
24773W        W42297  15.386   0.980   3.807 -0.2334 -0.2963 -0.0463
24774W        W42298  15.244   9.834   1.415 -0.1207 -0.2257  0.0266
24775W        W42299   3.352  11.654  13.085 -0.2299  0.0548  0.4505
24776W        W42300   4.896  12.525  14.353 -0.2278 -0.0756  0.2874
24777W        W42301  12.688  11.091  13.665 -0.0144  0.1359  0.1986
24778W        W42302  17.059  14.527   6.062  0.0174 -0.1197  0.0980
24779W        W42303   8.926   7.751  12.484  0.0073  0.1305  0.2003
24780W        W42304  10.106   7.136   4.263 -0.0927 -0.0848 -0.0830
24781W        W42305  11.424  12.216  15.042 -0.2643 -0.2217 -0.1442
24782W        W42306   3.713  16.760   0.444 -0.0522  0.2343  0.2702
24783W        W42307  12.182   4.206  13.287  0.1644  0.1946  0.1121
24784W        W42308  17.610   7.325   3.401 -0.1116  0.1239 -0.1677
24785W        W42309  12.960  16.091  13.798  0.1844  0.1860  0.1664
24786W        W42310   4.113   8.869   3.194 -0.0217 -0.0102  0.1567
24787W        W42311  12.975   8.560  12.275  0.3627 -0.0036 -0.1314
24788W        W42312  11.217   0.273   2.840  0.1465 -0.0043  0.0336
24789W        W42313   8.069  15.392   4.717 -0.0643 -0.2255 -0.2419
24790W        W42314   4.029   1.138   0.319  0.2549 -0.1529 -0.1852
24791W        W42315   4.760   0.468  15.260  0.1121 -0.0051  0.1894
24792W        W42316   4.991   2.236   3.836  0.1439  0.1461  0.0142
24793W        W42317  13.535   8.921  11.183  0.2504 -0.1152  0.0589
24794W        W42318  12.320   6.511  10.326  0.2471 -0.0634 -0.1043
24795W        W42319  14.209  12.371   0.455  0.0406 -0.2088 -0.4905
24796W        W42320  16.428  17.918  11.813  0.0932  0.0126  0.1263
24797W        W42321  17.850   1.985   1.380 -0.0683  0.0622 -0.2095
24798W        W42322   5.471   1.194   4.639  0.3455 -0.1271 -0.1390
24799W        W42323  12.447  13.158   3.252  0.2843  0.2504 -0.2564
24800W        W42324  17.489  14.354  12.350 -0.0498  0.1185  0.0582
24801W        W42325   0.468   3.185   0.188  0.2752  0.3641 -0.1030
24802W        W42326   1.490  13.758   2.229  0.0842 -0.2681  0.0399
24803W        W42327   2.717   8.894  12.763 -0.1649  0.1558 -0.0402
24804W        W42328   0.776   5.199  13.561  0.2697  0.0587 -0.0140
24805W        W42329  11.645   4.314  11.976  0.1435  0.0077  0.0013
24806W        W42330   6.320   7.452  11.366  0.0750  0.2671  0.2595
24807W        W42331   9.235   0.333  14.873  0.1592 -0.1106 -0.0340
24808W        W42332   2.869  13.438  12.695  0.0676  0.2662  0.2761
24809W        W42333  11.914  12.185   0.954  0.2796  0.1751  0.2467
24810W        W42334  14.727   5.933   1.220  0.1211 -0.1235 -0.0285
24811W        W42335   2.578   8.301  15.595  0.2756  0.3149 -0.0733
24812W        W42336   6.821   0.441  10.277  0.1062  0.1983 -0.2571
24813W        W42337   3.563  17.139   3.518  0.2032  0.1099 -0.1270
24814W        W42338  12.597   3.115  14.419  0.1358  0.0590 -0.3751
24815W        W42339   5.447   4.246   9.940 -0.0333 -0.1462  0.3272
24816W        W42340  17.263   0.019   2.582  0.1450 -0.2853  0.0547
24817W        W42341   2.295  17.671  14.723  0.2553 -0.2598  0.2268
24818W        W42342  13.394   2.366   2.542  0.0014  0.1536 -0.2624
24819W        W42343   8.621   4.804  12.088 -0.1472  0.1650 -0.1381
24820W        W42344   9.193  11.158   2.748 -0.2060 -0.1175  0.1277
24821W        W42345  14.531   0.205  11.115  0.1312  0.0651 -0.2806
24822W        W42346  13.909  14.859  12.473  0.1544  0.0852  0.1260
24823W        W42347   2.276   3.441  11.868 -0.1219  0.1904  0.1282
24824W        W42348  18.457  16.066   4.173 -0.0057  0.1161  0.1332
24825W        W42349  11.663  15.146   1.850  0.0837  0.0552  0.1068
24826W        W42350  11.301   4.897   0.758 -0.1972  0.3103  0.0279
24827W        W42351  15.122  12.339  14.127 -0.0924 -0.2919 -0.3434
24828W        W42352  11.416  16.658   5.256 -0.0061  0.0828  0.0245
24829W        W42353   0.323  17.416  14.019 -0.0542  0.1900  0.1043
24830W        W42354  15.742  11.905  11.492  0.0582  0.0634 -0.1412
24831W        W42355   3.151  14.543  13.094 -0.2459 -0.1742  0.0164
24832W        W42356  12.169  11.145  13.033  0.1803  0.0984  0.1038
24833W        W42357   7.302   6.788  13.120  0.0618 -0.0830 -0.0792
24834W        W42358   1.455   1.480  14.351  0.0392  0.0925  0.2427
24835W        W42359  10.732   6.738   2.926  0.2332  0.1544  0.1788
24836W        W42360  16.366   2.602   3.281  0.1267 -0.3062  0.3606
24837W        W42361   3.687   9.234  13.842 -0.0060 -0.1319 -0.1501
24838W        W42362   7.659   0.763  10.214 -0.0627  0.1070  0.0354
24839W        W42363   5.564  11.264   1.556 -0.1080  0.3176  0.1807
24840W        W42364   8.613   1.486  11.923 -0.2427  0.0330  0.0270
24841W        W42365  16.617   1.729  14.211 -0.1243  0.2027 -0.3621
24842W        W42366   0.114  12.007  15.067 -0.0143 -0.0890 -0.2766
24843W        W42367  13.118  14.882  14.449 -0.0908  0.1421 -0.1547
24844W        W42368   7.161   8.221   4.592 -0.2574  0.0103 -0.0247
24845W        W42369   7.998  16.295  10.968 -0.1237 -0.3086 -0.1365
24846W        W42370   9.375  11.550  13.262 -0.0476 -0.0099  0.0327
24847W        W42371  10.978   2.010  12.769  0.0140 -0.1640 -0.0197
24848W        W42372  12.989   9.596   3.447 -0.0893 -0.0316 -0.0230
24849W        W42373   5.271   5.580   0.002  0.3569  0.1759  0.3494
24850W        W42374  13.004  10.647   1.793 -0.0398  0.1873  0.4689
24851W        W42375   9.660   8.264   3.548  0.0017 -0.4145  0.2074
24852W        W42376  12.946  17.462   1.824  0.0501  0.0605 -0.3481
24853W        W42377   0.860   6.934  12.257  0.1171  0.1160 -0.0342
24854W        W42378  12.535  11.108   2.678 -0.3263  0.0605  0.0298
24855W        W42379  11.259  11.870   4.944  0.1168 -0.0869 -0.1170
24856W        W42380  11.016   0.072  15.189 -0.0215  0.1737  0.1011
24857W        W42381  11.003   6.613   0.909 -0.1855  0.1362  0.0601
24858W        W42382   6.283   6.131  11.740  0.1998  0.1219  0.1595
24859W        W42383  12.955  10.052  14.682 -0.3637 -0.1030  0.0607
24860W        W42384  10.052   3.752  11.702  0.0074 -0.0287  0.2653
24861W        W42385   7.020  18.209   2.653  0.5391 -0.1792 -0.0564
24862W        W42386   8.711  14.496  14.651  0.1010 -0.0508  0.0041
24863W        W42387   2.237   2.345   0.916  0.1142 -0.3425 -0.2038
24864W        W42388  13.325  10.008   4.860 -0.1180 -0.0828  0.2171
24865W        W42389   7.226  13.429  13.455 -0.1817  0.1552 -0.0563
24866W        W42390   1.956  16.179  10.323 -0.0597 -0.1755 -0.1289
24867W        W42391   4.028   9.409   9.720 -0.0890  0.0528 -0.1439
24868W        W42392  14.907  14.914  15.597  0.2079  0.3004 -0.2552
24869W        W42393   7.332   2.380   3.990  0.0969 -0.0644 -0.1706
24870W        W42394   1.458  12.381  12.339 -0.0098  0.1777 -0.0507
24871W        W42395   0.847  15.220   0.382 -0.0475 -0.0264 -0.0738
24872W        W42396  16.112   3.603   0.406  0.2425  0.1740  0.2491
24873W        W42397   7.369   4.934  12.405 -0.1011  0.0766  0.0140
24874W        W42398   7.072  17.340   3.221 -0.0872  0.1963 -0.2132
24875W        W42399   6.864  18.416  11.899  0.0665 -0.0784 -0.1538
24876W        W42400  15.746  14.406  15.283  0.4714  0.1143 -0.2234
24877W        W42401   0.543  14.370  11.494  0.1460 -0.1204 -0.0899
24878W        W42402   2.587   7.847   0.747  0.1398  0.0693  0.0744
24879W        W42403   1.039  18.004  15.314  0.0909  0.0323 -0.0204
24880W        W42404   7.909  10.834  14.103  0.0112  0.0283 -0.3494
24881W        W42405   7.063  14.561  11.473  0.0441  0.2267 -0.2065
24882W        W42406   5.070   5.776  11.495 -0.2149 -0.2734 -0.2795
24883W        W42407   9.362   2.560  12.158 -0.1474 -0.0244 -0.0362
24884W        W42408   6.411   7.024  14.151  0.0562  0.0051  0.2040
24885W        W42409   1.150  11.407   2.385  0.1201  0.1324 -0.1039
24886W        W42410  12.905   8.535  15.583 -0.1269  0.1804 -0.5133
24887W        W42411   4.229  14.226  11.936  0.2934  0.1484 -0.0306
24888W        W42412   8.591   3.934   1.960 -0.3155 -0.0803 -0.1903
24889W        W42413  10.497  11.909  15.403  0.0687 -0.2318  0.2579
24890W        W42414  18.061  17.483   2.302  0.0440 -0.0748 -0.1489
24891W        W42415  17.576   9.187   1.469  0.1227  0.3188 -0.0246
24892W        W42416  15.625  10.778  13.811  0.2833 -0.2152  0.0967
24893W        W42417  14.891  10.506  14.432 -0.0977  0.1543 -0.0272
24894W        W42418  15.213   6.552   0.213  0.1491 -0.2488  0.0446
24895W        W42419   9.856  13.615  11.088 -0.5004  0.0968 -0.1522
24896W        W42420  12.316   3.592   1.681 -0.1283 -0.1813 -0.1873
24897W        W42421  13.169  16.794  15.159  0.4123 -0.0179 -0.1506
24898W        W42422  17.214  15.479   4.243 -0.0198  0.0467 -0.0343
24899W        W42423  13.167  14.668  13.594 -0.0885 -0.2318 -0.0586
24900W        W42424   2.987  17.776   3.219 -0.1569  0.2334 -0.0627
24901W        W42425   3.075   2.244  11.179 -0.0942  0.1093  0.3010
24902W        W42426   5.728   1.616  12.712 -0.1599  0.2590  0.0231
24903W        W42427  15.247   3.560   0.728 -0.0135  0.3438 -0.1870
24904W        W42428   4.482   8.608   4.523  0.2506  0.4036 -0.0189
24905W        W42429   4.038   4.563   5.704 -0.1590 -0.0111  0.0719
24906W        W42430  13.308  10.021  11.879 -0.0331  0.2457  0.0854
24907W        W42431   4.019  10.641  10.607  0.0605 -0.3113 -0.0326
24908W        W42432  13.165  10.323   0.489  0.0280 -0.1495 -0.1351
24909W        W42433  17.808  11.516  15.527 -0.0731  0.1284  0.1100
24910W        W42434  14.560   5.234   2.386  0.0145 -0.0318 -0.1341
24911W        W42435   6.803   6.485   0.954  0.2509  0.1777  0.4755
24912W        W42436  10.582   4.039  10.895 -0.0286 -0.1055  0.1674
24913W        W42437   3.590  13.713  14.162 -0.1676 -0.0823 -0.0671
24914W        W42438   0.904   3.517  12.467  0.4941  0.0410 -0.1424
24915W        W42439   8.889   9.014  13.287  0.5664  0.1488  0.2906
24916W        W42440  10.416  14.548   2.830 -0.0854  0.3411 -0.0252
24917W        W42441  14.706  10.499   0.144  0.1078  0.1371 -0.4673
24918W        W42442   4.167  14.385   1.477  0.1556  0.0817  0.1175
24919W        W42443  15.480   5.149   3.928  0.0584 -0.0708  0.1671
24920W        W42444   6.034  10.679   4.677 -0.1247 -0.1679  0.0125
24921W        W42445   0.207  11.205  11.351 -0.1948 -0.0380 -0.2770
24922W        W42446   7.362  15.565   4.159  0.1210 -0.1123 -0.2369
24923W        W42447  16.832   5.176  13.739  0.1150 -0.0494  0.1328
24924W        W42448  17.350  17.861   2.579 -0.1290 -0.1186 -0.2083
24925W        W42449  15.902  11.710   2.837  0.2593 -0.1946 -0.0858
24926W        W42450   1.674  11.635  10.569  0.1881  0.4963 -0.1327
24927W        W42451  12.677   6.392  12.985 -0.0467 -0.1525  0.0131
24928W        W42452  12.606  18.015   3.726  0.2245  0.1972  0.1484
24929W        W42453   2.290  12.608  12.585 -0.2506 -0.1535  0.2500
24930W        W42454  17.150   8.344   2.932  0.2765 -0.0034 -0.2625
24931W        W42455   1.763  13.200  15.463  0.0666 -0.1527  0.1409
24932W        W42456  12.340   6.574  14.758  0.2328  0.2400 -0.2608
24933W        W42457   9.808   9.209  10.735  0.1386 -0.1758 -0.0073
24934W        W42458  18.206   8.227  12.682  0.1197 -0.3813 -0.0636
24935W        W42459  15.874   8.936   0.364 -0.2644  0.3627 -0.3006
24936W        W42460   3.162   5.875   2.327  0.3819 -0.0774 -0.4616
24937W        W42461   6.469  14.184  11.319  0.0109 -0.1815  0.0322
24938W        W42462  14.703   1.522  11.215 -0.4067  0.3133  0.0285
24939W        W42463   7.369   1.113   3.348 -0.2547 -0.1751  0.0586
24940W        W42464  16.982   6.561   3.160  0.1458 -0.2031  0.0880
24941W        W42465  11.965   6.894  10.941 -0.3396  0.3830  0.0852
24942W        W42466   4.375   8.609  12.948  0.0583 -0.0002 -0.3676
24943W        W42467   6.745   2.325  12.727  0.0871 -0.4393 -0.1053
24944W        W42468   8.158  17.648  14.152 -0.1014  0.2438  0.0804
24945W        W42469   5.480   0.396   4.554 -0.1302 -0.2469 -0.1877
24946W        W42470  11.829   6.216  11.119  0.2155  0.3178  0.2121
24947W        W42471  16.951   9.511  11.802 -0.0473 -0.2683  0.2532
24948W        W42472   6.385  11.058   1.953 -0.3881 -0.3697  0.0188
24949W        W42473  14.756  12.755  14.219 -0.1740 -0.3156 -0.0657
24950W        W42474  13.643   1.161  14.433  0.2069  0.2019  0.3669
24951W        W42475   6.577  14.285   2.712  0.3025 -0.1936  0.0788
24952W        W42476   4.775   6.260   3.989  0.0811 -0.0721  0.4585
24953W        W42477   9.955   1.812   3.643 -0.0094 -0.0104  0.1321
24954W        W42478   5.020   8.106   2.186 -0.0126  0.0192 -0.2354
24955W        W42479   3.048  10.873   3.024 -0.1685  0.0610  0.2031
24956W        W42480   5.197   3.844  11.951 -0.1360 -0.1711 -0.0295
24957W        W42481   0.642   5.916  13.221  0.4367 -0.2370  0.0998
24958W        W42482  16.563  15.977  13.931 -0.1547 -0.1275  0.2047
24959W        W42483  13.666  13.877   0.830  0.1883  0.2082  0.1396
24960W        W42484  16.731   1.873  15.623  0.2688 -0.1147  0.0752
24961W        W42485  17.752   6.365   4.319 -0.0004  0.0492  0.0730
24962W        W42486  14.634   3.378   3.844 -0.1732  0.0446  0.0152
24963W        W42487  14.829   8.309   4.553  0.0063 -0.1756  0.3124
24964W        W42488   1.636   9.032  15.050  0.1614  0.4232 -0.0873
24965W        W42489   0.608  11.714  15.424 -0.3681  0.2794 -0.3206
24966W        W42490   4.977   1.383  11.973 -0.0738 -0.3847 -0.0524
24967W        W42491   8.345  15.526   1.275  0.0631  0.0499 -0.2729
24968W        W42492  11.699   4.488   0.737 -0.0069 -0.0618 -0.0395
24969W        W42493   5.642  18.176   3.630 -0.0176 -0.0967 -0.4490
24970W        W42494   9.907  14.857   0.364  0.2972  0.1255  0.2143
24971W        W42495   2.133   4.320  15.585  0.0391 -0.0243 -0.3716
24972W        W42496   0.792  13.348  12.763 -0.0207  0.1964 -0.0262
24973W        W42497   4.170   6.399  12.464  0.3401  0.1141 -0.1181
24974W        W42498   4.721   3.047   4.282  0.1873 -0.0023 -0.2818
24975W        W42499   7.280  17.253   0.305  0.2716  0.2858 -0.0882
24976W        W42500   3.630  15.237   3.272  0.5830 -0.0341 -0.0896
24977W        W42501  15.175  17.368  11.341  0.0687  0.0512 -0.0782
24978W        W42502   7.563   2.234  12.345  0.2574  0.1438  0.0040
24979W        W42503   1.996   1.629   3.694 -0.0288 -0.0160 -0.1265
24980W        W42504  15.479   6.211   5.487  0.0961  0.2525  0.2737
24981W        W42505   9.739   7.021  12.125 -0.1481  0.0615  0.1477
24982W        W42506   3.528   0.347   0.896 -0.0307 -0.2566 -0.1064
24983W        W42507   4.642   6.304  13.252 -0.1750 -0.2010  0.0128
24984W        W42508   7.371   1.475   2.997 -0.4253 -0.1478 -0.0390
24985W        W42509  15.975  16.764  14.936 -0.2328  0.2583  0.3104
24986W        W42510   4.593  15.122  12.014 -0.1707  0.1539  0.1280
24987W        W42511   5.357   8.381  15.290 -0.1441 -0.3311  0.1656
24988W        W42512  10.989  16.819   2.193 -0.3779  0.0179 -0.0395
24989W        W42513   1.496  15.257  10.717  0.1515 -0.0503  0.0916
24990W        W42514  13.323   1.186   0.683  0.2197  0.1374 -0.0031
24991W        W42515   0.129   2.818   1.478 -0.0811 -0.1934 -0.1224
24992W        W42516  13.946   4.325  14.746  0.2175 -0.0185  0.0842
24993W        W42517  16.003   8.289  14.076  0.0677  0.2804  0.1101
24994W        W42518   0.243  18.218   3.273 -0.0254  0.1100 -0.1211
24995W        W42519   3.545   9.765  13.542 -0.3782 -0.3683  0.1456
24996W        W42520  12.165   1.813   4.798 -0.1334 -0.1654  0.0154
24997W        W42521  10.295  13.607   2.820  0.1004  0.0537 -0.1096
24998W        W42522  13.998  17.509  13.269  0.1034 -0.2729  0.0427
24999W        W42523  16.986  17.727  15.605  0.2863  0.1271 -0.1251
25000W        W42524  11.144   8.631   3.074 -0.0636 -0.1678 -0.2244
25001W        W42525  14.200   0.691  13.808 -0.1270  0.0862  0.0967
25002W        W42526   7.003  13.006  13.804  0.2898 -0.3954 -0.3200
25003W        W42527   8.557   3.301  15.039 -0.0389 -0.1738  0.2160
25004W        W42528  10.841   9.851  11.379 -0.0471  0.0069  0.0134
25005W        W42529  17.826  10.320   5.732  0.3476 -0.2432  0.0607
25006W        W42530   4.936   5.399   2.492  0.1363  0.1221 -0.0996
25007W        W42531   5.572   6.575  12.140  0.2201 -0.1220 -0.0571
25008W        W42532   5.785   8.509   3.539 -0.1044 -0.0104  0.0623
25009W        W42533   8.097   9.333  12.161 -0.0977 -0.0747 -0.0070
25010W        W42534  18.104  13.683   1.871  0.0237 -0.1042 -0.2945
25011W        W42535  17.265  18.059   0.100  0.1043 -0.1472 -0.2547
25012W        W42536   6.178  16.428   2.272  0.2899  0.0682 -0.0334
25013W        W42537  10.208   2.546   1.491  0.0873  0.4904 -0.0558
25014W        W42538  15.050  15.665   3.391 -0.0781 -0.2988 -0.2254
25015W        W42539  15.639   9.565   1.525 -0.2447 -0.1442 -0.2613
25016W        W42540   3.876  12.394  15.344 -0.1281 -0.0466  0.2788
25017W        W42541  10.699  10.182  11.914  0.0319  0.0668 -0.2972
25018W        W42542  10.631  18.345  13.762 -0.2850  0.0847 -0.2620
25019W        W42543   7.364   3.529  14.551 -0.2901 -0.2300 -0.1109
25020W        W42544   5.338  18.148  12.902 -0.2156  0.1075  0.0450
25021W        W42545   4.382   4.115  12.578 -0.1088 -0.0160 -0.0121
25022W        W42546  14.479  11.823   1.799 -0.0245  0.0247 -0.0295
25023W        W42547  15.518  10.831  13.302 -0.3389 -0.4711 -0.1405
25024W        W42548   3.442   6.393  11.966 -0.1600  0.0022  0.0078
25025W        W42549  12.641   1.245   3.419  0.1856 -0.1906  0.3416
25026W        W42550  10.103   2.076  15.219  0.0309  0.0770 -0.2580
25027W        W42551   8.915   5.908  12.842  0.0191 -0.1493 -0.2453
25028W        W42552  11.619   7.958  15.123 -0.2146 -0.0040  0.1280
25029W        W42553  13.174   4.672  15.049 -0.1593  0.2610 -0.0727
25030W        W42554   8.322   0.539   3.811  0.1119 -0.0067  0.1159
25031W        W42555  16.558  11.822  12.203  0.2859  0.0241  0.1142
25032W        W42556   9.690  16.066  14.521 -0.3588  0.1869 -0.0713
25033W        W42557   4.374   3.028  13.117  0.0035 -0.1374  0.2995
25034W        W42558   1.049  16.236   2.402  0.0737  0.1592  0.4231
25035W        W42559   6.486   5.280  10.969 -0.1280 -0.0674 -0.0847
25036W        W42560  12.763   6.726  11.178 -0.0748  0.3067 -0.2711
25037W        W42561  10.570  15.900   4.881 -0.0746 -0.1227 -0.1013
25038W        W42562   9.136  16.867  11.959 -0.0074 -0.0870  0.1718
25039W        W42563   4.611  15.935   1.885  0.0129 -0.0766  0.0920
25040W        W42564   1.474   7.103  12.427  0.0619  0.0139 -0.2397
25041W        W42565  10.409   2.005   1.562 -0.0874 -0.1480 -0.0072
25042W        W42566   5.083  12.405   3.996  0.0734 -0.0961  0.1077
25043W        W42567   9.684   3.192  13.355  0.2474  0.2002 -0.3368
25044W        W42568  16.051  13.452  15.246 -0.1009  0.3592  0.0653
25045W        W42569   6.954  13.280   0.215 -0.0197  0.3975  0.2522
25046W        W42570   8.180  15.761   0.369 -0.3646 -0.0880 -0.3405
25047W        W42571  16.185   0.537   0.923 -0.2587 -0.0895  0.2702
25048W        W42572   4.161   9.367   2.957 -0.3621 -0.3056 -0.3159
25049W        W42573  11.916  15.754  15.066  0.1862 -0.0430  0.3207
25050W        W42574   1.028  14.563   1.335 -0.3079 -0.1935 -0.2510
25051W        W42575  16.850   0.426  13.540  0.0983  0.0251 -0.0148
25052W        W42576   0.201  12.198   1.348  0.3433  0.4159 -0.2583
25053W        W42577   4.631  16.797   0.332 -0.7081  0.0167  0.3300
25054W        W42578  15.326  16.340   3.984  0.2749 -0.2331 -0.0952
25055W        W42579  16.350   8.497  13.237  0.0532 -0.2335 -0.1030
25056W        W42580   6.955  17.190   2.682 -0.1591 -0.2793  0.1876
25057W        W42581   9.117   5.041  11.914 -0.0765 -0.1943  0.1206
25058W        W42582  12.991   0.969  11.511  0.1522  0.0068  0.0212
25059W        W42583   5.278   0.932  12.945  0.1827  0.1605 -0.1675
25060W        W42584  17.927   7.169  15.621  0.1562  0.2189  0.2842
25061W        W42585   0.835  16.719  11.413  0.2946 -0.2978 -0.2142
25062W        W42586  13.618   2.238  13.583 -0.2308  0.1631  0.1074
25063W        W42587   2.963  11.340  13.244 -0.2049 -0.1577  0.3779
25064W        W42588   6.465  17.844   2.042  0.0859  0.0748  0.1850
25065W        W42589   2.506   9.269  12.435 -0.0947 -0.0452 -0.2052
25066W        W42590  15.130   1.348   3.578 -0.0244 -0.4083  0.0180
25067W        W42591  14.406   8.239  15.124 -0.0225 -0.1129 -0.3145
25068W        W42592   7.592   2.869  11.064  0.3427  0.0341 -0.1864
25069W        W42593  15.158   3.281  15.364  0.2541 -0.2389 -0.1242
25070W        W42594  14.007   7.393   3.710 -0.2144  0.0052  0.1571
25071W        W42595   5.597   2.431   2.723 -0.3148  0.0609 -0.2362
25072W        W42596   0.341   5.747  11.707 -0.2116  0.0491 -0.0664
25073W        W42597  10.321  11.388   1.301 -0.1296  0.0558 -0.2180
25074W        W42598  18.042  14.191   1.197 -0.2926 -0.0571 -0.2939
25075W        W42599  11.853   1.806   3.472  0.0387  0.1530  0.1313
25076W        W42600  12.181  18.217   0.993  0.3581 -0.2486 -0.1695
25077W        W42601  13.954   3.501   3.022  0.1715  0.1701 -0.1401
25078W        W42602  14.758   6.114  13.270 -0.0177 -0.1540  0.2377
25079W        W42603  13.042   0.175  13.334 -0.1154 -0.0815  0.1076
25080W        W42604  13.002  14.375   4.081 -0.0068  0.4461 -0.1515
25081W        W42605   0.275  17.741   3.064  0.1429 -0.1601 -0.1071
25082W        W42606  13.836  10.483   4.029 -0.0128  0.0133 -0.1518
25083W        W42607  10.559  15.569   2.514 -0.0279 -0.1815 -0.5596
25084W        W42608   3.945   3.968   2.779 -0.0800 -0.1248 -0.3984
25085W        W42609   0.493   7.224   2.606  0.2136  0.1529 -0.4268
25086W        W42610   6.606  15.081   0.907 -0.2498  0.4542 -0.0797
25087W        W42611  17.691   3.281  13.554  0.0278  0.0592 -0.1783
25088W        W42612   4.910  17.136   4.374 -0.1259 -0.0272 -0.1473
25089W        W42613  11.963  15.751  11.507  0.2940  0.1375  0.0215
25090W        W42614   6.742   8.776  12.736 -0.0458  0.3590 -0.0907
25091W        W42615  16.861   1.104  13.430  0.1389  0.0287 -0.0207
25092W        W42616  15.254   3.217   4.530 -0.0914 -0.0489  0.1323
25093W        W42617  12.707   6.835   0.346 -0.4233  0.2837  0.2808
25094W        W42618  18.438  13.277   4.359  0.0133 -0.1425  0.1717
25095W        W42619   0.222   9.521   0.899 -0.5972  0.1169  0.0560
25096W        W42620   9.109   1.251  15.280  0.2990 -0.3799  0.2338
25097W        W42621   6.835   2.642  13.931 -0.0513 -0.0992  0.0619
25098W        W42622   1.024   9.148  14.859  0.0158 -0.0835 -0.0610
25099W        W42623   3.947   4.354   1.349  0.0816  0.0879  0.0707
25100W        W42624   6.778  14.808  13.015  0.1036 -0.2335  0.1493
25101W        W42625  10.241   9.905   0.805  0.1336  0.0967 -0.0602
25102W        W42626   8.937   2.890  12.152 -0.0588 -0.2699 -0.0573
25103W        W42627   1.016   1.977  13.015 -0.1291 -0.0486 -0.1769
25104W        W42628   7.013  16.381   4.393 -0.3642  0.3753 -0.0462
25105W        W42629   8.368   9.362  15.467  0.1482 -0.0650 -0.0591
25106W        W42630   7.639  11.296  15.069 -0.2524 -0.1015 -0.1835
25107W        W42631  12.484   4.965   2.343 -0.4121 -0.1469 -0.1015
25108W        W42632   2.677   2.456  13.078  0.2761  0.1782 -0.3791
25109W        W42633  12.196  12.377  15.383 -0.1267  0.0360  0.2147
25110W        W42634   8.500  17.082  11.105 -0.1660 -0.0255  0.1735
25111W        W42635  17.017   0.575   2.503  0.1576  0.0887 -0.1377
25112W        W42636  13.218  12.704  12.312  0.2142 -0.3444  0.2005
25113W        W42637  16.143  11.257   3.744  0.2379  0.4904  0.1706
25114W        W42638  10.565  12.531  14.119 -0.0463 -0.0782  0.0060
25115W        W42639   7.281  17.623  15.612 -0.2987 -0.1108 -0.3263
25116W        W42640   9.585  17.853  11.383  0.1182  0.2248 -0.0698
25117W        W42641  16.415   6.418   0.608  0.0561  0.0804  0.1479
25118W        W42642   5.538   6.260   3.561 -0.0495  0.0946  0.1331
25119W        W42643  10.517   7.291   4.474 -0.2550 -0.0236  0.1136
25120W        W42644   9.546  17.868  13.617 -0.1420  0.0124 -0.3853
25121W        W42645   4.424  10.218   1.290 -0.0990 -0.4583 -0.3967
25122W        W42646  14.555   1.889  15.117  0.1279  0.0952 -0.0463
25123W        W42647   9.797  15.222   2.740  0.3115 -0.1349  0.0799
25124W        W42648   0.347  15.744  13.020 -0.2070 -0.0246 -0.3155
25125W        W42649   6.978   5.989  11.423  0.2515  0.0420  0.0216
25126W        W42650   3.782   9.170  11.060  0.0202 -0.0122  0.2807
25127W        W42651   9.793  14.515   1.590  0.1080 -0.0883 -0.0758
25128W        W42652  17.161  16.320   1.640  0.0848  0.2856  0.0763
25129W        W42653   8.859  15.303  13.014 -0.1810  0.0226 -0.1719
25130W        W42654  10.995  14.706  11.619 -0.1805  0.0035 -0.2055
25131W        W42655   9.325  14.499  12.499 -0.0798  0.0159 -0.2264
25132W        W42656  15.517  13.482  15.209  0.0942  0.0018  0.3839
25133W        W42657  12.065  16.178   2.934 -0.0633 -0.0959 -0.0492
25134W        W42658   8.528   8.973   4.810 -0.2065 -0.2108 -0.3983
25135W        W42659  17.102  17.202   2.082 -0.0790  0.2137  0.0473
25136W        W42660  15.126  10.003  12.468  0.0415  0.2644 -0.0040
25137W        W42661  13.233   7.819  13.805  0.1179  0.1294  0.0106
25138W        W42662  10.122   2.295   3.557  0.0234 -0.1413  0.0535
25139W        W42663   8.993   0.606   3.004 -0.0637  0.0951  0.0941
25140W        W42664   5.063  11.931  13.387 -0.2596  0.1796 -0.0326
25141W        W42665   2.338   6.178  11.042  0.1959  0.1765  0.0883
25142W        W42666   0.947  17.627  15.691 -0.0313  0.4041  0.0323
25143W        W42667   0.853   4.716  11.548  0.0165  0.0057 -0.0031
25144W        W42668  12.396   7.084  11.268  0.1214  0.0128  0.1018
25145W        W42669   9.247   7.295  15.574  0.4755 -0.0730  0.1626
25146W        W42670   4.777  17.309   2.188  0.0859  0.0194  0.1281
25147W        W42671   6.492   5.786  15.542 -0.0958  0.2027 -0.1736
25148W        W42672   0.470   4.865  13.320  0.2693  0.0274  0.1794
25149W        W42673   3.575   9.653   4.706 -0.2487 -0.2396  0.1839
25150W        W42674   3.734   9.921   1.923 -0.0791  0.0132 -0.0746
25151W        W42675  12.087   6.562  15.171 -0.0571  0.0645 -0.1296
25152W        W42676  13.668   7.447  12.768  0.2047  0.0804 -0.0283
25153W        W42677   1.074   3.584   3.482 -0.0776 -0.0890 -0.2154
25154W        W42678  12.100   2.056   0.725  0.0252 -0.0959 -0.2364
25155W        W42679   7.590  12.324  12.756 -0.0098  0.0042 -0.1768
25156W        W42680   7.838   0.901  13.714  0.0731  0.0300 -0.3287
25157W        W42681   2.802   9.432   3.807  0.0080  0.2858  0.0968
25158W        W42682  12.253  15.559  15.378 -0.2368 -0.0626  0.1001
25159W        W42683   5.622  11.845  11.767 -0.0318 -0.1652 -0.2524
25160W        W42684   1.812  15.538  15.120 -0.0326  0.1361 -0.3372
25161W        W42685  16.046   7.641   4.002 -0.3182  0.1463  0.0943
25162W        W42686   9.313   7.273  11.950 -0.1507  0.1331  0.2583
25163W        W42687  10.029  11.931  12.703 -0.0133  0.0165 -0.2858
25164W        W42688  13.086   9.345  10.831 -0.0132  0.2933 -0.1642
25165W        W42689  14.658   5.414   2.937 -0.2049 -0.2282 -0.1270
25166W        W42690  15.726  13.558  12.310 -0.4706 -0.1849 -0.3022
25167W        W42691   5.657   0.195   1.065  0.0648  0.4512  0.2188
25168W        W42692  13.538   5.677  12.316  0.1025 -0.0042 -0.5197
25169W        W42693  14.283  15.105   0.528  0.2095 -0.1258 -0.1831
25170W        W42694  10.523   3.262   4.919 -0.1511 -0.1852 -0.1249
25171W        W42695   0.028  12.111  11.208  0.0951  0.0863  0.0553
25172W        W42696  16.700  11.804   2.145 -0.1379  0.2520  0.1228
25173W        W42697   9.681   2.585   1.230 -0.1763  0.1877  0.0961
25174W        W42698   6.442  13.069   5.148 -0.0435 -0.0650  0.0171
25175W        W42699   8.031   8.845   3.224 -0.0707 -0.2275 -0.0464
25176W        W42700   5.687  15.265  12.292 -0.4421 -0.0282  0.0079
25177W        W42701   3.259  14.118  10.732  0.3777  0.1270  0.0979
25178W        W42702   7.221  18.140   3.719  0.1756 -0.0863 -0.0999
25179W        W42703   9.387  12.514   2.972 -0.0499  0.2153  0.1161
25180W        W42704  12.654  14.426  15.497  0.1825  0.0338  0.1270
25181W        W42705   5.334  11.444   3.661 -0.2392 -0.2628  0.0828
25182W        W42706   8.738   1.170  13.761  0.3047 -0.0206 -0.1423
25183W        W42707   7.049  13.907   2.397  0.0899 -0.1420  0.0150
25184W        W42708   4.703   0.871  12.249  0.0701 -0.3431 -0.1637
25185W        W42709  10.691   1.962   3.038 -0.2081 -0.2068  0.1119
25186W        W42710  11.835   7.998  14.606  0.2516 -0.4062 -0.2369
25187W        W42711   6.796  14.419  12.679  0.1538  0.1314  0.0277
25188W        W42712  14.610  14.381  12.361 -0.0608 -0.2090  0.0850
25189W        W42713   3.505  12.237  11.132  0.2004 -0.1049 -0.2351
25190W        W42714  16.159   4.450  15.620  0.1568  0.0357  0.1813
25191W        W42715   8.673   8.046  13.574  0.2112  0.1235 -0.2995
25192W        W42716   8.441  12.051  14.796  0.2001  0.0483  0.0105
25193W        W42717   5.250  14.093  15.689 -0.0477 -0.0300 -0.5546
25194W        W42718  14.417  13.566   3.816 -0.1080  0.0033  0.2355
25195W        W42719  10.300   8.960   3.554  0.0407  0.0301  0.1507
25196W        W42720   9.524   3.153   2.934 -0.0931  0.1617 -0.0657
25197W        W42721  14.810   0.886   1.087  0.2885  0.1278  0.2781
25198W        W42722   6.249   7.833  13.349  0.0525 -0.0788 -0.3931
25199W        W42723  10.822   9.811   0.081  0.2329 -0.1206  0.1657
25200W        W42724   5.102   5.439   2.996  0.2131  0.0148 -0.3187
25201W        W42725   3.125  10.006   4.032 -0.3184  0.1352 -0.0157
25202W        W42726  13.092   2.453  14.361 -0.1031  0.0510 -0.0032
25203W        W42727  13.902  15.553   2.409 -0.1828 -0.0161 -0.1384
25204W        W42728  15.032  17.354  12.620  0.3801  0.0650  0.0806
25205W        W42729   3.350   0.417   5.304  0.0693  0.2349 -0.0882
25206W        W42730  14.558  14.595  14.230 -0.1731  0.1172 -0.0203
25207W        W42731  15.297  15.287  14.241  0.0350 -0.2002  0.2405
25208W        W42732  10.974   2.462  12.507  0.0828  0.0831  0.1650
25209W        W42733   2.083   5.125   2.980 -0.2327 -0.1409 -0.0259
25210W        W42734  12.107   8.826   0.229  0.1691 -0.0929  0.1723
25211W        W42735  16.945  10.356   2.137  0.2395 -0.0646 -0.2206
25212W        W42736  14.822   4.789   5.111  0.0260  0.0030  0.0450
25213W        W42737   1.987   4.644   2.101  0.0273  0.1327 -0.0903
25214W        W42738  18.349  13.042   0.516 -0.4664 -0.2572  0.3283
25215W        W42739  15.881   7.540   2.660  0.1279 -0.1360 -0.0412
25216W        W42740   0.682  10.918  14.882  0.0960  0.0088  0.0119
25217W        W42741   9.400   8.245  15.580 -0.0314  0.1806  0.0632
25218W        W42742  16.129   4.622  13.235 -0.2071 -0.1450 -0.1209
25219W        W42743  18.057   6.091  10.398  0.1602  0.3180 -0.1824
25220W        W42744  11.126   9.893  11.829 -0.2697  0.0435 -0.1432
25221W        W42745   8.398   0.089  13.716  0.0475 -0.0020 -0.2733
25222W        W42746   1.840   7.435  12.505 -0.1276 -0.1729 -0.1356
25223W        W42747   0.061  14.304  15.119  0.0083  0.0212 -0.1704
25224W        W42748  10.525  13.052   3.363 -0.2357 -0.1446  0.1454
25225W        W42749   4.628  17.607  14.780 -0.2023 -0.1790 -0.0751
25226W        W42750  14.237  15.863  11.876  0.0208 -0.2021 -0.0105
25227W        W42751  17.320   8.111   1.061  0.1061 -0.2362 -0.2522
25228W        W42752   5.692  11.540   4.457  0.0381  0.0509 -0.2115
25229W        W42753   1.951   7.476  14.301 -0.2409  0.1236 -0.0256
25230W        W42754  13.443  12.168  11.046  0.0758 -0.3573  0.1399
25231W        W42755  11.473   2.445  11.402  0.2272  0.0933 -0.2759
25232W        W42756  15.252   7.135   3.141  0.0434 -0.1696  0.0305
25233W        W42757   9.592  11.141  14.978  0.1057  0.1099  0.1329
25234W        W42758  10.382   7.646  12.610 -0.1463  0.1515 -0.4134
25235W        W42759   0.300  16.906  11.929 -0.2803  0.0964 -0.2019
25236W        W42760  12.615   8.437   1.926 -0.0221 -0.2798  0.0667
25237W        W42761  15.758   9.088   4.010 -0.0523 -0.4465  0.0782
25238W        W42762  17.288  15.226  11.214  0.2595 -0.3134 -0.2664
25239W        W42763   0.839   3.144   5.288  0.0851  0.1212  0.1113
25240W        W42764   9.342  17.531  11.745  0.2603 -0.0227  0.0412
25241W        W42765   3.083  17.010  12.385  0.3157 -0.0448  0.0163
25242W        W42766   0.880  16.025   4.097  0.1715  0.0183 -0.0335
25243W        W42767   0.810  14.548   2.337 -0.0344  0.2224 -0.1345
25244W        W42768   3.336  10.115  12.595  0.0429  0.0889 -0.1961
25245W        W42769   7.032  10.070   3.121 -0.0868  0.0632 -0.1999
25246W        W42770  16.843  13.717   1.336  0.0496 -0.0364  0.0745
25247W        W42771  12.383  11.937  15.517 -0.1187  0.1354  0.3071
25248W        W42772   1.274   5.424   0.727  0.1384  0.1554 -0.0941
25249W        W42773  11.360   1.147   0.110 -0.0992  0.0309  0.0895
25250W        W42774   6.418  16.741  12.368  0.0455 -0.2458  0.1022
25251W        W42775  16.826   1.917  13.822 -0.0911  0.1285 -0.2302
25252W        W42776   2.852   6.582   4.694 -0.1663  0.1777 -0.1260
25253W        W42777  12.979   8.646  11.554  0.1235  0.2918  0.1538
25254W        W42778   3.341  13.763  13.481 -0.3980  0.2378 -0.1015
25255W        W42779   3.341   7.423   3.110  0.0321 -0.3155  0.0325
25256W        W42780  14.174  14.772  12.855  0.0546 -0.0067 -0.1582
25257W        W42781  13.061  15.425  12.106 -0.0230  0.2542  0.0929
25258W        W42782   9.408  13.838  14.633  0.2136 -0.0925  0.3288
25259W        W42783  14.315  17.501  14.998 -0.0555  0.2309 -0.3134
25260W        W42784   0.797   6.553   4.731 -0.2417 -0.0654 -0.1360
25261W        W42785   7.319   9.859   1.023 -0.0243  0.1072 -0.0377
25262W        W42786   1.846  11.269   2.484  0.3591  0.0930 -0.4526
25263W        W42787   1.545   4.750   3.331 -0.2659 -0.4155  0.5062
25264W        W42788   2.794  18.237  12.429 -0.1071 -0.0108 -0.0172
25265W        W42789  10.768   9.582  13.524  0.3348 -0.1016 -0.1277
25266W        W42790   6.422   3.452   2.414  0.1105  0.0147 -0.2539
25267W        W42791  10.329   6.818   3.867 -0.0739 -0.0815  0.1345
25268W        W42792   8.899  14.955   3.316 -0.2077 -0.2806 -0.0980
25269W        W42793  10.365  11.847  13.152 -0.1246  0.0070 -0.0443
25270W        W42794   6.653   6.633  14.711 -0.0476 -0.1850  0.0273
25271W        W42795   9.212  13.635   1.746  0.1345  0.1312  0.2539
25272W        W42796   8.569   9.802   2.984 -0.0294 -0.1802 -0.0214
25273W        W42797   0.081  13.112  12.091  0.1323  0.3040  0.3095
25274W        W42798  13.220   1.241  11.157  0.0690 -0.2674  0.0599
25275W        W42799  12.852  17.148   0.961  0.1931  0.1627 -0.0889
25276W        W42800  14.350  13.585  13.401 -0.0549  0.0332 -0.3049
25277W        W42801  10.373   1.484   3.754  0.1186  0.1758 -0.3366
25278W        W42802  11.850  13.841   3.119 -0.0386  0.0207 -0.2371
25279W        W42803   4.465  16.467  11.709 -0.2138  0.1231  0.0578
25280W        W42804   7.915  10.608  11.724 -0.3280  0.2722  0.1242
25281W        W42805   1.638  16.629  11.148  0.1556 -0.0099 -0.0019
25282W        W42806  10.857   9.125  12.086  0.0890 -0.2206 -0.2546
25283W        W42807  15.558   4.456  13.868  0.1974  0.3183  0.0043
25284W        W42808   6.747   4.610   3.985  0.2050 -0.0524  0.0347
25285W        W42809  14.508  17.790   5.341  0.2415  0.2278 -0.2707
25286W        W42810   0.515   3.947  15.502  0.0208  0.2733  0.2234
25287W        W42811   7.667   2.507  10.681 -0.2188  0.2491  0.1488
25288W        W42812  15.061   6.944  12.728 -0.0249  0.1857 -0.0823
25289W        W42813  11.652  16.794  12.419 -0.2183  0.1698  0.1272
25290W        W42814  15.854  17.276  12.172 -0.0979 -0.0215 -0.0530
25291W        W42815   7.689   1.438  12.886 -0.0341 -0.3059 -0.2982
25292W        W42816  17.996   0.154  12.961  0.0222  0.1708  0.3562
25293W        W42817  14.622  17.919  12.745 -0.2473  0.1027 -0.1557
25294W        W42818  10.170   0.374   2.181 -0.3516  0.0179 -0.0948
25295W        W42819   1.944  14.507   1.977 -0.3054  0.0383 -0.3405
25296W        W42820  12.653   5.012  11.410 -0.1140 -0.0064 -0.0831
25297W        W42821  17.349   9.247  13.317  0.2018 -0.2840 -0.0861
25298W        W42822  12.478   7.078  14.530  0.2695 -0.0484 -0.1279
25299W        W42823  13.531  14.392   2.731 -0.1242  0.0242 -0.0537
25300W        W42824  11.488  14.125  14.461  0.0172 -0.4232  0.0181
25301W        W42825  12.149   9.947   1.021  0.1712 -0.1601  0.0923
25302W        W42826  12.035  17.681   1.667  0.2518  0.0128 -0.2549
25303W        W42827  10.471   9.918   1.843  0.0397  0.2381 -0.2053
25304W        W42828   4.038  15.287   2.663  0.1264  0.1336  0.1571
25305W        W42829   3.621   5.105  14.638 -0.1477 -0.0813 -0.0290
25306W        W42830   2.088   9.650   0.573  0.1232 -0.0226 -0.0167
25307W        W42831   7.306  12.913   0.173  0.1414  0.2156  0.0993
25308W        W42832  11.936  17.842  11.154 -0.2388 -0.0842 -0.0687
25309W        W42833  10.280  18.082  12.491 -0.5004  0.1311 -0.0794
25310W        W42834  10.670   3.218  13.337 -0.1458  0.2841 -0.0923
25311W        W42835   1.260   9.946   1.422 -0.1819  0.4673 -0.2973
25312W        W42836  12.521   7.546   3.399  0.1112 -0.2344 -0.0630
25313W        W42837   8.866  15.288   1.973  0.2009  0.1249 -0.0087
25314W        W42838  12.527   7.956   3.884  0.0729 -0.0081  0.0804
25315W        W42839  11.527   0.719   3.724  0.2744 -0.2341 -0.0721
25316W        W42840   7.264  10.719  15.637 -0.0463 -0.2877  0.2925
25317W        W42841   0.248   9.068   0.706 -0.1311  0.3410  0.3756
25318W        W42842  14.887   7.083   2.371  0.2715 -0.2356 -0.0968
25319W        W42843   2.906  18.231   1.934 -0.0105  0.2424  0.1655
25320W        W42844   6.183   9.826  12.502 -0.1867 -0.0987  0.0089
25321W        W42845  11.790   5.495   3.361  0.1939 -0.0459 -0.0580
25322W        W42846   2.255   0.976   0.887  0.0821  0.1781 -0.3123
25323W        W42847  13.170  10.189   2.961 -0.1194 -0.0148 -0.3344
25324W        W42848   7.899  16.517  13.719 -0.3022  0.0085 -0.0171
25325W        W42849  13.201   8.755   5.012 -0.3804 -0.0999  0.0928
25326W        W42850   2.783   8.592  15.202 -0.0552 -0.2976  0.4131
25327W        W42851   6.403   8.465   0.245  0.0305  0.2288 -0.1932
25328W        W42852   1.587   1.991  15.650  0.0245  0.3267 -0.2761
25329W        W42853  13.179   5.861   3.262  0.0508 -0.2262  0.2792
25330W        W42854  13.171  16.057   1.168 -0.1078  0.0929  0.0946
25331W        W42855  15.377  13.908  13.736  0.1943 -0.0792  0.0185
25332W        W42856   8.632   7.102  12.732 -0.1090 -0.0292 -0.2544
25333W        W42857   1.843   9.728  14.999 -0.0987  0.1878  0.3136
25334W        W42858   2.546   9.658   4.790  0.3486 -0.1646 -0.0837
25335W        W42859  18.205   8.964  13.808 -0.0840 -0.1341  0.0468
25336W        W42860  16.138  18.286  11.187  0.2397 -0.2058  0.0765
25337W        W42861  11.537  16.964   2.152  0.2128  0.1099  0.2503
25338W        W42862   6.100  11.216  10.017  0.7817  0.0985  0.0641
25339W        W42863   8.009  16.382   2.665  0.1765 -0.0275 -0.1491
25340W        W42864   4.520  13.295  13.266  0.0478  0.1101  0.1837
25341W        W42865  13.558   9.295   0.196  0.3698  0.0897 -0.0762
25342W        W42866  17.233  10.453   4.579 -0.0980 -0.1649  0.2485
25343W        W42867  13.554   7.024  10.150  0.1192 -0.0367 -0.2510
25344W        W42868   4.268  10.727  10.998 -0.0478 -0.2763  0.0375
25345W        W42869  17.644   6.656  11.186  0.1353  0.0621  0.0877
25346W        W42870   2.049  16.037   0.721  0.2684 -0.2302  0.4090
25347W        W42871   0.453   6.735   1.004  0.0792 -0.1085  0.1501
25348W        W42872  13.117  12.221  12.505  0.0955 -0.1616  0.0629
25349W        W42873   4.161   0.073  11.780  0.1205 -0.0934 -0.0709
25350W        W42874   9.078  16.292   0.235  0.1175  0.0636  0.0533
25351W        W42875   7.011  11.499   0.810  0.3042 -0.2261 -0.0733
25352W        W42876   0.372  17.121   3.533 -0.1260  0.0870 -0.0141
25353W        W42877   0.677  13.102   3.458  0.3794  0.1187  0.3579
25354W        W42878   9.508   5.047   9.997  0.1406  0.1933  0.2463
25355W        W42879  13.271  15.357   0.724 -0.1723  0.4446  0.1643
25356W        W42880  15.488  14.835   3.127 -0.0077 -0.1910 -0.1006
25357W        W42881   3.713   4.517  13.843  0.0145 -0.1379 -0.0813
25358W        W42882   6.438   3.825  11.013 -0.0084 -0.0820 -0.1534
25359W        W42883   8.132  14.314  15.378 -0.2570  0.2230 -0.0322
25360W        W42884   5.242  11.197   1.960  0.0612  0.3596  0.0387
25361W        W42885   7.686   1.927   0.179  0.2189  0.1354  0.0583
25362W        W42886   1.701   7.408  11.977  0.0615 -0.0640  0.1096
25363W        W42887  17.855   6.831   3.350  0.1844 -0.0568  0.1496
25364W        W42888  14.481   5.959   3.051 -0.1652 -0.0022 -0.0068
25365W        W42889  14.334   4.399   1.182 -0.4266 -0.2235 -0.3152
25366W        W42890  13.355   3.759   0.929  0.0590  0.0350 -0.1765
25367W        W42891   5.943  14.157  11.058 -0.0583  0.0945  0.2137
25368W        W42892   0.309   9.731  15.502  0.3432 -0.4406 -0.0571
25369W        W42893   2.092   4.460  13.704  0.0709 -0.1151 -0.0587
25370W        W42894   4.693  11.774   4.426 -0.0896  0.0137  0.2335
25371W        W42895   8.335   7.742  13.417 -0.0302 -0.1879 -0.2567
25372W        W42896  15.080   1.695   0.094  0.1388  0.1513  0.4126
25373W        W42897   2.827  18.055  11.993 -0.1782  0.1615  0.1367
25374W        W42898   2.137   3.498  13.366  0.0641 -0.1433  0.1095
25375W        W42899   2.547   0.855  12.474 -0.1582  0.0800 -0.0814
25376W        W42900   6.278   6.254   2.529 -0.0373 -0.0033  0.1690
25377W        W42901  12.944  13.361   1.171  0.0066 -0.0193 -0.0652
25378W        W42902   8.590  13.991  14.506 -0.1943 -0.2899 -0.3821
25379W        W42903   1.602  12.248   0.379  0.0690  0.2024  0.0354
25380W        W42904  15.290  15.768   1.071  0.0170 -0.2148  0.1038
25381W        W42905   5.124  13.512   4.775  0.3431 -0.4017 -0.2122
25382W        W42906  15.688   7.646  10.149 -0.0335 -0.2607  0.2653
25383W        W42907  16.749  17.821   4.287  0.3369  0.2704 -0.0029
25384W        W42908   3.616   8.132  11.933  0.2777 -0.0100  0.2745
25385W        W42909   5.659  14.792  11.575  0.0844  0.1951  0.0676
25386W        W42910   4.257  14.154  15.459  0.3347  0.0693  0.2706
25387W        W42911  14.234   5.053   2.809 -0.0320 -0.0121  0.0050
25388W        W42912   5.993  10.045   1.906 -0.1490  0.1606 -0.0876
25389W        W42913  13.971   6.405   1.768 -0.1777  0.1935 -0.2046
25390W        W42914   0.345   7.123  10.182  0.2088  0.0050 -0.1578
25391W        W42915  11.496   7.463   0.540 -0.0020 -0.0446 -0.1118
25392W        W42916   0.922  14.570   0.278  0.0564  0.1053  0.1026
25393W        W42917   9.949  10.256  10.833  0.4376 -0.2408  0.1884
25394W        W42918   6.905   4.955  11.738  0.1659  0.1703 -0.0937
25395W        W42919   7.442  18.120  14.793 -0.0696  0.0682 -0.0248
25396W        W42920  10.599   0.253   1.963 -0.1475 -0.1753  0.1832
25397W        W42921   6.648   5.501  14.629 -0.0979  0.4724 -0.4492
25398W        W42922   9.185  10.036   0.609 -0.1000 -0.1375 -0.0184
25399W        W42923  16.447  14.929  11.953 -0.1342  0.2124  0.0473
25400W        W42924   8.894   1.206  12.349  0.1889 -0.0359 -0.1925
25401W        W42925  16.184   3.118  11.741 -0.1020 -0.1081 -0.2220
25402W        W42926   8.105  11.878  12.289 -0.1456  0.0211  0.0672
25403W        W42927   7.371  16.318  11.615 -0.1637 -0.3378  0.2287
25404W        W42928   9.808  11.046   4.832  0.2821  0.1319 -0.1990
25405W        W42929  11.300  10.176  13.504 -0.0894 -0.0242 -0.4068
25406W        W42930  18.311   3.840   4.423  0.2412 -0.0148 -0.1750
25407W        W42931  11.089   3.469  12.487  0.0006  0.0399 -0.0588
25408W        W42932   0.887  13.971  14.746  0.0177 -0.1882 -0.0698
25409W        W42933  14.274  11.330  14.441 -0.1914 -0.0732  0.4719
25410W        W42934   1.915   8.019   4.863  0.1455  0.1939  0.0110
25411W        W42935   0.295  10.364   2.568 -0.0252  0.0237 -0.2371
25412W        W42936   6.417  12.434   4.038 -0.0075 -0.0572 -0.1381
25413W        W42937  17.435  15.993   3.710 -0.1975 -0.0865 -0.0202
25414W        W42938   4.212  14.207   0.947  0.3693  0.0960 -0.0250
25415W        W42939  14.595  15.692   3.107  0.1765 -0.0885  0.0495
25416W        W42940   6.035   0.607  11.785  0.0980 -0.0713  0.1994
25417W        W42941  14.838  13.138  12.842  0.1659  0.0069 -0.1780
25418W        W42942  11.927   1.903   2.954  0.0274  0.0974 -0.0332
25419W        W42943  17.645   6.756  13.356  0.1473  0.1157  0.1804
25420W        W42944   1.297   0.672   5.360 -0.0713 -0.6332  0.1570
25421W        W42945   8.324  11.168   0.405  0.1157  0.0411 -0.0202
25422W        W42946   5.910   4.857   3.417  0.2121  0.2674  0.0052
25423W        W42947  11.588   2.745  12.394 -0.1745 -0.2203  0.3963
25424W        W42948   9.388   5.765  14.561 -0.0810 -0.0618 -0.1683
25425W        W42949   2.157  13.166   1.803  0.1000  0.0482 -0.4549
25426W        W42950   9.096   1.631  12.101  0.0892 -0.0687  0.1161
25427W        W42951   7.435   8.545  12.561  0.0274 -0.1341 -0.1095
25428W        W42952   3.081   2.790   2.987 -0.0538 -0.0351  0.3473
25429W        W42953  14.283   5.659  12.884  0.0919  0.2179  0.0911
25430W        W42954   4.041   5.622  14.114 -0.1169  0.0868  0.0554
25431W        W42955   9.328  16.075  13.214  0.4338  0.2712  0.0461
25432W        W42956  13.149   5.689  10.732  0.1247  0.3092 -0.1290
25433W        W42957  13.834  14.213  14.854  0.1307 -0.1030  0.0325
25434W        W42958   4.615   0.287   1.183  0.1508  0.0900  0.0322
25435W        W42959  18.148  14.618   3.264  0.0609 -0.1552  0.0394
25436W        W42960  10.679   4.950  12.986  0.0033 -0.0888 -0.1913
25437W        W42961  14.426   9.499  15.215 -0.4333  0.0970 -0.0885
25438W        W42962  18.260  10.724  12.225  0.4057 -0.0808 -0.0188
25439W        W42963   2.575  16.535  15.430  0.1057  0.0787 -0.2118
25440W        W42964  13.558   8.777  14.768 -0.0174 -0.1651  0.1920
25441W        W42965   2.037  17.967   2.375  0.2575 -0.0646  0.0317
25442W        W42966   3.793  11.233  11.769 -0.6252  0.3393  0.2495
25443W        W42967  11.755   5.240  14.498  0.1893 -0.3714 -0.2072
25444W        W42968  15.203  17.430  13.439  0.1848 -0.0681  0.1536
25445W        W42969   5.362  15.928   2.823  0.0098  0.2837  0.1045
25446W        W42970   9.234   8.012   1.771 -0.1543 -0.2035 -0.0166
25447W        W42971   2.153  15.503   3.489  0.0290  0.3353 -0.1181
25448W        W42972   5.178   7.908   0.227  0.1158 -0.0500  0.1801
25449W        W42973  15.783   7.232   2.241  0.2389 -0.3468  0.0571
25450W        W42974  12.635   1.606  13.424 -0.1420  0.0562 -0.2701
25451W        W42975   5.063  16.297  11.705 -0.0999  0.0264  0.1242
25452W        W42976  10.266   2.787  14.565  0.3455 -0.1959  0.0947
25453W        W42977   2.227  17.815   4.265 -0.0278  0.0101  0.1262
25454W        W42978   5.967   5.366  11.429  0.4362  0.1288 -0.0244
25455W        W42979   6.324   1.892   0.852 -0.0810  0.0855 -0.0312
25456W        W42980   1.025   4.915  15.108  0.1082  0.2715 -0.0511
25457W        W42981  17.162   5.633  11.858 -0.2332 -0.0487  0.0709
25458W        W42982   0.365   4.240  13.745 -0.3668  0.2510 -0.0046
25459W        W42983  10.242   6.029  14.571  0.3380  0.0781  0.2207
25460W        W42984   6.100  11.687  11.767  0.0758 -0.0149 -0.0749
25461W        W42985   0.992  14.081  11.353 -0.1847 -0.1225 -0.3033
25462W        W42986  14.602  15.229   6.141  0.1445  0.0658 -0.5651
25463W        W42987   4.726   0.188   2.475  0.0611  0.0953 -0.1343
25464W        W42988   8.241   1.976  15.444  0.0920 -0.2127  0.0305
25465W        W42989   9.937   0.903   0.862 -0.2621  0.2067  0.3754
25466W        W42990   7.752  13.377  10.955  0.1759 -0.0450  0.2159
25467W        W42991   8.771  17.722   3.375  0.0518  0.1377 -0.2975
25468W        W42992  18.066  17.063   2.540  0.1429 -0.2535  0.0606
25469W        W42993  17.783   3.343  14.422 -0.1532  0.0127  0.0283
25470W        W42994   7.037   5.881  13.612  0.0635 -0.1725  0.2347
25471W        W42995  11.955   8.985  14.175 -0.0247  0.1298  0.0078
25472W        W42996   3.927  10.406   1.165  0.0102  0.0077 -0.0321
25473W        W42997   8.713   8.823  13.915 -0.0961  0.0988  0.2038
25474W        W42998   2.152   4.561   1.279 -0.2140  0.0593 -0.0151
25475W        W42999  13.396  16.569   5.419 -0.0234 -0.0227  0.0955
25476W        W43000  16.770  17.044   2.455  0.2179 -0.1562  0.0810
25477W        W43001   7.515   5.291   2.733  0.0584 -0.3576  0.2463
25478W        W43002  11.751   3.630   2.408  0.2811 -0.3522  0.0718
25479W        W43003  14.317  12.826   3.411  0.2553 -0.0881  0.1538
25480W        W43004   5.055  12.500   2.746 -0.0730 -0.2612 -0.1128
25481W        W43005   0.429   8.680  12.123  0.0373  0.0750 -0.1422
25482W        W43006  12.392  16.748  13.873 -0.0346  0.0460 -0.1150
25483W        W43007   5.453  14.891  12.574  0.0938 -0.1851 -0.1294
25484W        W43008   6.681  18.053  14.669  0.0228  0.0154  0.0627
25485W        W43009  15.631   3.179   0.976  0.0268 -0.0451 -0.3830
25486W        W43010   1.458   9.555  11.065 -0.2304  0.1051 -0.1460
25487W        W43011  14.749  10.838   3.731 -0.2529 -0.0008  0.0771
25488W        W43012   2.853   6.533   0.197 -0.1852  0.0168  0.1281
25489W        W43013  14.260   3.949  11.321  0.0193 -0.2375 -0.1622
25490W        W43014   6.271   0.967  13.863  0.3838 -0.0036 -0.2484
25491W        W43015  15.552   4.113   1.154 -0.1690  0.0592 -0.0214
25492W        W43016  13.623  14.989  14.148  0.0229 -0.2165  0.1815
25493W        W43017  10.407  14.929  14.500  0.1693 -0.2914 -0.1809
25494W        W43018  12.316   0.860   1.673 -0.0591  0.4326  0.1809
25495W        W43019  14.278   8.786  10.607  0.1817  0.1336  0.0537
25496W        W43020  14.450  13.334   2.732  0.2163  0.1659 -0.0624
25497W        W43021  17.570   7.946   0.671 -0.3687  0.2787 -0.0469
25498W        W43022   7.780   6.273  11.907  0.3535  0.1169 -0.1174
25499W        W43023   5.642   3.216  13.075 -0.0605  0.0518 -0.1448
25500W        W43024  14.481   3.868   3.581 -0.2738  0.1583  0.1800
25501W        W43025  15.674   2.231  13.366 -0.0811 -0.1575  0.4592
25502W        W43026  16.442  10.582  12.937 -0.1666  0.0728  0.2226
25503W        W43027  12.654  15.624   0.008  0.1112  0.0830 -0.1791
25504W        W43028   4.187  10.572   4.150  0.0485 -0.0693 -0.1979
25505W        W43029   7.582   5.818   4.112 -0.3984  0.2234 -0.2981
25506W        W43030  17.026  13.768  10.987  0.0169 -0.2195  0.0112
25507W        W43031   5.262   6.779   2.655 -0.3271  0.1366 -0.0267
25508W        W43032   4.694   0.620   3.152  0.3057 -0.3693  0.0264
25509W        W43033  17.710  11.066  12.224 -0.0111 -0.1067  0.0374
25510W        W43034  10.507  17.037   1.776 -0.3520 -0.2712  0.4381
25511W        W43035   8.614   9.872  13.771  0.4099  0.1702 -0.0027
25512W        W43036   5.806   9.955  14.479 -0.0952  0.0787 -0.1288
25513W        W43037   3.110  18.076  15.624 -0.1124 -0.1138  0.1602
25514W        W43038   8.933   1.461  10.521  0.0380 -0.1178  0.3443
25515W        W43039  15.241   1.842   2.338 -0.5031 -0.0684 -0.4277
25516W        W43040   9.180  12.624  11.974  0.1072  0.0083 -0.1842
25517W        W43041  15.987  16.739  13.809 -0.2310 -0.2495  0.0703
25518W        W43042   7.969  15.063  11.979  0.0208  0.1534 -0.0117
25519W        W43043   1.992   6.997  15.070 -0.0559 -0.2030 -0.0449
25520W        W43044  12.035   0.027  13.706  0.1546  0.1907  0.1850
25521W        W43045  10.597   3.825  12.538  0.3534  0.0189 -0.1068
25522W        W43046   8.075  18.092  14.363 -0.0477 -0.1056 -0.1253
25523W        W43047  13.235  18.021  12.405 -0.2260 -0.0340  0.1162
25524W        W43048  14.396   7.063   1.080 -0.0568  0.1925 -0.0411
25525W        W43049   0.435   5.640  14.446 -0.2389 -0.0353  0.1169
25526W        W43050   3.811   7.860  14.522  0.0105  0.4653 -0.0112
25527W        W43051  13.277  12.560   2.494 -0.1050  0.0447  0.0008
25528W        W43052   8.523   2.474   0.361 -0.0773 -0.2838  0.1880
25529W        W43053  13.496  10.183  12.432 -0.0842  0.1181 -0.0889
25530W        W43054   2.339  11.862   2.899 -0.2285  0.0972  0.1938
25531W        W43055   8.175  14.536   3.691 -0.0103 -0.0123  0.2793
25532W        W43056   2.013   8.831   3.738  0.1559  0.1236  0.0154
25533W        W43057  12.082   7.802  11.964 -0.0916  0.2964 -0.2717
25534W        W43058   3.058  14.865  10.651 -0.5056 -0.0851  0.1792
25535W        W43059   8.425   0.893  11.175 -0.0528 -0.0575 -0.0688
25536W        W43060  11.320  17.350   3.681 -0.0891 -0.0510  0.1042
25537W        W43061   3.250  16.388   1.889  0.3854  0.0113  0.0342
25538W        W43062  10.935  17.888   3.894 -0.1042 -0.0175 -0.0884
25539W        W43063  14.585   2.518  13.475  0.2343  0.2991  0.1556
25540W        W43064  11.480   1.241  12.054  0.1265 -0.2016  0.0331
25541W        W43065  10.923   5.474  10.223 -0.0597 -0.0855  0.2962
25542W        W43066  16.552   7.368  15.451  0.0821 -0.0278 -0.0774
25543W        W43067   4.024  15.247   1.518 -0.0423  0.2180  0.1651
25544W        W43068  17.723  14.663  11.894  0.0647  0.2543 -0.1183
25545W        W43069   4.829  13.890  11.965 -0.0580 -0.0379  0.0899
25546W        W43070  14.505  12.228  13.531 -0.1059  0.0318  0.1250
25547W        W43071  17.083  12.538   1.372  0.1787 -0.1592 -0.1590
25548W        W43072   3.277  11.789   1.517  0.1225  0.1781 -0.0107
25549W        W43073  15.509   7.292   1.841  0.0868  0.0525  0.0147
25550W        W43074   0.299   0.671   4.912  0.2084 -0.1853 -0.3251
25551W        W43075   4.697  12.311  13.462  0.2361  0.1168  0.0093
25552W        W43076  13.449   6.814  15.447 -0.0318 -0.3230  0.0626
25553W        W43077   2.729  14.716   4.393 -0.4803  0.1588  0.0904
25554W        W43078   0.509   5.512   4.848  0.3160  0.1369  0.0995
25555W        W43079  13.688   1.594  11.691 -0.0879  0.1287  0.1270
25556W        W43080   0.550   8.410   3.052  0.0038  0.1354  0.0563
25557W        W43081   7.693   9.390   0.307  0.0158  0.2763  0.1589
25558W        W43082  15.862  10.143  10.165 -0.0295  0.2429  0.2286
25559W        W43083  10.216   5.081  15.202 -0.0387  0.0133  0.3062
25560W        W43084   5.704  15.655   2.510 -0.3097 -0.3118  0.0952
25561W        W43085  17.954  12.249   4.394  0.3896  0.1922  0.1448
25562W        W43086   1.379   8.021   1.520  0.2297 -0.1110 -0.3421
25563W        W43087  13.194   6.091   1.363  0.1995 -0.0391 -0.3388
25564W        W43088  13.558   6.449   4.050 -0.1752 -0.0627  0.0430
25565W        W43089  13.513  13.098   5.801 -0.1857 -0.2472 -0.1601
25566W        W43090   3.982  16.632  14.016 -0.2338  0.1018  0.1157
25567W        W43091   9.643   6.881   0.683 -0.0060  0.1804  0.0668
25568W        W43092   1.856   7.034  11.623 -0.2458  0.0054 -0.0599
25569W        W43093  10.060   6.075  13.681 -0.3126  0.2437 -0.0696
25570W        W43094  12.570   5.587  10.975  0.1327 -0.1248 -0.0040
25571W        W43095  13.027  15.941  12.134  0.1554  0.1682  0.1561
25572W        W43096  14.469   7.994   0.965 -0.0428  0.5179  0.0739
25573W        W43097  17.860  15.548  14.295 -0.0270 -0.1156  0.0350
25574W        W43098  15.285   9.978   2.971 -0.1092  0.1946  0.2499
25575W        W43099   5.082   1.418   3.545 -0.1744  0.2092 -0.2464
25576W        W43100   1.709   1.103   3.176 -0.0180  0.3427  0.0705
25577W        W43101   1.256  13.964  15.144  0.2994 -0.1604 -0.4436
25578W        W43102   8.687   6.229  13.952  0.1564 -0.0471 -0.0402
25579W        W43103   7.202   1.620  13.425 -0.3100 -0.0873  0.0675
25580W        W43104  16.890   5.019  14.729  0.0070  0.2032 -0.0184
25581W        W43105  14.890   9.660  13.181  0.1574 -0.1389  0.0185
25582W        W43106  14.809   7.691   4.800  0.1325 -0.1312  0.0407
25583W        W43107  10.084   6.132   3.173 -0.1543  0.0642 -0.1403
25584W        W43108  16.301  17.296  14.946 -0.3755  0.3789 -0.0571
25585W        W43109   1.986   3.026  11.959 -0.0438 -0.0507  0.1130
25586W        W43110   9.450   1.070   0.845 -0.1513  0.0663  0.0577
25587W        W43111  12.642   6.871   1.881 -0.2266  0.0076  0.2282
25588W        W43112  12.117   2.345  13.349  0.0048  0.4343  0.0416
25589W        W43113  17.449  12.159   4.266  0.1336  0.1986 -0.0388
25590W        W43114  18.478   9.697   4.594 -0.0178  0.4049  0.0358
25591W        W43115   1.250   4.305   0.162  0.6288 -0.0977  0.0701
25592W        W43116   1.770   7.271   2.833  0.1589 -0.4269 -0.1307
25593W        W43117   8.400  18.244  14.974 -0.3417  0.2575  0.2882
25594W        W43118  12.194  16.415   0.975  0.4661  0.2814  0.0482
25595W        W43119   1.460   1.183  13.188 -0.1652 -0.1905 -0.4215
25596W        W43120   9.096  16.446  13.509 -0.2301  0.0671  0.1435
25597W        W43121  18.277   2.417  13.698 -0.0777  0.2793  0.0945
25598W        W43122   0.501   0.122   1.168  0.1181  0.1397  0.1324
25599W        W43123   2.193  13.986  12.145  0.1500  0.0779  0.0815
25600W        W43124   3.371  12.965  13.542 -0.1289 -0.0126  0.1252
25601W        W43125   9.164  11.065  11.982  0.0253  0.0695 -0.1357
25602W        W43126  14.842  15.803  11.982 -0.0067 -0.1419  0.0998
25603W        W43127  14.329   1.630   1.040  0.2261  0.0792  0.1412
25604W        W43128   8.507  13.005  12.104 -0.3276  0.2820  0.0539
25605W        W43129   3.436   5.100   4.705 -0.0571 -0.1644  0.4525
25606W        W43130  15.359  13.565  10.068  0.2161  0.0752  0.0201
25607W        W43131   2.916  14.191   4.699 -0.1196 -0.2042 -0.3138
25608W        W43132   4.665   4.538  13.516  0.1152 -0.3064  0.1180
25609W        W43133  16.817  11.368   4.471 -0.0969 -0.3311 -0.1060
25610W        W43134   6.022  12.489  14.230  0.2142 -0.0114  0.0864
25611W        W43135   7.513   4.153   4.053 -0.2387 -0.0506  0.0420
25612W        W43136  18.018   4.233  15.538  0.1678 -0.0546  0.2857
25613W        W43137   6.922   3.192  13.875  0.1242  0.1437  0.0328
25614W        W43138   8.934   2.679   4.360  0.0878  0.3137  0.2998
25615W        W43139   7.984   2.572  11.021  0.2461  0.1705 -0.0469
25616W        W43140  11.485   6.764   3.611  0.0040 -0.1118  0.0883
25617W        W43141   4.657  11.466   0.953  0.1449  0.2452  0.0916
25618W        W43142   4.734   4.167  14.962 -0.0402 -0.1936  0.0285
25619W        W43143  11.999  14.562  15.232 -0.0301  0.0132  0.2661
25620W        W43144  10.015   6.451  14.677  0.0423  0.1438 -0.1331
25621W        W43145  10.989   0.943   0.724 -0.1693 -0.1185  0.0031
25622W        W43146   3.316   4.215  14.939 -0.1097  0.1159 -0.2938
25623W        W43147   0.507  13.750   2.294 -0.3345 -0.0430 -0.0745
25624W        W43148   8.687   5.265  12.083 -0.1247  0.0073 -0.2097
25625W        W43149   3.721  10.581  11.997 -0.0196  0.2782 -0.2488
25626W        W43150  10.081   8.712   1.304  0.1230  0.0285  0.0117
25627W        W43151  16.596   6.924  11.957 -0.0755  0.2109 -0.0750
25628W        W43152  10.222   4.184   4.400 -0.2165 -0.0889 -0.0062
25629W        W43153   1.445   3.531  13.945 -0.0790 -0.0771  0.1889
25630W        W43154   4.457  17.813   5.672 -0.1565  0.2687 -0.3603
25631W        W43155  15.682   6.823   1.873 -0.0237 -0.0356 -0.3527
25632W        W43156  13.909  15.133  14.497 -0.1957  0.1101 -0.2958
25633W        W43157  15.484  11.672   3.176 -0.0234 -0.5497 -0.3665
25634W        W43158   0.848   8.284   0.852 -0.3906  0.1122  0.3015
25635W        W43159   8.809   4.054  11.417 -0.2087 -0.0724 -0.2734
25636W        W43160   1.839   8.468  13.521  0.0502 -0.3206  0.0734
25637W        W43161   3.068   8.717   1.805 -0.2864  0.2062  0.1770
25638W        W43162   2.775  17.629   5.060  0.0249  0.0041 -0.3873
25639W        W43163   5.652   5.819   3.428  0.2496 -0.2626 -0.2725
25640W        W43164   6.007  10.461  11.058  0.0966 -0.2243  0.2768
25641W        W43165   1.198   2.159   2.479 -0.0804  0.3900 -0.2415
25642W        W43166   7.910   3.749  13.345  0.0164 -0.5102 -0.1805
25643W        W43167   5.454   2.325  11.936 -0.0545  0.0823  0.1902
25644W        W43168  14.915  18.413  12.351 -0.0462  0.1128  0.4121
25645W        W43169   3.963   3.637   3.741  0.0944 -0.0519 -0.3001
25646W        W43170  11.856  12.958   2.905  0.2238 -0.0210 -0.2221
25647W        W43171   6.953   7.482  15.523  0.3618  0.2005  0.0672
25648W        W43172   0.921  12.500  12.835  0.0922 -0.0025 -0.1280
25649W        W43173  16.088  13.165  11.682 -0.0803  0.0018 -0.0338
25650W        W43174  10.426   2.555   2.370  0.0923 -0.1360  0.1050
25651W        W43175   2.389  12.660  13.759 -0.0618  0.1463  0.2352
25652W        W43176   0.960  17.874   1.774 -0.0727 -0.1815 -0.1363
25653W        W43177   4.294  11.411   5.294 -0.1250  0.1750 -0.0367
25654W        W43178   4.495  16.313  13.800  0.3675  0.1990 -0.1440
25655W        W43179  17.526   7.451  15.221 -0.1683  0.1210 -0.0249
25656W        W43180  18.468  16.812   2.603 -0.2214 -0.1238 -0.0682
25657W        W43181   7.258   4.723   3.346 -0.1403 -0.3158 -0.0893
25658W        W43182  11.530   0.328  10.919 -0.0508  0.2781  0.2023
25659W        W43183   4.586   3.971   0.162  0.4892 -0.2277  0.1471
25660W        W43184   3.414   8.784  13.649 -0.0998  0.0959 -0.0582
25661W        W43185  16.593   3.810   3.398  0.0830  0.0707  0.1348
25662W        W43186   2.161   4.512  10.269  0.4822 -0.0103 -0.0051
25663W        W43187  11.599   6.970  12.909  0.2189  0.0548  0.0054
25664W        W43188   0.462   6.877  13.617 -0.0386  0.0232 -0.3082
25665W        W43189   5.187   8.288  14.495  0.0315  0.3454 -0.0998
25666W        W43190  15.177   6.278   2.900  0.1303  0.0464 -0.2207
25667W        W43191   8.714  14.146   1.247 -0.1431  0.1608  0.0369
25668W        W43192  12.734  12.445   0.980  0.0481  0.4409 -0.3441
25669W        W43193  14.775  17.540   1.590 -0.0383 -0.3455 -0.0369
25670W        W43194  18.484  16.493  13.384  0.2114 -0.1398  0.2595
25671W        W43195   5.406  18.198  13.447 -0.0773 -0.0336  0.0515
25672W        W43196   0.652   3.357   1.634  0.1304 -0.2079  0.1603
25673W        W43197  16.965  13.255   3.388 -0.1100 -0.1230 -0.3425
25674W        W43198  13.103   8.644   4.511  0.0202  0.1561  0.0938
25675W        W43199  14.877  13.935   0.436 -0.2648 -0.0216 -0.0678
25676W        W43200   6.754  12.836   4.305 -0.1578 -0.0104  0.1851
25677W        W43201   9.195  16.370   3.875 -0.0553  0.0695 -0.2951
25678W        W43202   9.051  15.503  11.582 -0.2802 -0.1614 -0.1839
25679W        W43203  13.265  16.264  15.059 -0.0750 -0.0388 -0.2537
25680W        W43204  17.464  14.219  13.735  0.2288  0.1506  0.0491
25681W        W43205  15.865  17.898  10.393 -0.3289  0.3462  0.1380
25682W        W43206  15.493   4.352   4.531 -0.0663 -0.2545  0.1704
25683W        W43207  10.674   8.855   3.202 -0.3753  0.0241  0.1613
25684W        W43208   0.077   0.678  11.475 -0.1209  0.2522 -0.2079
25685W        W43209   7.024  11.491  15.251  0.0183 -0.2952 -0.0885
25686W        W43210   9.711   6.828   3.053 -0.2319 -0.1449 -0.2152
25687W        W43211  11.998  10.513  15.546 -0.0069 -0.2877 -0.1786
25688W        W43212   9.280   1.717  15.665 -0.1165  0.3956  0.1447
25689W        W43213  12.499  13.496  10.963 -0.1065  0.1627  0.1345
25690W        W43214   2.803   3.024   2.636  0.2080 -0.0615 -0.0531
25691W        W43215   1.647  17.092  11.013  0.3484  0.2779 -0.0460
25692W        W43216  14.128   6.098   3.367  0.0538 -0.0144 -0.1375
25693W        W43217   9.910   0.026   4.148 -0.1088  0.0369  0.0633
25694W        W43218   8.142   0.613   2.804 -0.0682 -0.0026  0.0060
25695W        W43219   9.246   7.145  13.722 -0.0751 -0.0695 -0.1191
25696W        W43220   6.344  11.903   3.788  0.4904  0.0123  0.0275
25697W        W43221  16.141   8.055   1.738  0.0158  0.0459 -0.0085
25698W        W43222   0.510  10.067  14.015 -0.2723 -0.3764 -0.0649
25699W        W43223  15.375   9.581   2.323  0.0943  0.0243 -0.0005
25700W        W43224  14.657  10.974  14.441  0.2575  0.0416  0.0923
25701W        W43225   0.016  15.924   5.129  0.0108  0.0317 -0.1607
25702W        W43226   8.939  10.593  11.104 -0.3849 -0.0621  0.0330
25703W        W43227  16.583   4.767  10.769 -0.3007 -0.3703 -0.1933
25704W        W43228  14.983  17.811  12.360 -0.2084 -0.1766 -0.2642
25705W        W43229   7.568   3.869  14.112 -0.1056  0.0761 -0.1504
25706W        W43230  11.526   9.508  10.945  0.2152 -0.0123 -0.2166
25707W        W43231   2.453   6.198  13.105  0.0044  0.1654 -0.3004
25708W        W43232   5.871   8.644   0.403 -0.1302  0.0414  0.1592
25709W        W43233  14.475  14.912  13.483  0.1332 -0.1424  0.1159
25710W        W43234  12.456   3.107   1.372 -0.1388 -0.3822  0.1155
25711W        W43235   5.871  12.211  11.529  0.3962  0.2323 -0.2472
25712W        W43236   2.230   8.274  13.928 -0.1933 -0.0391 -0.1219
25713W        W43237  11.418   1.064   2.690  0.0105  0.2002  0.2195
25714W        W43238   0.533  17.220   4.917  0.0286 -0.1280  0.0601
25715W        W43239  16.493  11.161   1.162 -0.2244 -0.1507 -0.2261
25716W        W43240   3.537   4.219   2.505 -0.1041  0.0334  0.2240
25717W        W43241  16.289  13.034   1.781  0.2038  0.0820 -0.0500
25718W        W43242  10.329  10.511   1.131 -0.0734  0.2954  0.3319
25719W        W43243   1.046  17.987   2.592  0.0534  0.4353 -0.0321
25720W        W43244   6.894  11.964  15.598  0.2666 -0.2863 -0.0795
25721W        W43245   0.909  17.908   4.440 -0.0386  0.1043 -0.2812
25722W        W43246  10.995  16.173   4.544 -0.4646 -0.2820 -0.0532
25723W        W43247   8.408  13.321  10.138 -0.2969 -0.1005 -0.3375
25724W        W43248  10.636  16.516  13.886 -0.1583 -0.2245 -0.0752
25725W        W43249  15.156  12.538   9.833 -0.2273 -0.2195  0.0383
25726W        W43250   1.719  13.837  12.089 -0.1977  0.0426 -0.0534
25727W        W43251  11.130  18.416  10.975 -0.1425 -0.0997  0.0965
25728W        W43252   5.740   8.828   1.765 -0.1564  0.4687 -0.0524
25729W        W43253  13.322   2.995  12.217  0.0817 -0.0953 -0.1599
25730W        W43254   6.588  17.782   4.289 -0.1067 -0.1161 -0.1165
25731W        W43255   7.044  12.829  10.739 -0.0484 -0.4150 -0.1448
25732W        W43256   3.659  13.605  10.029  0.1445 -0.0355 -0.0366
25733W        W43257   2.459   9.844   0.911 -0.2289 -0.1737  0.1536
25734W        W43258  14.173   6.784   2.849 -0.2212  0.0187 -0.2587
25735W        W43259   2.597  13.008  12.655  0.1406 -0.0149 -0.0411
25736W        W43260  12.876  15.584  12.618  0.0046 -0.0059  0.1932
25737W        W43261  15.487   9.914   1.904 -0.1675 -0.1744  0.1407
25738W        W43262   3.735   1.658  12.530  0.0815  0.0548  0.0106
25739W        W43263   0.634  15.607   2.084 -0.0701  0.2776 -0.3721
25740W        W43264  11.256  12.836  11.089 -0.0202  0.0214  0.0208
25741W        W43265   6.481  13.220  10.438 -0.3690  0.1463 -0.0816
25742W        W43266   9.058   1.630  12.640  0.2253  0.1812  0.0971
25743W        W43267  13.439   2.452   3.054 -0.1216 -0.0160  0.0953
25744W        W43268  10.936  14.563  12.506 -0.4115  0.0729 -0.2356
25745W        W43269  10.956  11.397   3.357 -0.3114  0.0914 -0.2481
25746W        W43270  12.776   0.035   0.068  0.2554  0.1510 -0.1750
25747W        W43271   1.703  16.054  15.614 -0.2979  0.3947  0.0881
25748W        W43272   6.872  11.115  14.486  0.0983 -0.1769  0.0909
25749W        W43273  10.538  12.872  10.497  0.2048  0.1064  0.1209
25750W        W43274   4.024  12.217  14.383  0.0494  0.0942 -0.0485
25751W        W43275   9.003  10.501   0.598  0.0278 -0.0315 -0.1846
25752W        W43276   9.942  14.365   4.448  0.1040  0.1160 -0.0246
25753W        W43277   2.984  14.740   0.867  0.1163  0.1133 -0.0473
25754W        W43278   8.909  11.943  14.799  0.0749  0.2927  0.2982
25755W        W43279   8.700   0.958  14.959  0.2700  0.4400 -0.1436
25756W        W43280  12.638   3.387  11.690  0.0473 -0.2221 -0.0328
25757W        W43281   5.070  18.342  10.582 -0.0021 -0.0228  0.0174
25758W        W43282  16.275   4.219   3.417 -0.0908 -0.0697  0.0569
25759W        W43283  14.553   2.175   1.638 -0.1945  0.0134 -0.1633
25760W        W43284  12.836  10.636   2.662  0.1300  0.0439 -0.0658
25761W        W43285  11.271  16.282  12.563  0.2585  0.0350 -0.1221
25762W        W43286  10.203  15.363  11.407 -0.0509 -0.0681  0.0113
25763W        W43287   1.352   6.200   0.970 -0.0924 -0.1602 -0.1422
25764W        W43288   7.053   7.829  14.960 -0.0780 -0.0817 -0.0451
25765W        W43289  12.512  17.324  14.781 -0.1012 -0.0637 -0.1427
25766W        W43290   7.621  18.349   2.955 -0.2183 -0.3175  0.0622
25767W        W43291   0.953   1.552  12.738  0.2210  0.3159  0.1166
25768W        W43292  16.571  15.808  14.964  0.0736  0.1540  0.0767
25769W        W43293   1.280  16.719  13.704  0.2002  0.1796 -0.2341
25770W        W43294  13.389   2.476   0.572 -0.1961  0.2628 -0.1086
25771W        W43295  15.753   3.743   2.793  0.3015  0.1968 -0.0377
25772W        W43296  12.451   8.085  12.203 -0.1758  0.0850 -0.1411
25773W        W43297   6.348  12.850  15.237 -0.1555  0.0095 -0.1471
25774W        W43298  17.861   0.301   2.489  0.2029 -0.0875 -0.0804
25775W        W43299   8.878   4.393   1.677 -0.1757 -0.0162  0.2233
25776W        W43300   4.560  17.946  14.273 -0.0275  0.3192 -0.1309
25777W        W43301   7.354  13.730   1.077  0.2193 -0.1515  0.0077
25778W        W43302   4.958   7.880   2.766 -0.1235  0.3226  0.1262
25779W        W43303  13.893  18.455  12.853  0.0577  0.2280 -0.0665
25780W        W43304   5.107  10.242   3.614 -0.1665 -0.0789  0.0322
25781W        W43305   3.695   9.982  11.053 -0.0267  0.0348 -0.0915
25782W        W43306  12.558   7.795  14.974 -0.0992  0.0890  0.2901
25783W        W43307   7.510   9.916   2.953 -0.0696 -0.0297 -0.0341
25784W        W43308   7.587  11.689  15.382 -0.4339 -0.0125  0.1646
25785W        W43309  16.496   2.537  13.027 -0.2631  0.0788 -0.1367
25786W        W43310   3.114  13.574  15.364  0.1080  0.2380  0.1248
25787W        W43311   2.433   0.746   0.118  0.2166 -0.2264 -0.2282
25788W        W43312   2.798   2.795   0.164  0.1120 -0.0909  0.0669
25789W        W43313   8.297   7.464   5.171  0.2193 -0.2911 -0.0179
25790W        W43314  13.378  10.723   4.072  0.3288 -0.1242 -0.0764
25791W        W43315  17.601  15.731  13.827 -0.1242 -0.1980  0.3796
25792W        W43316  16.720   4.490   0.585  0.1202  0.1365  0.1702
25793W        W43317   2.941  11.976  13.860  0.1125  0.0107  0.0648
25794W        W43318   5.954   3.191   2.368 -0.1476  0.0501 -0.0764
25795W        W43319   4.156   1.032   1.603 -0.2051 -0.1889 -0.0731
25796W        W43320   0.437   3.519  11.244  0.1206  0.0405 -0.0490
25797W        W43321   7.403   2.961  13.063  0.2010 -0.3998 -0.0305
25798W        W43322   2.254  12.546  13.141 -0.0561  0.0269 -0.0570
25799W        W43323   7.417  15.021  11.287  0.0517 -0.0509 -0.1549
25800W        W43324   9.728  10.804   0.065 -0.2863 -0.0711  0.0516
25801W        W43325   8.680  12.554  11.938  0.1371 -0.2497  0.1516
25802W        W43326  15.823  17.879   4.307 -0.0304  0.0505 -0.0436
25803W        W43327  14.350  14.738  11.752 -0.1532 -0.2458 -0.1063
25804W        W43328  11.017  13.918   0.834 -0.0311  0.2822 -0.1575
25805W        W43329  12.910  11.294  15.029  0.2434  0.3507  0.0270
25806W        W43330  15.037   8.303   0.160  0.2202  0.0476 -0.1954
25807W        W43331  17.221   2.172  12.447 -0.0152  0.1104 -0.0641
25808W        W43332   6.872  16.529  14.449 -0.3759  0.2376  0.1552
25809W        W43333  12.924   8.048  12.446 -0.1617 -0.1963  0.0400
25810W        W43334   7.150  14.539  12.003  0.2879 -0.0462  0.0440
25811W        W43335  18.139   1.867  12.591 -0.1235 -0.3880  0.0242
25812W        W43336  11.134   7.137  12.749 -0.2026  0.1622  0.0866
25813W        W43337  16.210   1.934   1.701  0.2438  0.1650  0.0364
25814W        W43338   0.226   4.142  14.438  0.0830 -0.2795 -0.1675
25815W        W43339  12.368   8.645  13.560 -0.3946 -0.1421 -0.1789
25816W        W43340  14.529  12.337  12.960 -0.1793 -0.1582  0.0389
25817W        W43341  10.298  14.091   5.146  0.0667  0.0017  0.1261
25818W        W43342   7.851   3.468   1.713  0.3073 -0.2637  0.1933
25819W        W43343   1.187   0.864  13.540  0.1771 -0.0110  0.2053
25820W        W43344  13.504  13.558   1.242  0.5103  0.1830 -0.0372
25821W        W43345   5.711   0.332  15.406  0.5219  0.1258  0.1105
25822W        W43346  11.303   8.556  10.664 -0.3310  0.0454 -0.0743
25823W        W43347   2.781   1.417   0.850  0.0127  0.0687  0.1359
25824W        W43348   0.376   6.153   1.701 -0.3166  0.0177  0.0909
25825W        W43349   4.896   4.650   5.407 -0.0416 -0.0324  0.0979
25826W        W43350   8.788   5.921   2.689  0.0181  0.0314  0.2263
25827W        W43351   2.502   1.568  13.768 -0.1733 -0.1978  0.0123
25828W        W43352  12.737   7.614  12.220 -0.0142  0.0198 -0.0880
25829W        W43353   5.101   0.770  14.811 -0.0761  0.3306  0.0920
25830W        W43354  12.903   5.257  10.669 -0.3932 -0.1155 -0.2817
25831W        W43355  10.227   7.134  13.672  0.2124 -0.0892 -0.0675
25832W        W43356  17.562  16.008   3.221  0.1446  0.2405 -0.0736
25833W        W43357  12.676   8.430  12.702 -0.0234  0.0603  0.1478
25834W        W43358  10.980  15.884   3.952 -0.1251 -0.0824  0.1997
25835W        W43359  14.164  14.906  15.396  0.0694  0.0478  0.0989
25836W        W43360   3.963   0.480   4.321 -0.2881  0.0652  0.1143
25837W        W43361  17.410  12.891  11.677 -0.0455 -0.0186 -0.3743
25838W        W43362   6.280   5.841  13.214 -0.3059 -0.1279 -0.1439
25839W        W43363   5.959  15.340  11.187  0.2427 -0.0675 -0.1191
25840W        W43364   0.130  14.461   0.573  0.0229  0.1192 -0.2834
25841W        W43365   8.112  14.733   1.519  0.2496 -0.0681 -0.0233
25842W        W43366  17.983   7.873   4.827 -0.1432  0.0832  0.0504
25843W        W43367   3.467  11.604  11.957  0.1996  0.1351 -0.1468
25844W        W43368   0.892  18.035   0.304 -0.1773  0.0348  0.3586
25845W        W43369   2.825  18.113  14.395  0.1924  0.1248  0.1565
25846W        W43370  16.420  16.809   3.161  0.1414 -0.1852 -0.2334
25847W        W43371   3.576   7.470  11.840  0.0666  0.3137  0.1066
25848W        W43372  14.137   2.473   0.071 -0.1510 -0.0587  0.1582
25849W        W43373   4.155   9.569   2.364  0.2821  0.5351 -0.0549
25850W        W43374   3.343   5.000  12.804  0.4129  0.0806  0.1701
25851W        W43375  11.646  13.973  15.413 -0.0169  0.1294 -0.1482
25852W        W43376   3.384   2.140   3.731  0.2053 -0.0707 -0.0463
25853W        W43377   3.527   8.636   4.569  0.0232 -0.5863 -0.0799
25854W        W43378   3.268  11.786  14.329 -0.0884  0.0187 -0.1049
25855W        W43379  17.274  10.548  11.131 -0.2419  0.1906  0.2700
25856W        W43380  10.735  13.553  14.281 -0.1044 -0.0598 -0.4344
25857W        W43381   1.743   6.973   1.406  0.1162  0.0096 -0.0630
25858W        W43382  13.151  17.913  13.792 -0.1157  0.0930  0.2328
25859W        W43383   9.376  12.118   2.352  0.3467 -0.0615 -0.1251
25860W        W43384  15.023  14.289  14.086  0.2006  0.0987  0.2573
25861W        W43385   3.671  12.063  12.112 -0.3159  0.0911  0.0557
25862W        W43386   3.543   2.964   4.330 -0.0221  0.0258  0.1968
25863W        W43387   1.090   4.027   4.740 -0.1400 -0.1779 -0.1418
25864W        W43388   3.436   4.812  11.997  0.4270 -0.0644 -0.2032
25865W        W43389  11.343   8.812  12.141 -0.2773  0.2834  0.1576
25866W        W43390   3.140  12.180   2.830 -0.0254 -0.0768  0.0889
25867W        W43391   5.885  17.054   4.307  0.2100 -0.2969 -0.0153
25868W        W43392   4.456   8.938   4.123  0.3520 -0.3730  0.2184
25869W        W43393  12.768   1.447  11.427  0.2606 -0.4890  0.0386
25870W        W43394  14.269  14.492   2.212  0.2433 -0.2226 -0.0106
25871W        W43395  13.817   6.958   1.386  0.2232  0.3899  0.0827
25872W        W43396   5.165   4.309  12.349 -0.0548  0.1876 -0.1438
25873W        W43397   9.903   7.455  13.372  0.0404 -0.3875 -0.0143
25874W        W43398  16.114  10.869  14.502  0.2136 -0.1715 -0.1739
25875W        W43399  12.990  17.611  12.263  0.1423 -0.1320 -0.1593
25876W        W43400   3.174   4.911  11.518  0.0338 -0.0372  0.0079
25877W        W43401  14.677   8.010   1.506 -0.1181 -0.0701 -0.0305
25878W        W43402   2.123  16.691  10.332 -0.0955  0.0937 -0.2607
25879W        W43403  14.341   7.570  10.667  0.0078 -0.4753 -0.1387
25880W        W43404  14.990   9.563  12.664  0.2957  0.3737  0.0230
25881W        W43405   4.762  17.605   2.663  0.2866 -0.3911 -0.1346
25882W        W43406   9.260  18.108   1.357 -0.2846 -0.2749 -0.0916
25883W        W43407   3.986  13.822  12.156 -0.0185 -0.1028  0.2412
25884W        W43408  16.165  13.514  13.811 -0.5971  0.1396  0.1187
25885W        W43409   1.679  14.755   4.342  0.0786  0.2426  0.1924
25886W        W43410   6.452   7.622  15.644  0.3371 -0.1753 -0.1222
25887W        W43411   9.967  12.312   2.436 -0.1906 -0.3899  0.3218
25888W        W43412   1.970  10.547   2.401  0.1173  0.2336  0.0657
25889W        W43413   7.201   1.250  15.643  0.1064  0.0285 -0.0081
25890W        W43414   2.845  13.507  10.508  0.0878  0.2513  0.1407
25891W        W43415   6.479  17.222  13.153 -0.0914 -0.0593  0.1546
25892W        W43416   8.902  10.162  11.547 -0.0568 -0.0856 -0.0296
25893W        W43417  12.647   4.381  10.921 -0.0228  0.1412 -0.2077
25894W        W43418   6.868  17.559   0.242  0.2555 -0.1598 -0.3213
25895W        W43419   1.571   7.825  13.012 -0.0213 -0.1589  0.1901
25896W        W43420  16.265   3.388  11.136 -0.2375 -0.3155 -0.0878
25897W        W43421  10.526  12.505   2.910  0.1295 -0.2359 -0.0972
25898W        W43422  12.396   5.702  10.532  0.1289 -0.2093 -0.1393
25899W        W43423  16.052  14.895  10.352 -0.1548 -0.0509 -0.3150
25900W        W43424   5.574  10.310  11.990  0.1273 -0.2843 -0.1588
25901W        W43425  14.251  18.063   2.181 -0.0712 -0.0802  0.1972
25902W        W43426   5.972   0.133  13.548 -0.7856 -0.1669  0.1499
25903W        W43427  12.751  15.809  14.749 -0.1019  0.0233  0.1116
25904W        W43428  10.896  16.498   0.090 -0.3301  0.1693  0.1673
25905W        W43429  14.822  11.159  11.031 -0.2181  0.1832  0.0302
25906W        W43430  18.040   3.898   4.848  0.2631 -0.3126 -0.0231
25907W        W43431  15.582   7.450  14.370  0.0831 -0.2386  0.2353
25908W        W43432  14.481   0.880   0.361 -0.1256  0.0743 -0.0757
25909W        W43433  16.078  10.169  15.509  0.1948  0.2209  0.2353
25910W        W43434  11.132  11.409  14.597  0.2819  0.0815 -0.1876
25911W        W43435   5.702   9.942  11.214  0.1710 -0.2146  0.2288
25912W        W43436   7.022   9.777  14.559 -0.2161  0.0306 -0.0204
25913W        W43437   6.843  17.981   1.100 -0.1152 -0.0473 -0.2712
25914W        W43438   0.536   9.124  12.205  0.0567 -0.0376 -0.0222
25915W        W43439  13.121  17.491   4.297 -0.1031 -0.0721 -0.1151
25916W        W43440   9.957   0.972  12.388 -0.1957 -0.1874 -0.0983
25917W        W43441  15.745  10.142   4.964  0.4638 -0.5510  0.2084
25918W        W43442   9.561  11.570   0.614 -0.1082 -0.0986  0.1638
25919W        W43443   6.268  17.994   3.585  0.2911 -0.0487 -0.0748
25920W        W43444   7.819  10.101   0.418  0.1934 -0.1862 -0.0653
25921W        W43445   5.653   9.469   5.560 -0.0232 -0.1450  0.0580
25922W        W43446  17.894   7.639   1.710 -0.1563  0.1805  0.1974
25923W        W43447  14.678   6.989  13.120 -0.0505 -0.0781  0.0809
25924W        W43448  17.737  14.023  15.073 -0.1553 -0.0015  0.1106
25925W        W43449  17.808   5.438  12.103  0.0757  0.1379 -0.1845
25926W        W43450   7.998   4.305  11.102  0.0572 -0.0068  0.2189
25927W        W43451   0.854  10.079  15.290  0.1784  0.0267 -0.3023
25928W        W43452  16.793  12.583  11.682  0.0530  0.0847 -0.1747
25929W        W43453   7.363  16.928   3.064 -0.0386  0.0755  0.2957
25930W        W43454  16.738  11.514  13.069  0.1775  0.0125  0.0175
25931W        W43455  16.467   0.001   1.684  0.0291  0.2054  0.1699
25932W        W43456  16.171  14.045  15.373 -0.3602 -0.2642 -0.1901
25933W        W43457   1.778  12.330  15.013 -0.0850  0.3872 -0.0113
25934W        W43458   3.512  17.158   1.787 -0.3718  0.1192  0.0167
25935W        W43459   9.692   4.626  12.271  0.0848 -0.1698 -0.0061
25936W        W43460   3.161   7.417  13.128  0.0852 -0.1163 -0.1642
25937W        W43461   6.564  14.597   4.108 -0.3631 -0.0431  0.1071
25938W        W43462   5.921   0.147  12.112  0.0558  0.0450  0.1368
25939W        W43463  17.546  17.578  14.787  0.1211 -0.0361  0.2029
25940W        W43464   0.653   3.097  12.900 -0.0339  0.2333 -0.0639
25941W        W43465   7.623   4.577   3.769 -0.1854 -0.0864 -0.0968
25942W        W43466   1.959   2.743   4.146 -0.0250 -0.0853 -0.1298
25943W        W43467  14.109  10.603  11.735  0.2672 -0.0530 -0.1832
25944W        W43468   3.137  16.102  11.197 -0.2113 -0.0264 -0.0038
25945W        W43469  12.093  17.409   4.067  0.2139 -0.1510  0.1381
25946W        W43470  16.707  17.795   5.159  0.2627 -0.1974 -0.0556
25947W        W43471   2.511  10.896   3.683 -0.1745  0.0428 -0.1255
25948W        W43472   1.874   6.227   2.052  0.1664 -0.2767  0.1882
25949W        W43473  14.176  10.994  14.911  0.0412  0.0441  0.2778
25950W        W43474   9.690   3.174   0.845  0.0128  0.0707  0.3070
25951W        W43475  16.546   3.424   2.063  0.0194  0.1245 -0.0183
25952W        W43476   0.637   6.431  11.203 -0.0007 -0.0964 -0.0976
25953W        W43477   2.183  16.168  12.153  0.2721 -0.1556 -0.0082
25954W        W43478   8.223   7.311   3.885 -0.1119 -0.2028 -0.0495
25955W        W43479   4.716   0.292   6.191  0.2933  0.3545 -0.0062
25956W        W43480   3.282   2.376   4.405  0.3735  0.1265  0.1123
25957W        W43481   0.738   7.491  13.278  0.1865  0.1239 -0.3943
25958W        W43482  10.162  13.987  13.203  0.1602  0.0227 -0.0377
25959W        W43483  16.533   7.105  10.661 -0.0334 -0.0164  0.1841
25960W        W43484   8.684   2.109   2.273  0.0245 -0.2644 -0.0274
25961W        W43485   9.601  11.673  15.711  0.3683  0.0543 -0.0396
25962W        W43486  15.856  10.326  13.653 -0.3760  0.0875 -0.0005
25963W        W43487   8.976   8.313  10.210  0.0390  0.0389  0.0151
25964W        W43488   9.368  15.161   1.838  0.0170  0.2510  0.2001
25965W        W43489  15.328   0.880  14.506 -0.0953 -0.0237  0.0407
25966W        W43490   7.148   1.225   5.413  0.1252 -0.1294 -0.0670
25967W        W43491  14.256   5.179  13.171 -0.2017  0.4162 -0.0428
25968W        W43492  13.981   6.496   3.753 -0.0670 -0.0029  0.1179
25969W        W43493   8.013   9.424   0.730 -0.2214  0.1432  0.2085
25970W        W43494   0.119  15.050   2.133  0.2790 -0.1577  0.2262
25971W        W43495  14.454   2.199   0.329  0.1609  0.1725  0.2025
25972W        W43496   9.340  11.740  14.354 -0.1720 -0.2616  0.3927
25973W        W43497  15.884  15.856   4.509 -0.0575 -0.0098 -0.0596
25974W        W43498   8.679   7.082  11.943 -0.1976 -0.0006  0.1593
25975W        W43499   6.972  11.458   3.474  0.0860  0.1106 -0.0874
25976W        W43500  13.746  10.084  10.838  0.1501 -0.1046 -0.1252
25977W        W43501  13.493   3.502  12.281 -0.1695  0.3255 -0.3764
25978W        W43502  16.313   0.995  11.378 -0.0654 -0.0722  0.1881
25979W        W43503   4.129  16.122   1.105 -0.0011  0.1895  0.3268
25980W        W43504   0.486  16.917  14.124  0.0890 -0.0425 -0.1588
25981W        W43505   0.818   7.240  13.732 -0.1483 -0.0824 -0.2475
25982W        W43506   7.447  10.152  14.514 -0.0075  0.4562  0.1356
25983W        W43507  14.055  14.520   0.495 -0.0485 -0.1066 -0.2009
25984W        W43508  10.295   5.020   1.210 -0.1641 -0.2232 -0.1884
25985W        W43509   9.591   7.130   2.013 -0.0348  0.1368  0.1038
25986W        W43510  15.566   1.133   4.347  0.1384 -0.0695 -0.2473
25987W        W43511  10.844  15.804   2.858 -0.2190 -0.1793  0.2505
25988W        W43512   8.607   1.267  15.361  0.2518  0.3404 -0.5188
25989W        W43513   2.883   9.800   0.548 -0.0687 -0.0599 -0.3475
25990W        W43514  16.772   6.912   4.927 -0.0034 -0.0572  0.1147
25991W        W43515  12.661   8.356   1.448 -0.1353 -0.1347  0.0951
25992W        W43516   5.328   7.682   3.152  0.1765  0.0003 -0.2994
25993W        W43517   2.084   5.757  11.866  0.2378 -0.1660  0.3293
25994W        W43518   1.396   9.993  13.503 -0.2501 -0.2147 -0.0113
25995W        W43519  15.572  10.892   2.441 -0.0586 -0.0753  0.0861
25996W        W43520   6.950   6.938   3.352 -0.1649  0.3095  0.2317
25997W        W43521  11.625  12.501  13.445  0.4146 -0.1343 -0.1241
25998W        W43522   4.054  16.953  10.394 -0.0844 -0.1834 -0.1079
25999W        W43523  12.869   0.951  14.167  0.1277 -0.3076 -0.0761
26000W        W43524  17.909  17.136   3.876 -0.4204  0.0518  0.1144
26001W        W43525  14.946   0.249  14.306 -0.0743  0.1547  0.2489
26002W        W43526   1.130  16.276  13.946 -0.1088  0.2121 -0.0230
26003W        W43527  10.146   9.588   1.534  0.0147 -0.0631  0.2935
26004W        W43528  16.263   2.096   0.045  0.0201  0.0775  0.0408
26005W        W43529   5.127  16.218  14.898 -0.0815 -0.1365 -0.2672
26006W        W43530  17.145  12.558   2.856 -0.0975  0.0916 -0.1213
26007W        W43531   3.018   1.841   1.031 -0.2883  0.0128 -0.2864
26008W        W43532  10.422   9.829   2.365  0.0127  0.0982  0.1202
26009W        W43533  15.559  10.408  15.494 -0.1866 -0.0342  0.0586
26010W        W43534  15.475  11.486  11.732 -0.1313  0.0482 -0.0004
26011W        W43535   6.074  15.981  14.895 -0.1732  0.1195 -0.3048
26012W        W43536  13.312  14.039  11.889  0.0534  0.1877  0.3032
26013W        W43537   4.154   5.149  11.362 -0.0961  0.2480  0.3131
26014W        W43538   9.422   1.225  12.382 -0.3139  0.0170 -0.0339
26015W        W43539   7.422  12.747  13.539  0.1187 -0.1386 -0.0493
26016W        W43540  16.639  17.613  15.249 -0.2724 -0.2613  0.2213
26017W        W43541  17.343  10.464   3.521 -0.1484 -0.3987  0.1808
26018W        W43542  11.078   1.662   1.235 -0.1452  0.0236  0.1409
26019W        W43543   4.891  12.829   1.759  0.0363  0.0789 -0.0202
26020W        W43544   9.497  16.181   3.101  0.1677  0.3712  0.0765
26021W        W43545  13.639   0.264  14.556 -0.2028  0.1910 -0.0651
26022W        W43546   7.604   9.560   3.879  0.1898 -0.2978  0.1738
26023W        W43547  16.837  17.352   4.502  0.1236  0.1941 -0.2403
26024W        W43548  14.806  11.404  11.578  0.2610 -0.2186  0.0774
26025W        W43549  16.686   9.620   4.328 -0.0473  0.0988  0.3286
26026W        W43550  18.338   0.186   0.364  0.1686  0.0385  0.0904
26027W        W43551  12.040   1.962  11.550 -0.2516 -0.3317  0.2288
26028W        W43552   9.768   6.676  15.569  0.3678  0.0245 -0.0982
26029W        W43553  13.829   5.018  12.948  0.2645  0.2374 -0.0632
26030W        W43554   2.739   2.769   0.735  0.2229  0.2144  0.0818
26031W        W43555  12.047  10.074   4.464  0.0044 -0.0939 -0.2064
26032W        W43556   5.606   7.571  13.804 -0.1405 -0.1255  0.0494
26033W        W43557  14.746  14.656   0.674 -0.1876  0.3214 -0.0656
26034W        W43558   6.467  11.390   3.597  0.0319  0.0877 -0.4433
26035W        W43559   0.476   5.788   3.814  0.0255  0.2857 -0.1951
26036W        W43560  17.412   1.411   2.841 -0.1938  0.1290 -0.2028
26037W        W43561  17.680  14.154  11.955 -0.1779  0.0797  0.3711
26038W        W43562  16.370   8.751  11.477 -0.3589 -0.1710 -0.0081
26039W        W43563   2.318   1.109   2.357 -0.0386  0.0930  0.1228
26040W        W43564   0.169  11.296  10.831 -0.0541 -0.2480  0.0306
26041W        W43565  10.360   4.648   3.995 -0.1805  0.1897 -0.0703
26042W        W43566   6.692  15.219  11.512 -0.1043  0.1977 -0.1578
26043W        W43567  17.854   5.482  14.039  0.4284  0.0843 -0.0046
26044W        W43568   3.202  12.786   5.567  0.1947 -0.0268 -0.2378
26045W        W43569   0.347  14.304  14.090  0.0108 -0.0925  0.2138
26046W        W43570  15.514  10.272   1.498 -0.0131  0.1090 -0.1063
26047W        W43571   3.634   7.424  14.664  0.0524  0.1513  0.0503
26048W        W43572   2.883  17.016   3.745 -0.0599 -0.0576 -0.2263
26049W        W43573   9.410   3.312  14.161  0.0364  0.0583 -0.1126
26050W        W43574  12.612  10.142   2.707 -0.0863 -0.2588  0.2027
26051W        W43575  17.039  12.295  14.318  0.2813 -0.1697 -0.0410
26052W        W43576   6.783  13.415  11.426 -0.1931  0.1284  0.2234
26053W        W43577   4.843  17.250   0.404 -0.2561 -0.1230 -0.1387
26054W        W43578  10.830   0.850  11.310  0.0770 -0.2145 -0.0367
26055W        W43579   2.369  11.813  13.854  0.5417  0.1298 -0.0342
26056W        W43580   8.351  17.689   4.677  0.0264 -0.0569 -0.3569
26057W        W43581  11.306   2.543   1.983 -0.2551 -0.0415 -0.3524
26058W        W43582  17.173   2.843  11.823  0.5010 -0.2300  0.0843
26059W        W43583  11.423   8.834   1.831  0.0531  0.0672 -0.2840
26060W        W43584  15.421  12.371   1.036  0.0928 -0.1477 -0.1644
26061W        W43585   6.015   1.099   3.839  0.0500  0.0847  0.1762
26062W        W43586  15.816  17.703   1.627  0.0165 -0.2491  0.1213
26063W        W43587   4.183   6.582   4.856  0.1476 -0.2324 -0.4371
26064W        W43588   6.357   4.762  11.829  0.0943  0.1092 -0.3817
26065W        W43589   7.741  17.866  13.900  0.2409 -0.0016  0.0762
26066W        W43590  15.117  15.522  12.435  0.0192  0.0517  0.0197
26067W        W43591   0.455   7.130   1.751  0.1961 -0.2657 -0.2484
26068W        W43592  13.584  14.799   5.146 -0.1182  0.3465 -0.0222
26069W        W43593  18.366   1.366   1.958 -0.2396  0.0790  0.3099
26070W        W43594   8.759   8.592   6.018 -0.0219 -0.0339 -0.1342
26071W        W43595   2.055   5.887   2.787 -0.0050 -0.2855  0.0298
26072W        W43596   6.550  10.819   0.693 -0.0110  0.2285  0.0854
26073W        W43597  10.124  11.410  12.961  0.0561 -0.0149  0.0977
26074W        W43598   9.435  16.982  15.512 -0.1400 -0.2267 -0.2108
26075W        W43599  15.320   0.475   3.727  0.0989 -0.1322 -0.2579
26076W        W43600   3.329   2.590   1.867 -0.0373  0.0010  0.0252
26077W        W43601  17.501   0.425  14.770 -0.0198 -0.0318 -0.2274
26078W        W43602   5.071   0.154  14.176 -0.0843 -0.0335  0.0210
26079W        W43603  13.125   9.854  13.220  0.1132  0.0900  0.1874
26080W        W43604   9.088   6.885   9.672  0.0138 -0.0918 -0.0954
26081W        W43605   1.987  15.158   4.350  0.3818  0.1036 -0.0612
26082W        W43606  13.444  18.022  11.515 -0.0870  0.0449  0.0310
26083W        W43607   5.275  10.632  12.652  0.2890  0.2810 -0.0039
26084W        W43608  12.351   7.031  10.656 -0.0272 -0.0733  0.0310
26085W        W43609  13.581  14.378   0.680 -0.1871  0.0677  0.0053
26086W        W43610   2.400  16.918   2.314 -0.2652 -0.0489  0.0709
26087W        W43611  18.289  17.979   4.214  0.0008 -0.0264  0.2352
26088W        W43612  16.508   5.998   3.472 -0.0026 -0.1486 -0.4033
26089W        W43613   8.117  14.230   3.099  0.0972  0.0958  0.0315
26090W        W43614  16.118   9.975   0.229  0.4394 -0.1189  0.0216
26091W        W43615  13.084  17.649   3.467  0.4726 -0.0175  0.3365
26092W        W43616   1.122   1.364  13.528 -0.2961  0.1647 -0.0564
26093W        W43617  17.227   5.311   2.551 -0.2409 -0.0136 -0.0097
26094W        W43618   5.827  16.455   0.651  0.5163  0.0354  0.2625
26095W        W43619   2.795   6.894  15.554 -0.0829  0.0075 -0.0998
26096W        W43620   7.531   2.300   1.397  0.2325 -0.2827 -0.0460
26097W        W43621   5.961   9.005   3.833  0.0373  0.0376 -0.0175
26098W        W43622   8.197  10.017  13.301 -0.0124  0.2194 -0.0385
26099W        W43623  17.033  11.805  10.706  0.0364 -0.0849 -0.2063
26100W        W43624   9.632  15.117  12.218 -0.1802 -0.0394  0.0013
26101W        W43625  12.301  14.075   1.276 -0.5116 -0.0738  0.0062
26102W        W43626  17.747  18.277  12.088 -0.0939 -0.2750  0.0601
26103W        W43627   3.202  13.629   2.325 -0.1017  0.3167 -0.3603
26104W        W43628   7.579   1.894   3.948  0.0000  0.1144  0.1376
26105W        W43629   1.739  16.394  14.613  0.1452  0.2880 -0.1924
26106W        W43630  17.346   4.817   2.291 -0.2884  0.1257 -0.1224
26107W        W43631  18.193  11.474   1.070 -0.1728 -0.3347 -0.2508
26108W        W43632  11.226   1.965  11.706  0.2205 -0.1737  0.1754
26109W        W43633  12.925  12.928   2.617 -0.0351  0.0685 -0.4108
26110W        W43634   2.133  14.273  14.703  0.0390 -0.0141  0.1932
26111W        W43635   4.994  14.443   2.388  0.0141 -0.1865  0.1256
26112W        W43636   0.100   8.798  11.454 -0.2905  0.0658 -0.1250
26113W        W43637   1.067   0.298  13.387 -0.2149  0.0639  0.0133
26114W        W43638   7.737  13.393  13.436  0.0126  0.1324 -0.0064
26115W        W43639   6.611  13.311   3.755 -0.4162  0.1527 -0.3569
26116W        W43640  14.042   5.846  12.414 -0.3124 -0.1276  0.4535
26117W        W43641   5.432  11.965  11.261 -0.1138 -0.1790  0.0927
26118W        W43642  11.868   9.863  14.254  0.2388  0.3277  0.0895
26119W        W43643  14.004   1.320   2.158 -0.2537 -0.0067 -0.0591
26120W        W43644  12.779   7.668   4.357 -0.0119  0.0860  0.2844
26121W        W43645   6.378   1.378   4.122 -0.2271 -0.4553  0.0541
26122W        W43646  10.249  13.962   0.449 -0.0578  0.1746  0.0268
26123W        W43647   6.714   5.600   1.239 -0.0118 -0.5789 -0.1998
26124W        W43648  12.305   5.479   2.604 -0.3157 -0.2638  0.4294
26125W        W43649  10.365   0.432  10.830 -0.1632 -0.0623 -0.1320
26126W        W43650  10.631  16.308  13.066  0.0593  0.1189 -0.0430
26127W        W43651  14.273   7.148   0.146 -0.1641 -0.1678 -0.2915
26128W        W43652   8.286  11.484  10.651  0.1479  0.0639 -0.2430
26129W        W43653   6.804   4.605   3.349  0.2845  0.0500 -0.1243
26130W        W43654   1.819   4.991  11.960  0.0491 -0.1840  0.2045
26131W        W43655  14.014   6.571  14.271 -0.1284  0.3044 -0.2882
26132W        W43656  12.033   1.099  12.615  0.2316  0.1160  0.0676
26133W        W43657   6.487  11.776   1.686 -0.0158 -0.1645  0.1081
26134W        W43658   8.258   4.007  13.593 -0.1848  0.2025  0.3313
26135W        W43659  17.906  11.023  13.104  0.1187  0.0180 -0.0824
26136W        W43660   5.426  17.444  11.867  0.2285 -0.0954 -0.1402
26137W        W43661  13.002   2.293  15.525 -0.1111  0.3140 -0.1619
26138W        W43662   1.911   2.936   0.414 -0.2653  0.1279  0.3358
26139W        W43663   2.618   2.174  13.518 -0.0546  0.1292  0.1163
26140W        W43664  17.096   4.694   4.375  0.4015  0.0733 -0.1235
26141W        W43665   5.775   0.733   1.772  0.1813  0.0817 -0.2386
26142W        W43666  13.155  12.629   4.383 -0.1199  0.2405 -0.2081
26143W        W43667   4.753   6.615  13.653  0.0487 -0.2851 -0.1707
26144W        W43668   8.012   9.787   2.884  0.2462 -0.1746 -0.0267
26145W        W43669   4.171  18.181   3.405 -0.0308  0.1516  0.0211
26146W        W43670  17.952   1.134   2.884  0.3126  0.3987 -0.1959
26147W        W43671  10.538   8.222   5.066  0.0755  0.1630 -0.0269
26148W        W43672  13.859   0.697  14.700 -0.2406  0.0523  0.0177
26149W        W43673   5.947   6.815  11.891 -0.3595 -0.1602 -0.6629
26150W        W43674   9.393   4.240  12.195  0.0105  0.2741  0.0205
26151W        W43675  13.960  16.478   6.180 -0.1783  0.2860  0.0363
26152W        W43676   6.635  10.249   0.441  0.1933  0.1379 -0.0677
26153W        W43677   8.052  14.716   5.088 -0.1832 -0.2561 -0.1158
26154W        W43678  10.378  17.167  14.373 -0.1911  0.1371  0.1043
26155W        W43679  15.078   4.740   1.898  0.1646 -0.0491 -0.2475
26156W        W43680  10.521   4.553   0.306  0.0184  0.1173 -0.0092
26157W        W43681   0.236   1.372   3.201  0.2012 -0.0752  0.1359
26158W        W43682   2.233   2.470  15.391  0.0768 -0.2074  0.0035
26159W        W43683  12.630  11.741  11.333  0.0307  0.2566  0.1641
26160W        W43684  15.665   5.601   4.036 -0.0076 -0.1379  0.2531
26161W        W43685   2.029   5.482  15.695  0.1776 -0.3208  0.2188
26162W        W43686   7.735   6.113   3.252 -0.0227 -0.0764 -0.0295
26163W        W43687  13.574  17.595   1.449 -0.0937  0.3305 -0.0339
26164W        W43688   7.869   9.866  12.447 -0.0681  0.0133 -0.0208
26165W        W43689  14.397  10.789   1.635  0.0077  0.3386 -0.2212
26166W        W43690  15.476   9.455  12.651 -0.1706  0.0762 -0.0365
26167W        W43691   4.313   0.227   5.940  0.1188  0.0154 -0.0379
26168W        W43692   8.660   7.805  12.927  0.2276  0.4398  0.0660
26169W        W43693  10.050  17.553  10.368 -0.4175  0.2167 -0.0414
26170W        W43694   7.256   3.316  11.913 -0.0141  0.1922 -0.0081
26171W        W43695  14.455   2.539   3.372 -0.3924 -0.1145 -0.0875
26172W        W43696   8.427  11.712   2.642 -0.3006  0.0488 -0.0066
26173W        W43697   9.716   1.547   0.155 -0.0633  0.0332  0.1695
26174W        W43698   4.131  10.181  13.775  0.1712  0.0972 -0.1288
26175W        W43699  16.519   8.191  12.330  0.2314  0.0397 -0.0378
26176W        W43700  17.711   0.150   5.240 -0.1850  0.4861  0.1903
26177W        W43701   9.241   5.045   1.067 -0.1937  0.0058  0.3207
26178W        W43702  18.465  11.583  11.174  0.1352 -0.1890 -0.1300
26179W        W43703   7.092  18.229  14.384 -0.0316 -0.2473 -0.0636
26180W        W43704  10.309  17.803  11.580  0.1369  0.1176 -0.3073
26181W        W43705   4.814  10.926   4.067  0.3680 -0.0495 -0.0396
26182W        W43706   5.805  15.381   4.882 -0.1380 -0.1201 -0.2262
26183W        W43707  11.660  16.979  11.493  0.0384  0.3323  0.2052
26184W        W43708   4.310  12.334  13.917  0.2100  0.2368  0.2923
26185W        W43709   7.662  17.186   2.024 -0.0893 -0.1056  0.3081
26186W        W43710   8.932  12.098  15.489 -0.1360  0.3087 -0.0616
26187W        W43711  11.915   3.126   2.940 -0.3404 -0.0486 -0.2819
26188W        W43712   9.072   0.300  12.197 -0.2656 -0.0765 -0.0817
26189W        W43713  16.186   2.152   3.100 -0.0928  0.0386  0.2301
26190W        W43714  18.282  10.324  14.172 -0.0144 -0.2527 -0.1890
26191W        W43715  15.803  14.751  13.921  0.2474  0.1628  0.1175
26192W        W43716   6.078   9.262  10.553 -0.1701  0.2507  0.0656
26193W        W43717   6.975  10.688   5.694 -0.0585  0.0196 -0.1254
26194W        W43718   9.319  15.532   2.292  0.1052 -0.0612 -0.1189
26195W        W43719   5.817  11.987   3.235 -0.0626 -0.0694 -0.0817
26196W        W43720   3.713  17.842  14.259 -0.0437 -0.1740 -0.0694
26197W        W43721   4.116   6.856   5.375  0.1648 -0.0246  0.1307
26198W        W43722   2.181   9.762  11.639 -0.2326  0.1112 -0.1253
26199W        W43723  13.898   4.458  12.514  0.2319 -0.1605 -0.3744
26200W        W43724   5.284   6.024   1.276  0.2836  0.1018  0.0581
26201W        W43725  12.415   2.429  14.797 -0.3113  0.2762 -0.1517
26202W        W43726   2.608  11.528   0.832 -0.0251  0.1521 -0.2546
26203W        W43727  18.129   6.410  14.794  0.1405  0.2030  0.0906
26204W        W43728  10.341   8.925   0.470 -0.0783 -0.0332 -0.3477
26205W        W43729  18.187  16.673   2.161  0.3697  0.0027 -0.0936
26206W        W43730   8.579   6.724  13.091  0.0444 -0.1430  0.3215
26207W        W43731  16.933  14.033  12.785 -0.1058 -0.0927  0.1439
26208W        W43732  14.647   7.990  10.902  0.1359 -0.1178  0.0233
26209W        W43733   7.848  14.051  15.041 -0.0000 -0.0627 -0.3700
26210W        W43734   4.578   9.844  13.993  0.0753  0.2133  0.1041
26211W        W43735   7.714  14.359   1.681  0.2627  0.4100  0.1142
26212W        W43736  12.509   3.257   3.005  0.0574  0.0810  0.0306
26213W        W43737  10.793   0.058  11.897 -0.1045 -0.0130  0.1558
26214W        W43738   7.027   5.195  12.170 -0.1120  0.2229  0.1088
26215W        W43739  10.994   2.471   4.412 -0.2642  0.1677 -0.2010
26216W        W43740  17.165   7.839   2.528 -0.0475  0.0494 -0.3578
26217W        W43741  12.181   4.969   3.930 -0.1571  0.0702 -0.0849
26218W        W43742   8.604  10.194  15.027 -0.1701  0.1788  0.0145
26219W        W43743  11.896   6.943  15.627  0.1232 -0.3657 -0.0971
26220W        W43744  18.109   3.252   2.192 -0.1051 -0.2913 -0.0688
26221W        W43745  17.527   6.383  15.584 -0.1034  0.0279  0.0035
26222W        W43746  15.246   4.617   4.912 -0.0277 -0.2321 -0.2197
26223W        W43747  17.850   9.318  13.554  0.2697  0.1856 -0.1413
26224W        W43748   4.317  16.917   2.925 -0.1661 -0.2362  0.0966
26225W        W43749   9.737  16.074  12.291  0.3138  0.1744  0.0934
26226W        W43750   5.011   9.246   2.893 -0.1927 -0.0491  0.1648
26227W        W43751   7.578  18.124  14.318  0.1834 -0.2322 -0.4481
26228W        W43752   3.045   6.757   3.491  0.0351 -0.0216 -0.2034
26229W        W43753   5.691  17.475  14.879  0.1970 -0.2848 -0.0881
26230W        W43754  13.663  16.432  11.852 -0.3524  0.0357 -0.0574
26231W        W43755   8.313  14.052   5.197 -0.1116 -0.1492  0.0841
26232W        W43756  18.291   2.207   3.609  0.0426 -0.0053  0.1789
26233W        W43757   8.010   9.022  14.795  0.0651  0.3184  0.0366
26234W        W43758   6.160   5.288   4.603  0.1484 -0.1743  0.0820
26235W        W43759   3.892   5.796  13.229  0.0703  0.0498  0.0476
26236W        W43760   4.049   8.910   2.672  0.0726 -0.1205  0.1645
26237W        W43761   4.028  17.184  13.870  0.0112  0.2169 -0.0459
26238W        W43762   6.024   2.224  13.901 -0.0986  0.1941  0.0914
26239W        W43763   0.113   9.964  14.235 -0.2985  0.1852 -0.2036
26240W        W43764   2.682   1.313  10.209 -0.1349  0.1461 -0.1830
26241W        W43765   3.988  13.361  11.800 -0.1372  0.2083  0.1302
26242W        W43766  16.333  14.048   0.675 -0.1505 -0.0271 -0.2755
26243W        W43767   0.021   5.383   2.616 -0.0405 -0.0562 -0.0703
26244W        W43768   1.970   8.955  12.807  0.1294 -0.0329 -0.0333
26245W        W43769   5.402  15.762  12.942  0.2198 -0.1331 -0.1292
26246W        W43770   9.858   2.480   1.907  0.1267  0.1693 -0.2684
26247W        W43771   2.537  14.522  13.902  0.0196 -0.2308 -0.0531
26248W        W43772   4.003   0.346  14.826 -0.1143 -0.1691 -0.3838
26249W        W43773   3.987  16.643   2.013  0.1093 -0.4189  0.1742
26250W        W43774  16.832   3.109   1.783 -0.2059 -0.1862  0.2430
26251W        W43775   4.102  13.269  13.583 -0.0631 -0.1314  0.1790
26252W        W43776   5.026  10.563  14.585  0.4696 -0.3962 -0.1625
26253W        W43777   9.931  13.055  14.236  0.0796 -0.0238  0.2336
26254W        W43778  13.384   9.412   4.218  0.1596  0.1322 -0.2685
26255W        W43779   8.514  14.099   4.105 -0.0884  0.1713 -0.0103
26256W        W43780  12.895   3.747  15.504  0.1610 -0.1452 -0.0535
26257W        W43781   6.902   4.572   0.881 -0.2168 -0.1205  0.1861
26258W        W43782  18.239  13.698   0.344  0.1722 -0.0957  0.0433
26259W        W43783  17.588   5.305   2.097 -0.2481  0.1035  0.1789
26260W        W43784  13.109   3.516   0.562  0.2202  0.3195  0.0631
26261W        W43785  13.555   2.555   2.087  0.1004  0.2572  0.4589
26262W        W43786  16.180   6.976   2.497 -0.0685  0.1648  0.0015
26263W        W43787   8.051   8.601   2.433  0.1685 -0.3037 -0.2127
26264W        W43788  16.179   5.663  14.477  0.0487  0.0685 -0.2620
26265W        W43789   5.290  18.080   0.128 -0.4326  0.0336 -0.0132
26266W        W43790   1.512  17.137  15.708 -0.0099  0.4152 -0.1986
26267W        W43791  17.349  17.018  11.085  0.2254  0.1451  0.0871
26268W        W43792   3.934  16.160  13.911 -0.3289 -0.0792  0.0501
26269W        W43793  14.535  16.699  12.157  0.1534 -0.1100 -0.0018
26270W        W43794   3.878   2.217   3.591 -0.1031  0.0820  0.1820
26271W        W43795  18.018  13.431   3.426  0.3237  0.0944 -0.1735
26272W        W43796  15.262  14.573   0.278  0.2560  0.1018  0.1702
26273W        W43797   7.430   7.400  11.567  0.0069  0.2367  0.3721
26274W        W43798  16.462   1.449  12.002 -0.1805 -0.1900  0.0047
26275W        W43799  17.225  10.471  15.155 -0.1595 -0.0859 -0.2716
26276W        W43800   2.581  12.789   3.146 -0.1693 -0.0853  0.2198
26277W        W43801  14.026   0.654  13.284 -0.3290  0.0568 -0.0400
26278W        W43802   4.448   1.129   2.111 -0.1313 -0.1411  0.2157
26279W        W43803  17.631  12.902  12.681 -0.0141 -0.0662  0.5101
26280W        W43804   6.549  11.364   0.741  0.0375  0.2786 -0.0223
26281W        W43805   5.796  15.539   0.423 -0.1770 -0.0603  0.0789
26282W        W43806  12.210  14.588   3.711  0.0849 -0.0762  0.1983
26283W        W43807  10.390  17.702   0.943 -0.1865  0.1656 -0.0913
26284W        W43808   8.303   5.601  12.270 -0.0725 -0.0915  0.0298
26285W        W43809  11.676   8.631  11.066 -0.2836 -0.2629  0.1028
26286W        W43810  10.302  12.717   1.157 -0.0753 -0.0046 -0.0179
26287W        W43811   9.917   4.407   4.153 -0.0404  0.1565  0.1360
26288W        W43812   6.538   9.551  12.263 -0.2616  0.0200  0.0359
26289W        W43813  16.066   5.202  14.249 -0.2801  0.0458 -0.0772
26290W        W43814  12.974   7.519  10.820  0.1961 -0.1266 -0.0637
26291W        W43815   8.445   5.280   0.129  0.1501  0.1605 -0.1504
26292W        W43816   1.934   3.534  10.117 -0.2697  0.1027 -0.2190
26293W        W43817   8.756  11.614   4.266 -0.0788 -0.1392  0.3712
26294W        W43818  13.700  13.348  12.490  0.0798 -0.6086 -0.1778
26295W        W43819  17.527   5.324   0.441 -0.0139 -0.1514 -0.0209
26296W        W43820  17.462  14.601   5.304 -0.1230 -0.3285 -0.2002
26297W        W43821  17.691   4.520  14.470 -0.0509  0.0962 -0.0186
26298W        W43822   5.252   1.659  15.668  0.2340  0.5306  0.1590
26299W        W43823   9.192  16.575  15.490  0.0560  0.1035 -0.2344
26300W        W43824   2.876  18.250   3.137  0.0027  0.0055  0.0084
26301W        W43825  10.473  16.054   3.525 -0.0573  0.3425 -0.4877
26302W        W43826   1.104   7.722   1.237 -0.0968  0.2802 -0.3753
26303W        W43827   3.824  18.389   1.028 -0.1380  0.1811 -0.1914
26304W        W43828  16.590   8.227   3.690  0.3556  0.1342  0.1294
26305W        W43829  17.686  12.549   2.038 -0.2587  0.0440 -0.1633
26306W        W43830  13.558   7.579   2.377 -0.2206 -0.0971  0.2791
26307W        W43831  14.831   6.944   2.852 -0.1468 -0.1164 -0.0946
26308W        W43832  16.565  13.374  11.152 -0.1781 -0.1755 -0.1847
26309W        W43833  13.897   9.012  12.369  0.1604  0.0910  0.1913
26310W        W43834   6.733   9.144   1.231  0.1678 -0.1528 -0.1701
26311W        W43835   7.341  12.711   1.786  0.0662 -0.1540  0.2257
26312W        W43836  15.752  11.952  12.534  0.1558 -0.0067  0.2693
26313W        W43837  14.375  10.562   2.905 -0.0186  0.2914  0.2623
26314W        W43838  13.954  10.406  14.092  0.0284 -0.0711  0.0503
26315W        W43839  11.325  16.025   1.899  0.1348 -0.0713  0.0143
26316W        W43840   7.066   3.004   1.723  0.0104  0.1361 -0.2418
26317W        W43841   6.100  13.954   3.854 -0.1857 -0.1879  0.1589
26318W        W43842  12.155   1.724  13.232  0.0966 -0.4147  0.0452
26319W        W43843   2.382   8.790  15.471 -0.1294  0.0424  0.2139
26320W        W43844   9.589  12.866  12.324 -0.2214  0.0953 -0.0321
26321W        W43845   0.939  13.748   0.651  0.0338 -0.0708 -0.0965
26322W        W43846  13.366   9.276  12.380 -0.0541 -0.2100 -0.0474
26323W        W43847  13.548   8.162  14.496  0.2812 -0.0195  0.1725
26324W        W43848  10.859   3.685   1.586 -0.2715  0.2961 -0.0951
26325W        W43849  13.441  14.616   3.818  0.0189 -0.0548  0.0040
26326W        W43850   4.416   3.581  12.163  0.1184 -0.2111  0.1996
26327W        W43851   2.391  13.342   4.367  0.0152  0.0040  0.2182
26328W        W43852  11.437  14.292   0.072 -0.1962 -0.1158 -0.1564
26329W        W43853  16.686   2.337  13.941 -0.3787 -0.0816 -0.2799
26330W        W43854   3.380   1.014   3.782 -0.1409 -0.1387 -0.1901
26331W        W43855   9.745   5.007   2.267  0.0887  0.0449 -0.2749
26332W        W43856  12.460  15.179   2.857 -0.0627 -0.1356  0.3059
26333W        W43857  15.664   3.385   0.517  0.4587 -0.2376 -0.0463
26334W        W43858   0.618  11.201  10.245 -0.3260  0.0910  0.1382
26335W        W43859   9.992   8.261   1.117 -0.0585  0.2463 -0.1308
26336W        W43860  11.143   3.129  15.373 -0.1278  0.2934 -0.0668
26337W        W43861  15.406  12.082  11.068 -0.1846  0.2928  0.0536
26338W        W43862  10.541   5.850  12.177 -0.1458  0.0276 -0.4399
26339W        W43863   9.461  12.354  12.440 -0.1295  0.3634 -0.0514
26340W        W43864   3.869  12.554  14.048  0.0183 -0.0468  0.0206
26341W        W43865   6.635   8.749   0.951  0.1076  0.0617  0.0303
26342W        W43866   1.034  11.199   0.632  0.1600 -0.0127  0.1147
26343W        W43867  17.983   4.383  11.899 -0.0954  0.1123  0.0927
26344W        W43868  12.922  10.713  12.062  0.2221  0.2400  0.1717
26345W        W43869   3.586   5.366   5.149  0.0646 -0.0255 -0.0134
26346W        W43870   6.744  11.111   4.125 -0.1696 -0.1855 -0.0710
26347W        W43871   7.715   8.288  14.633  0.0504 -0.3696 -0.4103
26348W        W43872   3.848   7.723  10.643 -0.2227 -0.0977  0.4143
26349W        W43873   7.740   0.365   3.103 -0.0119  0.0317 -0.3696
26350W        W43874  12.130  12.196  11.619 -0.3210  0.2231 -0.1875
26351W        W43875   4.003  15.982  12.129  0.1630  0.2566 -0.0161
26352W        W43876  11.782   4.931  11.973  0.3365 -0.1144  0.1571
26353W        W43877   2.198  17.338  12.494 -0.0222 -0.1578 -0.1493
26354W        W43878   0.536  13.448  11.972  0.3917 -0.0133  0.2663
26355W        W43879   7.949   7.045  15.497 -0.0546  0.0907 -0.1068
26356W        W43880   4.639  13.944   3.382  0.1460 -0.1526 -0.1110
26357W        W43881   1.206  13.594  10.926  0.0287  0.1422  0.0159
26358W        W43882   2.721   6.728  13.170 -0.1517  0.1842 -0.3196
26359W        W43883   9.618   1.163   3.353 -0.1837  0.0681  0.2575
26360W        W43884   1.467  15.636  11.097 -0.1446 -0.0357 -0.0281
26361W        W43885   2.012  16.433  13.907 -0.1369  0.1732  0.2895
26362W        W43886   2.297  18.056  11.894  0.0688  0.1347 -0.1038
26363W        W43887   9.640  15.787   1.575  0.2075  0.4317 -0.1954
26364W        W43888   4.384   0.892  10.818 -0.1635  0.2187 -0.0387
26365W        W43889  12.248  10.916   1.894 -0.1483  0.0241 -0.1481
26366W        W43890  16.167   1.322  14.841  0.0011 -0.3366 -0.0389
26367W        W43891  12.421   7.358  14.112  0.0965  0.0810 -0.1309
26368W        W43892   0.857   4.160  13.675  0.2228  0.2108 -0.0579
26369W        W43893   8.262  15.827  14.336  0.1952 -0.1647 -0.2441
26370W        W43894   7.842   2.889  12.760  0.1392  0.2680 -0.0851
26371W        W43895  18.212   3.862  12.736 -0.1550  0.0986  0.1339
26372W        W43896  14.362   7.288  12.257  0.0762 -0.1315 -0.0758
26373W        W43897   4.144   9.590   0.484 -0.0388 -0.0599 -0.1265
26374W        W43898  11.460  16.347  12.090 -0.1697 -0.2385 -0.0904
26375W        W43899  10.153  10.983   1.610 -0.1512 -0.1464  0.2460
26376W        W43900  18.040  14.530   5.044 -0.0796  0.5142 -0.1059
26377W        W43901  17.761  13.351   1.198  0.3655  0.0269  0.1498
26378W        W43902  10.610   1.065  13.135  0.0858 -0.1220 -0.0552
26379W        W43903   0.180   4.466   2.152 -0.0934  0.0213 -0.2340
26380W        W43904   1.125   1.645   1.187  0.0175 -0.0244  0.4073
26381W        W43905  11.152  12.598   3.654  0.1502  0.0794  0.0700
26382W        W43906   0.841   0.440   0.319 -0.0254 -0.0616 -0.0984
26383W        W43907  16.479   0.855   0.557 -0.3420 -0.0192 -0.1718
26384W        W43908  13.433  14.021   3.113 -0.1106  0.1018  0.1839
26385W        W43909  15.216  15.688  11.471  0.1128  0.1534  0.3368
26386W        W43910  17.413   9.043   5.480  0.0556  0.2163  0.0690
26387W        W43911   6.396  14.649   2.166  0.0488  0.1827  0.1367
26388W        W43912  14.457   2.872  13.127 -0.1753  0.2831 -0.0261
26389W        W43913   6.413  18.263   5.242 -0.0685 -0.2995  0.2240
26390W        W43914   2.680  12.203   1.981  0.0471  0.1267  0.2587
26391W        W43915   1.546  17.617   3.524  0.1745 -0.1189  0.2303
26392W        W43916  12.566   2.497  14.245 -0.3555  0.0525 -0.1294
26393W        W43917   6.382  14.142  11.967  0.1210  0.1290 -0.3274
26394W        W43918  16.588   8.843   5.096  0.0797 -0.1303 -0.1050
26395W        W43919   7.904   8.086   2.400  0.2781 -0.0221  0.1110
26396W        W43920   1.690   2.554   4.929 -0.2747  0.1499 -0.1000
26397W        W43921  10.654   9.336  12.513 -0.2073 -0.0135  0.0853
26398W        W43922   6.174   4.565  11.393  0.0297  0.1751 -0.2672
26399W        W43923  14.744   0.772  14.330 -0.2958  0.0808  0.0870
26400W        W43924  15.260   8.485   4.565 -0.1994  0.1699 -0.3715
26401W        W43925   4.517   9.420   0.798 -0.0616  0.0326 -0.0806
26402W        W43926   8.350  10.146   2.670  0.0717  0.0780  0.0149
26403W        W43927  13.365  10.611  13.222 -0.2272  0.1740  0.0044
26404W        W43928   4.464   4.151  13.947 -0.3169  0.0565 -0.1050
26405W        W43929   5.564   9.832  13.959  0.0886  0.1575 -0.0400
26406W        W43930   7.657   1.771   2.528  0.2163  0.1508  0.1120
26407W        W43931   7.972  15.240   0.607  0.0828 -0.1480  0.2616
26408W        W43932  10.913   4.323   1.547  0.0754  0.1297  0.2122
26409W        W43933   3.251   5.107   2.128  0.0777  0.3075 -0.1411
26410W        W43934   0.294  16.445   0.869  0.0152 -0.0875 -0.0331
26411W        W43935   2.140  15.880   3.856 -0.1337  0.3048  0.0892
26412W        W43936   8.214  11.158  12.422  0.0799  0.1418  0.0174
26413W        W43937   4.284   4.055   1.106 -0.0710  0.2063  0.2152
26414W        W43938   4.262   9.863   2.758  0.2375  0.1739  0.0853
26415W        W43939   2.112   0.295   2.695  0.1418 -0.4013  0.2716
26416W        W43940   9.573  16.137   1.142 -0.2096 -0.1128 -0.0428
26417W        W43941   4.163   1.836  11.851 -0.0369 -0.2052 -0.4886
26418W        W43942   8.320  13.692  14.747  0.1544  0.3125  0.1409
26419W        W43943   0.654  13.380   0.121 -0.0949  0.1899  0.1622
26420W        W43944  10.352  13.384   0.450 -0.2876  0.4165 -0.0401
26421W        W43945  12.231   3.740   1.238  0.1756  0.2117  0.0943
26422W        W43946  13.006   8.163   4.704  0.0263 -0.0741 -0.2405
26423W        W43947  14.698  10.626  10.892 -0.1939  0.3619 -0.1500
26424W        W43948   0.015  16.260   2.158 -0.0685  0.1354  0.1705
26425W        W43949   4.109  16.932  12.962  0.2013  0.0545  0.2682
26426W        W43950   6.220   2.211   1.253 -0.3090  0.0076  0.0537
26427W        W43951  12.863  18.384   6.007  0.0699  0.2261 -0.3086
26428W        W43952  10.913   9.622   2.134  0.2830  0.1715  0.1519
26429W        W43953   0.943  12.521   2.044  0.2128  0.0162  0.4702
26430W        W43954   2.184   3.271  14.500 -0.1340  0.1032 -0.1139
26431W        W43955   0.711  12.135   0.082  0.2005 -0.2704 -0.1465
26432W        W43956   6.419   0.780   3.422 -0.1339 -0.1018  0.0882
26433W        W43957   4.789  10.706  15.664  0.0591 -0.0521 -0.2268
26434W        W43958  13.139   9.048   0.873  0.1548 -0.1183 -0.0903
26435W        W43959   5.827  12.574  15.236  0.1767 -0.2073 -0.0634
26436W        W43960   2.278  14.960   2.743  0.3949  0.2485 -0.1319
26437W        W43961  11.666  11.236   2.172  0.0613  0.0609 -0.0940
26438W        W43962   8.017   0.522   4.693 -0.0390  0.1500  0.0176
26439W        W43963  13.129   8.068  15.683 -0.0920 -0.2130 -0.4447
26440W        W43964  16.508   6.389   4.951 -0.2034 -0.3365 -0.1954
26441W        W43965  17.305  10.937  11.977  0.2860 -0.0913 -0.1769
26442W        W43966   9.422  15.294  15.320 -0.1064  0.0598  0.1091
26443W        W43967   3.797   0.346  11.153  0.0245  0.1256 -0.0946
26444W        W43968  15.215  10.732  12.396 -0.3943 -0.0987  0.2333
26445W        W43969   1.958  15.045  13.307  0.1601 -0.2306  0.1142
26446W        W43970   1.104  14.796  15.630 -0.0271  0.2277  0.1301
26447W        W43971  17.850   1.940  10.924  0.2035 -0.2127 -0.2527
26448W        W43972  16.644   7.667   0.570 -0.0547 -0.1068  0.2107
26449W        W43973   4.544  15.998   2.404 -0.3363 -0.0885  0.3060
26450W        W43974  15.311  11.141   1.308  0.2594  0.2333  0.2464
26451W        W43975  13.932  13.852   3.452  0.0303  0.1125  0.2348
26452W        W43976  16.999  14.999  12.086  0.0898 -0.2501  0.3060
26453W        W43977  10.770  14.802  12.885 -0.2490  0.1822 -0.0940
26454W        W43978   5.271  14.787  13.352  0.0575 -0.0258  0.0246
26455W        W43979   3.201   9.621   4.379 -0.2078 -0.3149  0.0771
26456W        W43980   1.343  17.489  11.226  0.1914  0.3213  0.1592
26457W        W43981  16.185  16.397   1.024 -0.0393 -0.2747  0.2232
26458W        W43982   4.356  14.730  14.655  0.0651 -0.0790  0.1624
26459W        W43983   1.375  11.515  14.377  0.0923  0.2491  0.0771
26460W        W43984  13.778   3.030   1.770  0.4167 -0.0860  0.2076
26461W        W43985   7.564   9.528  11.114  0.0534  0.1490 -0.0615
26462W        W43986   1.455  11.221   3.502 -0.3016  0.3078 -0.2614
26463W        W43987   1.013   1.193  11.223 -0.2263  0.0103 -0.2690
26464W        W43988  16.807  12.392   0.372  0.2011  0.0216  0.0485
26465W        W43989   9.431  13.148  11.879 -0.0516  0.1139  0.1039
26466W        W43990  16.340   0.671  11.800  0.2094  0.0899  0.4547
26467W        W43991   4.341   1.741   1.042 -0.1685 -0.1921 -0.1035
26468W        W43992   2.696   0.111  15.491  0.2457 -0.0886 -0.3546
26469W        W43993  12.852   9.525   2.901  0.2918 -0.0903 -0.1009
26470W        W43994  15.786   8.366  10.759  0.3419 -0.0353  0.1383
26471W        W43995   9.606  11.375  11.722  0.2203  0.1077  0.2697
26472W        W43996   5.901  14.705  15.261 -0.1083  0.0708 -0.2973
26473W        W43997   3.941  14.971  12.248 -0.0488 -0.4640 -0.0156
26474W        W43998   7.051   2.880   3.424  0.1175 -0.1279  0.4756
26475W        W43999   1.423  16.490  11.622  0.1600  0.1726  0.0944
26476W        W44000   4.218   5.827   0.734  0.0543 -0.2360 -0.1342
26477W        W44001  15.900  13.447  14.737  0.1161 -0.0241  0.0609
26478W        W44002  17.217  16.347   4.037  0.2411  0.3269 -0.0807
26479W        W44003  13.953   1.680   3.022 -0.1021 -0.0924  0.3519
26480W        W44004  16.304  15.322  12.242 -0.0327 -0.2093 -0.0564
26481W        W44005   3.536   7.176   3.962 -0.0077  0.0935  0.1755
26482W        W44006   7.224  13.348  12.131  0.0455 -0.1202  0.1692
26483W        W44007  14.097   2.184  15.276 -0.1374  0.0995  0.2433
26484W        W44008   7.899   8.095   5.602 -0.1842  0.0134  0.1232
26485W        W44009   5.017   7.636  13.674 -0.0814  0.2521 -0.0709
26486W        W44010   3.086  17.278  14.160 -0.0119  0.2038  0.1973
26487W        W44011  13.873  14.000   0.387 -0.0918  0.3038  0.2276
26488W        W44012   2.416  12.751  14.211  0.2798  0.1117 -0.1282
26489W        W44013   9.443   2.492   2.987 -0.1081 -0.1224 -0.1720
26490W        W44014  16.053   0.027  12.677 -0.2830 -0.2257 -0.3252
26491W        W44015   4.671   4.995  12.000 -0.0507  0.1542  0.1764
26492W        W44016  13.225  13.197   0.515 -0.0076 -0.1159 -0.1061
26493W        W44017   0.756  10.028  14.523 -0.0089 -0.1539  0.2979
26494W        W44018   9.371   9.224  13.203 -0.1497  0.2273 -0.0728
26495W        W44019  12.095   4.744   4.395  0.2539 -0.2938  0.0392
26496W        W44020  12.639   7.303   2.078  0.1029 -0.1779 -0.0273
26497W        W44021   0.849   8.781  13.357  0.0010 -0.0536 -0.2411
26498W        W44022  12.213  13.948   2.226  0.2094  0.2823 -0.2297
26499W        W44023   5.487  12.822  13.537  0.1517  0.1988 -0.0295
26500W        W44024   0.545  15.619  14.664 -0.2444 -0.0926  0.0511
26501W        W44025   1.070   1.681   3.449  0.3128  0.0300  0.2263
26502W        W44026   9.940  18.435   0.796  0.3933  0.1015  0.0458
26503W        W44027  17.523   7.951  11.270 -0.0128  0.0371 -0.2662
26504W        W44028   6.094  14.750  15.709  0.2876 -0.2765  0.1784
26505W        W44029   3.637   6.579   0.845  0.1924  0.0751  0.1198
26506W        W44030   2.384  15.807  14.211  0.0302  0.0385 -0.0778
26507W        W44031  17.531  17.331  15.382 -0.0326  0.2359  0.0611
26508W        W44032  14.847   3.507  12.737  0.2483 -0.2906  0.1418
26509W        W44033   9.797  10.314  11.679  0.0269 -0.1189  0.3961
26510W        W44034   3.634   3.775  15.083  0.1853  0.2668  0.0003
26511W        W44035   1.363   1.167   5.430 -0.1330  0.1267 -0.0308
26512W        W44036  14.699  13.701   1.833 -0.0348 -0.1411  0.3419
26513W        W44037  16.271   0.393  12.886 -0.0062  0.0492 -0.1425
26514W        W44038  10.058   0.823  14.226  0.0975 -0.0057  0.0896
26515W        W44039   4.076   7.091  15.223 -0.3566 -0.2396 -0.0132
26516W        W44040   2.052  17.527   3.866  0.1930 -0.1165 -0.1229
26517W        W44041   8.651   3.083   3.092  0.1286 -0.1828  0.1472
26518W        W44042   5.602   5.576   3.012  0.0732 -0.2979  0.0162
26519W        W44043  13.447   3.063   0.344  0.1350  0.3686 -0.0224
26520W        W44044   5.760  17.252   3.892  0.3239  0.2047 -0.0858
26521W        W44045  17.493   3.774  13.547  0.1952  0.1978 -0.1752
26522W        W44046  10.296  16.206   0.696  0.2250 -0.3083  0.4244
26523W        W44047   0.925  10.352   3.665 -0.1652  0.1234 -0.1656
26524W        W44048  12.856   5.477   2.405 -0.1828 -0.2505  0.0606
26525W        W44049   6.613  18.055  14.159 -0.1062  0.0553  0.0278
26526W        W44050   5.353   9.709  14.418 -0.1683 -0.0794 -0.1158
26527W        W44051  18.183   7.093  12.168  0.0447  0.3049 -0.0491
26528W        W44052  18.174   4.819  14.221 -0.2054  0.0117  0.2775
26529W        W44053  10.003   2.154  11.782  0.1521 -0.0135  0.1889
26530W        W44054   5.734  10.363   1.030 -0.1978  0.2217  0.4632
26531W        W44055   3.058   8.235   9.563 -0.2692 -0.2417 -0.1874
26532W        W44056   3.230  16.496   2.915 -0.1225  0.4521 -0.0644
26533W        W44057  12.085  11.443   3.657  0.2734 -0.0924 -0.2743
26534W        W44058  13.632  11.617   0.076 -0.0739  0.1309  0.0796
26535W        W44059  12.248   5.048  11.830 -0.0461 -0.0964 -0.2311
26536W        W44060  17.531   6.868   4.360  0.2462  0.0050  0.0295
26537W        W44061  11.804   2.794  13.569 -0.0245  0.1568 -0.1224
26538W        W44062  14.745   6.793   1.625 -0.1647 -0.0526  0.0785
26539W        W44063   5.323   1.603   4.421  0.1080 -0.2242  0.2496
26540W        W44064   6.670  11.480  15.586 -0.0310 -0.0338  0.1054
26541W        W44065  17.331   1.481   1.856  0.0331  0.1821  0.3140
26542W        W44066  16.662   8.240  14.362 -0.0369  0.0444  0.1290
26543W        W44067  12.479   9.470  12.568 -0.1795 -0.1570 -0.0469
26544W        W44068   2.230   3.152   4.032  0.4847  0.1403 -0.0729
26545W        W44069  11.095   8.435  14.060 -0.1269 -0.4198 -0.2029
26546W        W44070   4.444   9.710  12.453 -0.0750 -0.1452 -0.1753
26547W        W44071   2.922  15.639  11.623  0.3758  0.3027  0.2200
26548W        W44072   9.859   3.747   3.312  0.0052  0.2060 -0.0378
26549W        W44073  14.819  15.533  14.382  0.2264 -0.5035  0.1419
26550W        W44074  16.890   9.354   0.816 -0.1310  0.1085 -0.0861
26551W        W44075  12.709   8.405  11.871 -0.3079 -0.2438 -0.2720
26552W        W44076   8.921   0.146  11.090  0.1082 -0.0604  0.1690
26553W        W44077  16.363   5.452   3.478 -0.0472 -0.0497  0.0133
26554W        W44078  17.030  16.385  14.070 -0.3200 -0.0345  0.1603
26555W        W44079   9.231  13.832   1.276  0.1805 -0.1552  0.2286
26556W        W44080  12.145   5.275  10.150  0.1177  0.1239 -0.3280
26557W        W44081  12.940  10.645   0.892  0.1150 -0.1300  0.0824
26558W        W44082  12.263  12.486  10.802  0.3091  0.0611 -0.2951
26559W        W44083   5.366  14.383  13.701  0.0485  0.1994 -0.4616
26560W        W44084  10.340  14.398   1.188  0.1599  0.0140 -0.1722
26561W        W44085   9.734  15.688   1.049  0.2875  0.1889 -0.0241
26562W        W44086  18.476   7.051   4.493  0.2902  0.4164 -0.0232
26563W        W44087  13.736  11.415   4.858  0.2150  0.1423 -0.0719
26564W        W44088   1.866  17.075   0.828  0.1793  0.0434  0.0623
26565W        W44089  12.730  15.168   3.223 -0.3543 -0.0119  0.0394
26566W        W44090   2.130  16.615  13.054 -0.1827  0.1971 -0.0197
26567W        W44091   1.626   9.182   3.843 -0.0910 -0.2220  0.0209
26568W        W44092  15.856  13.649   2.686 -0.1649  0.1791 -0.0829
26569W        W44093  13.936   6.519   4.403  0.2548 -0.0355  0.0400
26570W        W44094   5.015   1.009   5.167 -0.0326  0.1306 -0.0254
26571W        W44095   9.410   5.479  11.779 -0.0386  0.1586 -0.0283
26572W        W44096  18.344   7.259  10.270 -0.3528 -0.0750 -0.1025
26573W        W44097   6.160   4.964   1.907  0.2489  0.0770 -0.2399
26574W        W44098   4.224   7.751  11.250  0.1107 -0.3865  0.0680
26575W        W44099  13.947  16.657  15.509  0.1303  0.0419 -0.0105
26576W        W44100   5.426   9.133  11.369  0.0207 -0.1033 -0.1185
26577W        W44101   3.122  14.450   0.427  0.2508  0.3491  0.5059
26578W        W44102  14.573   8.607  12.430  0.2371 -0.1900  0.1812
26579W        W44103   5.809  17.831  11.067  0.0457 -0.2219 -0.3801
26580W        W44104   2.776   6.995   1.578 -0.3172 -0.0482  0.0289
26581W        W44105   9.590   0.578   2.425  0.1813 -0.1806 -0.0854
26582W        W44106  12.960  11.441   1.284 -0.0952  0.4666  0.3691
26583W        W44107  13.422   4.589   2.810 -0.2173 -0.3636  0.2827
26584W        W44108   1.969  15.022  14.893  0.0147  0.2336  0.2657
26585W        W44109  13.208  14.974  13.203  0.4558  0.0013  0.3988
26586W        W44110   3.715   0.797   4.882 -0.3575  0.1422  0.0262
26587W        W44111   2.918   9.226  13.213 -0.0467  0.0694 -0.1574
26588W        W44112   8.388   3.852   3.518 -0.0454  0.0336 -0.1786
26589W        W44113   7.911   7.921   0.413 -0.0682  0.1401  0.1490
26590W        W44114  16.966   5.179   3.046  0.1117 -0.3744 -0.1953
26591W        W44115   8.385   4.254   3.878 -0.0497 -0.0316 -0.0424
26592W        W44116   1.124  17.459   3.709  0.1039 -0.0027  0.2177
26593W        W44117   3.182  10.269  15.289  0.1893  0.0322  0.1315
26594W        W44118  17.493  11.700   4.414  0.3061 -0.0001  0.2113
26595W        W44119   8.366   8.841   5.830  0.1262  0.2194  0.1060
26596W        W44120   9.493   7.648   2.726  0.0567  0.0711  0.1065
26597W        W44121   7.023   6.965   1.014  0.1848 -0.2666 -0.0227
26598W        W44122  15.511   0.216   1.706  0.1545 -0.0012  0.3090
26599W        W44123   0.733   3.645   0.222 -0.0241 -0.2988 -0.3234
26600W        W44124   7.296  16.782  10.573 -0.3184  0.1460  0.1931
26601W        W44125   9.722  11.123  10.745  0.0084  0.0880  0.0040
26602W        W44126  14.893   8.288  14.399 -0.2294 -0.1666 -0.3481
26603W        W44127   1.553   8.967   0.667 -0.1913 -0.0813  0.3379
26604W        W44128  11.110   7.531   1.962  0.2150  0.0081  0.1764
26605W        W44129   4.097   9.866   1.055 -0.2538  0.0406  0.3086
26606W        W44130   7.450  13.890   2.023  0.0324  0.0426  0.1496
26607W        W44131  18.294   7.488   4.166  0.1194  0.0088 -0.0606
26608W        W44132  11.818   0.962   2.976 -0.1632  0.0591  0.1692
26609W        W44133  11.691  10.347  15.001  0.0498 -0.1711  0.0219
26610W        W44134  11.300  10.136  11.179  0.0847 -0.0978 -0.2039
26611W        W44135   5.533  17.562  15.377 -0.2522 -0.0891 -0.2681
26612W        W44136   9.199   2.823   2.664  0.0700 -0.0365  0.3192
26613W        W44137   7.867  14.478   0.981 -0.2197 -0.0655  0.1377
26614W        W44138  11.455  17.312  12.444  0.2147 -0.1986  0.3121
26615W        W44139   4.199   3.993  14.939  0.1084  0.0427 -0.0522
26616W        W44140   6.023  14.180   1.095 -0.0064 -0.1190  0.1811
26617W        W44141  16.896   9.546  14.909  0.1044  0.0311 -0.1641
26618W        W44142  13.979   6.913   4.061 -0.4899  0.2617  0.0279
26619W        W44143   6.004  17.339  15.237  0.2002  0.0591 -0.1746
26620W        W44144   8.158  16.052  12.250 -0.0096 -0.1689 -0.1263
26621W        W44145  13.056   9.824  11.495 -0.1604  0.3557  0.2038
26622W        W44146   6.272  13.042   4.646 -0.1409  0.1413 -0.1739
26623W        W44147  16.117   7.023  11.604 -0.2225 -0.0865 -0.0758
26624W        W44148   1.686   0.098   0.607  0.0261 -0.1651 -0.2519
26625W        W44149   7.561   6.359  15.577  0.1386  0.1443  0.2363
26626W        W44150  12.613  17.983   0.181  0.1036 -0.0413 -0.3606
26627W        W44151  11.346   6.622  15.044  0.0561 -0.1253 -0.0977
26628W        W44152  18.324   1.496  11.366  0.0895 -0.1085 -0.0208
26629W        W44153   2.727   9.943   3.152  0.0523 -0.0840 -0.0106
26630W        W44154  12.467  10.296  13.081 -0.1938 -0.0771 -0.1192
26631W        W44155  10.949  13.972   3.125  0.0823  0.0623 -0.3002
26632W        W44156   5.308   6.016   5.002 -0.1536  0.0057 -0.1096
26633W        W44157   5.970  14.521  14.504  0.2165 -0.0229  0.2021
26634W        W44158   5.540   7.750  14.891  0.1034  0.1130 -0.1653
26635W        W44159   0.802   4.904  14.172 -0.0616  0.1091  0.0643
26636W        W44160  10.564   4.126  13.472  0.0899  0.0465  0.2010
26637W        W44161   9.749  14.699  12.533  0.0711  0.2349  0.0285
26638W        W44162   8.228  11.266  14.287 -0.0262 -0.0788  0.1737
26639W        W44163  14.541  13.500  10.030  0.0585 -0.1587  0.0745
26640W        W44164  13.980   3.684  13.329  0.2683  0.4017  0.0372
26641W        W44165  15.128  15.288   1.048  0.3113 -0.0311  0.1267
26642W        W44166  14.192   2.182   3.603  0.4742  0.0633 -0.2553
26643W        W44167  13.986  14.152   2.484 -0.0570 -0.0227  0.3593
26644W        W44168  15.088   9.760  12.038  0.2073  0.1136 -0.0943
26645W        W44169   0.185  16.681   3.635  0.2657  0.0607  0.0833
26646W        W44170  18.420  13.173   1.124 -0.0157 -0.2714 -0.0646
26647W        W44171  14.246  13.027   3.882  0.0016  0.0083  0.0110
26648W        W44172   7.190  14.678   3.046 -0.0512  0.0575 -0.0152
26649W        W44173   0.141  12.500  13.306 -0.0658  0.1037 -0.0926
26650W        W44174  11.734   2.037   1.539 -0.0788  0.1774 -0.0342
26651W        W44175   0.278   6.304   2.666  0.0287 -0.4350  0.0499
26652W        W44176  14.498  13.382  11.408  0.3259  0.0271  0.0026
26653W        W44177  17.469  14.149   0.279  0.0486 -0.3101  0.0729
26654W        W44178   8.380  14.719  15.630  0.0007 -0.0126  0.0061
26655W        W44179  11.758  11.915   0.570  0.0980 -0.0804  0.2145
26656W        W44180   5.840  13.706  13.221 -0.0138 -0.2050 -0.0341
26657W        W44181   5.487   9.413   1.302 -0.0567  0.0750 -0.2342
26658W        W44182   1.031   5.853  12.821  0.0187 -0.0285 -0.1889
26659W        W44183  15.569  10.717  11.905  0.1246 -0.1161 -0.0604
26660W        W44184  10.147   2.186   4.114  0.0570 -0.1942 -0.3278
26661W        W44185  13.688  14.744   4.657  0.1132  0.1341 -0.1107
26662W        W44186  17.282   7.003  12.620 -0.2636  0.1779  0.1125
26663W        W44187   9.817  17.788  12.726 -0.0826  0.1113 -0.0825
26664W        W44188   9.184   2.311   4.604  0.1300  0.3541 -0.5176
26665W        W44189  13.845   7.362  12.310  0.0257 -0.0022 -0.0431
26666W        W44190   7.321   6.887  11.601  0.1364  0.1275 -0.1493
26667W        W44191  15.862  15.950  15.663  0.1033  0.6107 -0.1448
26668W        W44192  13.008  10.097   0.930  0.0309 -0.5056  0.1610
26669W        W44193  15.125   5.211  13.746 -0.0555 -0.2347 -0.3964
26670W        W44194  16.804   9.164  13.863 -0.0324 -0.2788  0.1257
26671W        W44195  12.621   2.899  15.647  0.1026  0.0070 -0.0450
26672W        W44196   9.902   5.846   2.149  0.0641 -0.3659 -0.1265
26673W        W44197  14.697   6.513  12.814 -0.1875 -0.0528  0.1014
26674W        W44198  10.531   7.149   0.269 -0.2381 -0.3912  0.0904
26675W        W44199   3.234  16.160  12.693  0.0682  0.0108 -0.1590
26676W        W44200   9.364  11.845  13.873  0.2299 -0.3004  0.1807
26677W        W44201  12.158  14.441  11.544  0.0684 -0.2127  0.2279
26678W        W44202  12.866   9.012  10.156  0.2918  0.0040 -0.0957
26679W        W44203   1.909   8.484   4.154 -0.1315 -0.0401  0.1623
26680W        W44204  12.520   9.740   3.656  0.1077  0.1874  0.0555
26681W        W44205  16.004  15.728  12.331  0.1634 -0.1940  0.1213
26682W        W44206   5.477   8.642   3.949  0.1192 -0.2566  0.1990
26683W        W44207  16.352   7.980  13.266  0.1411  0.1363 -0.0399
26684W        W44208  17.086   9.126   5.145  0.2741  0.0446 -0.0148
26685W        W44209  12.935   8.078   2.399  0.0549  0.1482  0.2028
26686W        W44210  12.793   5.280  15.050  0.0790 -0.2871  0.2569
26687W        W44211  11.127  11.237  12.017 -0.0483  0.1114  0.1200
26688W        W44212  14.307  16.901  12.875 -0.1726 -0.0375  0.0928
26689W        W44213   7.710   3.635   4.434 -0.2546  0.0076 -0.1571
26690W        W44214  17.364  10.592  10.590 -0.2496 -0.0800 -0.4789
26691W        W44215   4.095  17.923  15.118  0.0919 -0.4431  0.0830
26692W        W44216   0.779  11.738  14.554 -0.1218 -0.4499  0.2109
26693W        W44217  12.156  16.410  14.916 -0.2440  0.0971 -0.0817
26694W        W44218   0.170  12.467   3.154  0.1150 -0.0761 -0.0834
26695W        W44219  12.625   3.964  13.950 -0.2115  0.0316  0.0852
26696W        W44220   2.188  18.441   2.276  0.1564 -0.0901 -0.2211
26697W        W44221   7.637   6.403   2.440 -0.1252 -0.1209  0.0293
26698W        W44222   7.654  16.231   3.676 -0.1589 -0.3012 -0.1415
26699W        W44223  12.164  10.347   2.995  0.1299 -0.2661 -0.2201
26700W        W44224  13.325  17.754   4.693 -0.0774  0.1930 -0.1012
26701W        W44225   4.010   1.372   3.196  0.0367  0.0046 -0.1052
26702W        W44226   4.064   0.780   2.194  0.3067  0.2211 -0.2824
26703W        W44227   9.953  12.382   2.973  0.1482  0.2287  0.3487
26704W        W44228  11.793  12.296   4.159 -0.2045  0.2249 -0.1178
26705W        W44229  18.376  15.505  12.478 -0.0030  0.0434  0.1070
26706W        W44230   1.166  16.687   4.538 -0.1449 -0.0258  0.2302
26707W        W44231  12.791  14.054   1.545  0.0517  0.3760 -0.0051
26708W        W44232  10.698   1.415  12.817 -0.0773  0.0483  0.0742
26709W        W44233   2.731   9.839   4.331  0.0321 -0.0180 -0.2192
26710W        W44234  15.363   7.391  12.668 -0.0858  0.1723  0.0960
26711W        W44235   6.649  16.520   0.224 -0.1661 -0.0196  0.1697
26712W        W44236   1.052  13.438   3.214 -0.1192  0.0023 -0.0114
26713W        W44237  14.565   0.684  13.438  0.0549 -0.1578 -0.1643
26714W        W44238  14.298  12.851  14.679 -0.1516 -0.0808  0.0708
26715W        W44239  17.767   3.633   4.473 -0.3523 -0.1709  0.0829
26716W        W44240   4.140   4.798  15.474  0.0847  0.1719  0.0903
26717W        W44241   6.921  16.563  12.621 -0.1530  0.0188  0.0218
26718W        W44242   9.449  13.269   3.095  0.2737 -0.0653 -0.0662
26719W        W44243  14.372  10.802  12.300 -0.0206  0.1591 -0.0458
26720W        W44244   8.335  13.846   2.827 -0.0228 -0.0364  0.0166
26721W        W44245  16.036   1.666  11.669 -0.0404  0.0495  0.1330
26722W        W44246   8.283   3.605   4.424 -0.0833 -0.0778  0.0769
26723W        W44247  10.741  12.364  13.316 -0.1342 -0.4490 -0.1313
26724W        W44248   0.195   9.269   2.934 -0.1415 -0.0020  0.0417
26725W        W44249  15.079  11.605  12.025 -0.1552  0.0278  0.2594
26726W        W44250  15.540   8.911   0.986 -0.1279  0.0850  0.0487
26727W        W44251  12.720  16.444   1.987  0.2847 -0.2985 -0.0708
26728W        W44252   3.588   0.382  14.505 -0.1525  0.0553  0.1045
26729W        W44253  14.921   4.315   0.973 -0.0344 -0.1458  0.1626
26730W        W44254   0.397  18.084   0.392 -0.1369  0.2349  0.0606
26731W        W44255   2.838   4.537   3.327  0.0841  0.0215  0.1979
26732W        W44256  16.437   6.943   5.523  0.0037 -0.1404 -0.1197
26733W        W44257   5.944   9.018   4.702 -0.4347 -0.1485  0.0392
26734W        W44258   1.418   6.013  14.459 -0.0426  0.2938  0.1135
26735W        W44259   5.225  13.949  11.656  0.2203 -0.1216 -0.1552
26736W        W44260   2.379   9.481  14.940  0.2688  0.1762 -0.2052
26737W        W44261  15.947  14.615   5.060 -0.1044  0.1906 -0.0666
26738W        W44262  11.945   4.537  12.368 -0.0820 -0.1301 -0.3701
26739W        W44263  13.526   9.448   3.473  0.4444  0.0850 -0.1140
26740W        W44264  15.189  15.353   2.959  0.2557 -0.1826 -0.2325
26741W        W44265   1.221   9.511   4.626 -0.4067  0.0543 -0.0734
26742W        W44266   5.574   2.835   2.412  0.1550 -0.1251  0.1368
26743W        W44267  13.059   2.621   4.654  0.2889  0.1335 -0.1501
26744W        W44268  13.040   6.062   2.807 -0.3470  0.1662 -0.0193
26745W        W44269   9.717  12.964   2.708 -0.2155  0.1450  0.1575
26746W        W44270  10.802  13.344  11.492 -0.2239 -0.3504  0.0692
26747W        W44271  10.302   3.952  12.124 -0.2003  0.1566 -0.1850
26748W        W44272   9.599   8.646   3.910  0.0933 -0.1167  0.3585
26749W        W44273  16.224  16.323   2.342  0.1832  0.2209 -0.2329
26750W        W44274  16.478   0.180  13.325 -0.0607  0.0583 -0.2228
26751W        W44275  13.464   6.147  11.420 -0.1775 -0.0838  0.0802
26752W        W44276   6.200  15.004   3.857 -0.1816  0.5258 -0.1361
26753W        W44277  13.258   9.722   0.382 -0.1651 -0.1394 -0.2710
26754W        W44278  14.559  16.588   1.660  0.1371 -0.1544  0.1573
26755W        W44279   2.605   3.227   1.492  0.1457  0.3229 -0.0384
26756W        W44280   3.948  18.449   4.649  0.2460 -0.1048  0.2981
26757W        W44281   0.981  15.669   1.634  0.1829  0.1558 -0.1672
26758W        W44282   0.794  15.502  15.124 -0.1043  0.0308 -0.0093
26759W        W44283   3.552   0.432   3.973 -0.1090  0.1219  0.2338
26760W        W44284   5.898   8.344  15.667 -0.0269 -0.0379  0.0568
26761W        W44285   1.276   1.135   1.985  0.1542  0.0505 -0.2009
26762W        W44286   3.648   7.833   2.569 -0.0710  0.1433  0.3286
26763W        W44287   1.590  13.284  12.181 -0.0722 -0.1639  0.0708
26764W        W44288   9.893   1.763   4.182  0.0089 -0.3245  0.1359
26765W        W44289   4.865  12.305  15.023 -0.0370 -0.2103  0.0212
26766W        W44290   5.275   9.622   1.905 -0.1572  0.2567  0.3003
26767W        W44291   5.060  17.304  14.626 -0.0790  0.0199 -0.0485
26768W        W44292  16.603  10.852  12.547 -0.3458  0.1387  0.0077
26769W        W44293  14.236   0.043   4.685 -0.2786  0.0128  0.0717
26770W        W44294  16.111  17.930   3.281  0.0416  0.2245  0.1088
26771W        W44295  12.559  10.168   1.301  0.1170  0.3068  0.0501
26772W        W44296   6.069   7.228   1.412  0.0604  0.2974 -0.1533
26773W        W44297   7.491  10.420   4.356  0.0206  0.0676 -0.1760
26774W        W44298   5.265  10.184  12.871  0.2960 -0.2413 -0.0718
26775W        W44299   0.650  17.069   0.502  0.1078 -0.0511  0.0065
26776W        W44300  14.693   9.949   4.099 -0.1525  0.0886  0.0964
26777W        W44301   4.753  16.680   4.086 -0.2050  0.0681 -0.2972
26778W        W44302   1.728  17.605  12.645  0.1353  0.0424 -0.0739
26779W        W44303  13.511   7.005   4.593  0.0931  0.1132 -0.0823
26780W        W44304   5.671   4.257  14.950  0.2189  0.0876 -0.1644
26781W        W44305  12.845  12.537   1.663  0.2486  0.0010  0.1191
26782W        W44306   7.946   7.375   0.781 -0.2627 -0.1605  0.2289
26783W        W44307   9.758  16.163   5.121 -0.0249 -0.2248  0.3007
26784W        W44308  17.720  15.447   1.882  0.0874  0.0485 -0.3528
26785W        W44309   6.334  11.405  13.532  0.0262 -0.1787 -0.2173
26786W        W44310  10.007   1.874   2.722 -0.2644 -0.2959 -0.0031
26787W        W44311   2.740  16.502   1.214  0.1252  0.0940  0.0108
26788W        W44312   4.898   1.956  13.167  0.1239  0.2301 -0.0527
26789W        W44313  17.700   7.906  12.077 -0.2374  0.1760 -0.1319
26790W        W44314   0.842   1.713   4.423 -0.0157 -0.0041  0.2171
26791W        W44315   1.689  16.098   4.116  0.1504  0.2767  0.2322
26792W        W44316   2.856   8.123  15.112  0.0389  0.1977 -0.3475
26793W        W44317  13.665  16.671   2.481  0.0570  0.0322  0.1968
26794W        W44318   3.607   8.862   4.035 -0.2223 -0.0568  0.0170
26795W        W44319  16.229   5.284  12.406 -0.1234  0.0935 -0.0130
26796W        W44320  16.309  16.322   3.916 -0.0003  0.1900  0.2718
26797W        W44321   4.776   1.702   4.508 -0.1770  0.0358  0.1130
26798W        W44322  12.072   2.195  15.057  0.1428 -0.3936 -0.0226
26799W        W44323  13.779  15.483  11.846  0.1838 -0.0098  0.0687
26800W        W44324   3.488  13.637   1.444  0.2775  0.4059  0.0796
26801W        W44325   5.480   1.462   0.383  0.0316  0.0000 -0.0360
26802W        W44326  14.950   6.372   1.363  0.0863  0.3156  0.1484
26803W        W44327  13.443   4.710  12.722  0.1713  0.1789 -0.4788
26804W        W44328   8.098   9.134  13.055  0.3079  0.0115  0.0868
26805W        W44329   5.475   4.356  15.398  0.0164  0.3456 -0.0515
26806W        W44330   6.581  17.165  15.099  0.1849 -0.4654 -0.1243
26807W        W44331   1.707   6.710  12.192  0.2146  0.2388 -0.3458
26808W        W44332   1.813   5.383   3.848  0.2026  0.0108  0.2526
26809W        W44333  17.033  14.405  15.249  0.1749 -0.2649  0.0639
26810W        W44334   8.837   1.442  14.848 -0.1815 -0.1463 -0.0743
26811W        W44335  11.432  14.013   3.377 -0.0680  0.0179  0.0110
26812W        W44336   0.673   8.137  10.988 -0.1136  0.1947  0.0226
26813W        W44337  17.291  16.464   3.562  0.1699  0.4103  0.1792
26814W        W44338   0.529   9.670   3.175 -0.2895  0.1929 -0.0082
26815W        W44339  11.372   3.839   0.603 -0.0414  0.3702  0.4203
26816W        W44340   6.108   1.747   2.927 -0.1270  0.0669  0.2040
26817W        W44341   5.219   5.596   2.110  0.0324 -0.0572 -0.1921
26818W        W44342  12.449  13.072   0.864  0.0890  0.1882  0.4104
26819W        W44343  14.956   8.707   4.209 -0.1384  0.0171  0.2044
26820W        W44344   9.346  16.754   2.213  0.1546  0.2042 -0.1562
26821W        W44345  11.498   2.432  14.096  0.0301  0.3013 -0.2506
26822W        W44346  17.233  11.013  10.223 -0.1404  0.2617 -0.1971
26823W        W44347  11.345  14.756   0.300  0.3224  0.1849  0.1957
26824W        W44348  15.463  17.140  12.480  0.1985 -0.0446 -0.1866
26825W        W44349  14.728  12.497   1.172  0.0586 -0.1167  0.0876
26826W        W44350   1.381   3.372  12.638  0.2083 -0.2592  0.2594
26827W        W44351  10.472  13.615  12.607 -0.3546 -0.0884 -0.0818
26828W        W44352   0.562  10.278  13.563 -0.0706  0.2157  0.0539
26829W        W44353   2.809  14.480  14.313  0.1255 -0.2325 -0.1033
26830W        W44354   2.999   7.076  13.489 -0.0473  0.1370  0.0065
26831W        W44355  15.952  10.733   3.705 -0.4711 -0.0961 -0.4704
26832W        W44356   5.202  13.707   1.669  0.1693  0.0408 -0.1641
26833W        W44357   1.526  11.774   4.285  0.2233  0.0529  0.0710
26834W        W44358  11.358   0.480   4.698  0.0512  0.1522 -0.3351
26835W        W44359   9.562   8.974   3.033 -0.0477  0.0092 -0.0477
26836W        W44360  14.160  14.191   1.398 -0.1434 -0.0809  0.1185
26837W        W44361  17.063   6.209   2.264 -0.0970  0.0133  0.1201
26838W        W44362  10.909   8.481   4.285  0.0564 -0.0770  0.1409
26839W        W44363   5.067   7.484   0.535  0.1901  0.3572 -0.0627
26840W        W44364   2.305   5.574   3.117 -0.1721 -0.3521  0.0856
26841W        W44365   4.691   4.229   4.017 -0.2440 -0.2803 -0.1039
26842W        W44366  17.293   7.813   4.083  0.4091 -0.1758 -0.1151
26843W        W44367   5.667   7.438   0.472  0.3082  0.2042  0.3334
26844W        W44368   0.037   3.148   2.421  0.1052  0.0678  0.1671
26845W        W44369   7.821  17.127   5.199 -0.0893  0.0606  0.1294
26846W        W44370  17.251  13.113  12.462  0.0611 -0.0084  0.2505
26847W        W44371  11.589  17.444   4.102  0.1695 -0.1054 -0.0724
26848W        W44372   2.389   1.596   0.157 -0.0222  0.1016 -0.2822
26849W        W44373   5.018   1.512   3.053 -0.0946  0.2825  0.1631
26850W        W44374  15.726   6.098   1.147 -0.0607 -0.3360  0.1450
26851W        W44375   3.228  14.438   5.016 -0.3276  0.1246  0.1689
26852W        W44376  10.944   6.753   4.917  0.0860  0.1788 -0.1827
26853W        W44377   6.167   6.499  13.815 -0.0334 -0.0153 -0.4435
26854W        W44378  16.902  14.959  15.257  0.1405 -0.0449 -0.1066
26855W        W44379   7.044   1.173  11.213 -0.0617  0.1462  0.0265
26856W        W44380  11.440   4.721  13.198  0.0038 -0.0287  0.1715
26857W        W44381   8.259  15.899   0.942 -0.2454  0.1507 -0.0561
26858W        W44382   5.888   1.214  14.974 -0.1970  0.2651 -0.2414
26859W        W44383  18.413   8.642  11.927  0.1407 -0.3378  0.0629
26860W        W44384   8.489  18.245   2.581 -0.2658  0.1516 -0.1154
26861W        W44385   8.500   1.072  14.516 -0.0278  0.0125 -0.2523
26862W        W44386   4.975  18.076  13.328  0.0252 -0.0923  0.2489
26863W        W44387   5.384  18.444  12.182  0.0496  0.1754 -0.1596
26864W        W44388   7.410   2.827   1.369 -0.1098  0.2468 -0.0971
26865W        W44389  13.324   4.187   4.058 -0.0645  0.2289 -0.2321
26866W        W44390  12.025  12.958  15.300 -0.3157 -0.0734 -0.0184
26867W        W44391   2.456   6.803   2.126 -0.3556 -0.0212 -0.1555
26868W        W44392   4.344   7.894  14.398 -0.0195 -0.2065 -0.0523
26869W        W44393   9.203  15.623   1.795 -0.2360  0.1488  0.1761
26870W        W44394  14.466   5.132  11.570  0.0442  0.1382 -0.0650
26871W        W44395  16.162   1.889   3.480  0.5461 -0.0173 -0.3459
26872W        W44396   4.992   0.925   2.785 -0.1276  0.1072  0.1913
26873W        W44397   0.101  10.758   0.728  0.1167 -0.2599 -0.2080
26874W        W44398   8.486   6.443   4.198 -0.0183  0.0142  0.0076
26875W        W44399   3.771   4.223  14.630 -0.2339 -0.2777 -0.0161
26876W        W44400   5.164  16.285   4.227  0.1243 -0.1747 -0.0220
26877W        W44401  13.540  12.781   0.558 -0.0208  0.1870 -0.0613
26878W        W44402   2.074   0.732  13.906  0.1819 -0.2317  0.0785
26879W        W44403  13.590  16.613   4.663 -0.2187 -0.2886  0.2651
26880W        W44404   5.368   1.211  14.870  0.1608  0.0638  0.3564
26881W        W44405   7.387   3.719   0.083 -0.1451  0.0958  0.0535
26882W        W44406  13.445   6.326  12.256 -0.1174 -0.4531  0.0499
26883W        W44407   8.032  18.266  11.517 -0.2537  0.0375  0.2210
26884W        W44408   5.980   5.074  11.877 -0.0732 -0.1657  0.3466
26885W        W44409  15.451   2.210   2.035 -0.0133  0.2261 -0.0124
26886W        W44410  13.267   1.874   3.394 -0.0204 -0.0188 -0.1009
26887W        W44411  13.015  15.091  12.551  0.4165  0.0004  0.1312
26888W        W44412   7.077   3.295  10.755 -0.5152 -0.0168 -0.0067
26889W        W44413  18.055   5.976  13.418  0.0906  0.1439  0.0229
26890W        W44414   2.877   6.575  10.952 -0.3013 -0.1216 -0.1078
26891W        W44415   0.991  15.303   4.675 -0.1587 -0.1550  0.0986
26892W        W44416  16.051   4.253   4.415 -0.3143  0.0471 -0.1633
26893W        W44417   3.617  16.678   1.637  0.0307 -0.0513 -0.0147
26894W        W44418   9.539   5.484  13.098  0.0650  0.0237  0.2131
26895W        W44419  12.127   5.879   2.849  0.0497  0.2383  0.1969
26896W        W44420   9.407  15.011   5.989  0.0595 -0.2768  0.1074
26897W        W44421   3.190   9.507   2.504  0.1103  0.0111  0.1671
26898W        W44422  12.941  16.420  12.992  0.1873  0.2671 -0.0466
26899W        W44423  11.891   1.712   2.430 -0.4155  0.0580 -0.2189
26900W        W44424  17.435  14.036   2.922 -0.0244  0.0234 -0.3326
26901W        W44425   9.402  12.000  15.343  0.1872  0.1379 -0.0810
26902W        W44426  10.012   4.447   2.904  0.0155 -0.1878  0.1795
26903W        W44427  14.276   5.621  14.779  0.0185  0.0573 -0.4228
26904W        W44428   2.616   8.061  12.811 -0.1003 -0.0156  0.1101
26905W        W44429  14.142  11.679   4.612  0.1340  0.0775 -0.3479
26906W        W44430   6.219   8.537  13.618  0.1453  0.4095  0.2408
26907W        W44431  15.890  13.983  13.826  0.2527  0.0205 -0.3704
26908W        W44432  11.006   6.397   3.244 -0.1097  0.0191  0.4466
26909W        W44433  13.294   0.533   1.970 -0.1948 -0.1433  0.0254
26910W        W44434  13.369  17.652  11.169  0.2388  0.1374 -0.4135
26911W        W44435  10.993  18.064   3.279 -0.0195  0.2795  0.2226
26912W        W44436   6.821  10.732   3.817 -0.1324  0.3341  0.0411
26913W        W44437   2.056  12.324  14.073  0.1847 -0.0656 -0.1584
26914W        W44438   1.584   9.669  12.342 -0.2178 -0.1890 -0.0421
26915W        W44439   7.656  10.864  14.790  0.0861  0.1825  0.0284
26916W        W44440  16.615  13.952   3.604  0.0450 -0.1327 -0.0346
26917W        W44441  10.464  12.223  11.146 -0.0599 -0.1065 -0.1783
26918W        W44442   8.857   1.428   2.806  0.1810 -0.0779 -0.0155
26919W        W44443   4.754   7.887   1.836 -0.1163 -0.0424 -0.0478
26920W        W44444   7.268   8.998  12.521 -0.2468  0.1972 -0.0109
26921W        W44445  14.587   4.966  14.565 -0.0890 -0.1992  0.0070
26922W        W44446  17.198   4.897   1.797 -0.2272 -0.1914 -0.5421
26923W        W44447  15.493   0.681   1.354  0.0250 -0.0166  0.1355
26924W        W44448   1.422   7.466  11.563  0.0610  0.0070 -0.0271
26925W        W44449  13.035  12.094  11.303  0.1251 -0.1977  0.4189
26926W        W44450  11.450   1.847  14.562  0.0971 -0.1366  0.0151
26927W        W44451  16.220  14.579   3.929  0.0616 -0.5859  0.1695
26928W        W44452  18.088   8.679  14.619 -0.0869  0.0532 -0.0527
26929W        W44453  16.033  11.502  10.864 -0.2133  0.1301 -0.0620
26930W        W44454   7.448   3.636  13.619  0.1760 -0.0044 -0.1501
26931W        W44455  10.681   0.249   1.052 -0.3933 -0.0022 -0.3507
26932W        W44456  16.597   7.626  10.911  0.0823 -0.0001  0.1331
26933W        W44457  10.584  13.357  13.082  0.5951 -0.0239  0.0351
26934W        W44458   6.143  13.737  12.798  0.2057 -0.2125  0.1998
26935W        W44459  10.566  18.477  11.215  0.1505 -0.0503 -0.2425
26936W        W44460  12.954  15.117  13.656 -0.0779  0.1111  0.1922
26937W        W44461   5.447   4.538  14.597 -0.3621 -0.0291 -0.3067
26938W        W44462   4.354   3.840   3.983  0.1748 -0.1898  0.0342
26939W        W44463   7.048  13.716  10.879  0.1984 -0.2980 -0.3772
26940W        W44464   5.375  14.120  10.928 -0.2123 -0.0653  0.1930
26941W        W44465   5.677  14.563  11.018  0.0512  0.1767  0.2461
26942W        W44466   4.221  11.692   4.660  0.1241  0.1900  0.0806
26943W        W44467  18.100   2.998   0.599 -0.2326 -0.0161  0.2487
26944W        W44468   8.110   9.932   1.771  0.0252  0.1080 -0.1928
26945W        W44469  10.555   7.252  11.529 -0.0471  0.2224  0.1793
26946W        W44470  16.324  16.173   0.061  0.1237 -0.1013 -0.3919
26947W        W44471  12.699   2.392   5.501  0.1993  0.0240  0.0421
26948W        W44472  10.224  10.889  13.120 -0.0549  0.2469 -0.3476
26949W        W44473  13.823  10.957  11.389 -0.3427 -0.4058 -0.0069
26950W        W44474  11.109  17.744  15.522  0.0773 -0.2573 -0.1975
26951W        W44475   6.691   6.122  10.157 -0.1804 -0.4298  0.4236
26952W        W44476   7.393  13.910  12.123  0.1065  0.1723  0.1110
26953W        W44477   7.704  10.893   4.368  0.1759 -0.2475  0.3089
26954W        W44478   5.053  15.288  11.248 -0.2471 -0.1430  0.0274
26955W        W44479   5.151   5.007  12.657  0.0566  0.0396  0.0863
26956W        W44480  13.259   5.094   3.984  0.2159 -0.0559 -0.2589
26957W        W44481   8.221   6.550   1.423 -0.1230  0.0354 -0.1886
26958W        W44482  14.601   3.146  15.314 -0.0357 -0.3795 -0.1030
26959W        W44483  17.253  10.413  14.172  0.0407  0.1149 -0.0624
26960W        W44484  14.482  15.402   5.716  0.0833  0.3153  0.1511
26961W        W44485   1.304   4.184   3.244  0.0546 -0.0517  0.0633
26962W        W44486  15.630   3.802   1.670  0.1113 -0.1751 -0.1373
26963W        W44487   3.430  11.380   1.223 -0.0052  0.0492  0.2253
26964W        W44488  11.434  14.885   0.747 -0.0363  0.0488 -0.0177
26965W        W44489  18.108   8.623   5.680  0.0447  0.1674  0.0841
26966W        W44490   2.569  17.594  11.935 -0.1455 -0.0974 -0.1815
26967W        W44491  15.797  11.214   9.846  0.0863  0.3650  0.1392
26968W        W44492   1.033  12.224  10.627  0.3701 -0.2110  0.1354
26969W        W44493  16.857  16.902  14.095  0.2079  0.1620 -0.1750
26970W        W44494   2.173   5.970  15.396 -0.0516  0.3766  0.1402
26971W        W44495  12.582  11.380   4.935 -0.0518 -0.4111  0.1016
26972W        W44496   1.208   7.688   4.325 -0.0620 -0.3335 -0.3571
26973W        W44497  10.200  11.085  14.857 -0.4001  0.2823 -0.1543
26974W        W44498   2.454  16.006   4.815 -0.2181 -0.1905 -0.1764
26975W        W44499  13.128  13.294   3.100 -0.2309  0.0288  0.1390
26976W        W44500  12.063   8.678  12.541  0.1398 -0.0145  0.2347
26977W        W44501   2.043   2.907  13.699 -0.0811 -0.0381  0.0352
26978W        W44502  14.017  11.763   3.671  0.0298  0.0159  0.0372
26979W        W44503   0.418  16.144  15.253  0.0495  0.5475 -0.1233
26980W        W44504   5.848   5.939   9.650 -0.1088 -0.0937  0.0290
26981W        W44505   7.377   8.948   0.503  0.0794 -0.0122 -0.1508
26982W        W44506   9.991  12.729  15.670 -0.0079 -0.2142  0.0536
26983W        W44507   0.906   7.042  15.137  0.1999 -0.2463  0.0427
26984W        W44508   6.613   6.632  11.054  0.0364 -0.1770 -0.0892
26985W        W44509  15.719   3.234  13.789  0.1076  0.2030  0.2676
26986W        W44510   3.576  10.112  12.165 -0.0679 -0.1059 -0.1299
26987W        W44511  10.403   7.567   4.949  0.2004 -0.1601  0.1227
26988W        W44512   5.732  17.898  13.078 -0.0385  0.0088 -0.0827
26989W        W44513   6.937   6.147  10.964 -0.0077 -0.0977  0.0929
26990W        W44514   5.259   5.480  13.440  0.2111 -0.1418 -0.0314
26991W        W44515   8.657  14.564   3.792  0.0113  0.1272 -0.1865
26992W        W44516  13.447  11.531  11.916  0.2097 -0.2731  0.0628
26993W        W44517   4.483   2.012  12.835  0.2135 -0.0486  0.3446
26994W        W44518  10.199  12.141  14.149  0.1678  0.2001  0.0437
26995W        W44519   8.416  12.685   2.226 -0.1497  0.0562 -0.4047
26996W        W44520  13.617   6.486  13.931  0.0165  0.1667 -0.0671
26997W        W44521  12.939   2.875   1.212 -0.2139 -0.3148  0.1111
26998W        W44522  11.805   1.016   0.108 -0.2874  0.1318  0.3609
26999W        W44523   4.036  11.972   1.954  0.4018 -0.5498  0.1367
27000W        W44524  13.539  14.503   6.490 -0.0935  0.0270  0.0262
27001W        W44525   7.991   4.320  12.639  0.2684  0.1681  0.0806
27002W        W44526  12.116  11.401   2.827 -0.1881  0.1225  0.2606
27003W        W44527   3.318  12.987  15.233  0.2411  0.1063 -0.3748
27004W        W44528   3.680   4.699  14.333 -0.1132 -0.3255 -0.4465
27005W        W44529  14.517  17.690   3.722  0.0630 -0.1342 -0.1055
27006W        W44530   4.012   6.837   1.075 -0.3294 -0.3228 -0.0004
27007W        W44531  17.129  12.672  14.653 -0.1100 -0.2159  0.0829
27008W        W44532  13.007  16.753   0.641  0.2350  0.4147 -0.1478
27009W        W44533   8.773  13.487  13.110 -0.3300 -0.1083  0.0210
27010W        W44534   8.736  13.340   1.991  0.1180 -0.1463  0.1770
27011W        W44535   3.633   0.321  11.650  0.0189 -0.3136 -0.0595
27012W        W44536  10.854  12.806  14.987 -0.0961 -0.3213  0.0586
27013W        W44537   5.194   9.815  11.376  0.2702 -0.1347  0.1080
27014W        W44538   3.371  11.433   4.526 -0.0826 -0.3839 -0.4722
27015W        W44539  11.212   8.304  12.092  0.1883  0.1261 -0.1262
27016W        W44540  15.349  11.484   5.620 -0.3722  0.0529  0.2298
27017W        W44541   1.159   1.996   4.682  0.0357  0.0108  0.1692
27018W        W44542  14.877   5.437  14.615 -0.0270 -0.2755 -0.1088
27019W        W44543   2.263   9.321   3.085 -0.2129 -0.1232  0.1397
27020W        W44544   4.149   7.898  12.617  0.1297 -0.0370  0.0100
27021W        W44545  13.947   5.048  10.680  0.0820  0.3541  0.0989
27022W        W44546  15.006   4.340  11.007 -0.5066 -0.1379  0.0544
27023W        W44547   4.964   0.061  10.995  0.1767 -0.2005 -0.0080
27024W        W44548  15.350  18.171  13.850 -0.2078  0.2849 -0.0347
27025W        W44549  10.945   7.238  14.955  0.2218  0.0599 -0.2317
27026W        W44550  11.271   6.585  13.933 -0.0126  0.0338 -0.0181
27027W        W44551  14.353  16.042   4.530 -0.2154  0.3035 -0.3259
27028W        W44552   9.396  12.312   0.066  0.1712 -0.1689 -0.1431
27029W        W44553  12.485  11.543  15.153  0.0840 -0.0951  0.0283
27030W        W44554   3.715   2.887  15.076 -0.1996  0.1138  0.2551
27031W        W44555   3.066   9.729  13.356 -0.1279  0.0147  0.1497
27032W        W44556   8.260   9.203   0.270 -0.0423 -0.0179 -0.1440
27033W        W44557  14.943   2.141   3.927 -0.1885 -0.1409 -0.0626
27034W        W44558  16.511   0.378   0.522 -0.0660  0.1689  0.0715
27035W        W44559   7.102   9.180   5.445  0.1047  0.1100  0.1022
27036W        W44560   0.362  16.113  13.390  0.0341 -0.5006 -0.3762
27037W        W44561   4.093  14.947   3.021 -0.1454  0.3351  0.0167
27038W        W44562  12.646   2.030   4.097 -0.0742 -0.0047  0.2276
27039W        W44563   9.023   5.785   2.258  0.1256  0.0494  0.3238
27040W        W44564  16.228  10.404   1.769  0.0953  0.2189 -0.2070
27041W        W44565   7.660  16.876   3.857  0.2435  0.1295 -0.2471
27042W        W44566   0.115  11.179  13.676  0.1034  0.2249  0.1184
27043W        W44567   4.000  11.122   2.430 -0.1909  0.0448 -0.2018
27044W        W44568   8.514  13.392   2.930 -0.0816 -0.2771  0.2069
27045W        W44569  17.911  15.224   2.573 -0.0055 -0.3152  0.0051
27046W        W44570   7.607  18.040  12.993  0.6343 -0.0483  0.0147
27047W        W44571   3.251   9.033   1.179 -0.2750 -0.3172 -0.0012
27048W        W44572   6.223   9.486   1.864 -0.0260  0.0435  0.1777
27049W        W44573  16.971  11.746   3.028 -0.2181 -0.3677 -0.1746
27050W        W44574   1.285   4.123  11.945  0.1027  0.1328 -0.1489
27051W        W44575  11.770   8.340  13.955  0.0931 -0.2003 -0.2299
27052W        W44576  17.617   5.439  12.591  0.1251  0.0942 -0.1003
27053W        W44577  14.694   8.348   3.066 -0.2418 -0.1954 -0.3313
27054W        W44578  11.324  14.619   1.283 -0.0276  0.0214  0.0203
27055W        W44579  10.792   2.449   1.642  0.2297 -0.0534 -0.2122
27056W        W44580  11.137   2.335  14.830  0.0111  0.1188 -0.2855
27057W        W44581   3.574  16.784   2.620  0.0846 -0.1159 -0.0005
27058W        W44582  14.067  17.840  11.935 -0.0708 -0.2065  0.1328
27059W        W44583  15.286   7.290   4.171 -0.0084  0.0522  0.3148
27060W        W44584  16.952  10.959  11.293 -0.0576  0.0372  0.0834
27061W        W44585  17.646   3.538   3.156  0.4457  0.1355  0.1087
27062W        W44586   0.895   1.278   0.659  0.1350  0.0841  0.0673
27063W        W44587   5.347   4.811   1.542 -0.1418  0.4501  0.1485
27064W        W44588   5.530  11.340  14.626  0.3510 -0.2572 -0.1318
27065W        W44589  12.116  15.179  13.927 -0.1727 -0.2413  0.1686
27066W        W44590   7.958   6.779   0.873  0.1168 -0.0987 -0.0667
27067W        W44591  16.564  18.215   1.268  0.0363 -0.0743 -0.2487
27068W        W44592   3.121  17.417   5.440 -0.1119 -0.4308 -0.3450
27069W        W44593   5.762  16.525   1.783 -0.2495 -0.1881  0.0288
27070W        W44594   9.338  11.472   1.424  0.3508  0.1753  0.1127
27071W        W44595  16.994   9.388   1.812 -0.1142 -0.0898 -0.2700
27072W        W44596   9.632   2.140   3.956 -0.2448  0.1167 -0.1973
27073W        W44597   5.695   1.967  12.169  0.2036 -0.0343 -0.0231
27074W        W44598  18.357  12.146   2.736 -0.0943  0.0426 -0.1560
27075W        W44599   7.234  16.785   0.616 -0.0599 -0.1083 -0.0571
27076W        W44600   8.137   8.170   4.359  0.2010  0.1253  0.0569
27077W        W44601   3.589   2.116   0.193 -0.0336 -0.0679 -0.3677
27078W        W44602  10.042  16.813   1.821 -0.2109  0.4733  0.2502
27079W        W44603   2.190   7.014  13.971 -0.0399 -0.0180 -0.2773
27080W        W44604  11.779   7.374   4.833 -0.1627  0.0388  0.1418
27081W        W44605   9.282   8.435   1.475 -0.0396  0.1162 -0.1635
27082W        W44606  12.426  17.411   5.848  0.3440 -0.1647  0.0210
27083W        W44607   5.746   0.809   4.705  0.1576  0.0871  0.1070
27084W        W44608   4.171   4.632   4.654 -0.1406  0.0222 -0.1931
27085W        W44609   6.102   7.192   2.797 -0.0356 -0.1479  0.0738
27086W        W44610  16.080  15.653   0.286  0.0896  0.4991  0.0951
27087W        W44611   6.348  17.799  13.198 -0.1317 -0.1444  0.0731
27088W        W44612   7.305   9.069   3.235 -0.0067 -0.3043 -0.0362
27089W        W44613  17.938   8.153  14.412 -0.0195 -0.0930  0.2553
27090W        W44614  15.499  14.347  13.936 -0.3827  0.0883 -0.1113
27091W        W44615   4.375   8.357  12.504  0.1266 -0.1351 -0.2813
27092W        W44616  15.815  14.308  14.681 -0.1535  0.0127  0.1860
27093W        W44617   6.432  10.039   2.709  0.2947  0.2616  0.1998
27094W        W44618   7.494  10.382  10.451 -0.1300  0.1953 -0.1807
27095W        W44619   5.165   5.684  13.919  0.0846 -0.0837 -0.2200
27096W        W44620   3.169   2.149  12.696 -0.2089 -0.0258  0.0922
27097W        W44621  15.016   7.489   2.696  0.0663 -0.2062 -0.0249
27098W        W44622   4.365   4.557  11.887 -0.0934  0.0942 -0.1177
27099W        W44623  11.508   5.909  15.491  0.0461 -0.2069 -0.0799
27100W        W44624  14.012  14.782   3.410  0.3205  0.2325 -0.0368
27101W        W44625  12.770   6.137   3.220  0.2720  0.1245 -0.3506
27102W        W44626   1.137  11.778  15.441 -0.0933  0.0001 -0.1069
27103W        W44627  14.070   5.632  13.439  0.2089 -0.0555  0.2399
27104W        W44628   6.962   0.351   2.108 -0.0959  0.3683  0.2271
27105W        W44629   5.093   7.251   3.417  0.1211  0.0522 -0.0486
27106W        W44630  15.255   3.977  11.980 -0.1259  0.0694  0.1082
27107W        W44631   5.564  10.749   1.828  0.0713  0.1011  0.2747
27108W        W44632  15.787   5.387  12.093 -0.1114 -0.2173 -0.0961
27109W        W44633  13.903  14.756  14.875  0.0420  0.1652 -0.0288
27110W        W44634   9.308  13.101   2.394  0.0628  0.0291  0.1138
27111W        W44635   3.641  11.963  12.632 -0.3121  0.1652  0.0631
27112W        W44636  10.255  11.728   4.122  0.3152  0.1252 -0.1605
27113W        W44637   6.623   0.929   2.923 -0.0856  0.1672 -0.1351
27114W        W44638  11.655   7.377  12.001 -0.2069  0.2166  0.2078
27115W        W44639   7.339  15.634  13.835 -0.2891  0.3739 -0.1915
27116W        W44640  18.140  17.640  11.421 -0.0740 -0.2171  0.0664
27117W        W44641  13.662   6.062   4.429 -0.1978 -0.1322 -0.3254
27118W        W44642   7.506  15.267   1.463 -0.1434  0.4742  0.0601
27119W        W44643   1.784   0.776   3.498  0.1790  0.0309  0.1042
27120W        W44644  13.268   6.376   3.086 -0.1639 -0.1010 -0.1042
27121W        W44645   1.763  17.951  13.626  0.0379 -0.3773 -0.1055
27122W        W44646   6.915   1.167  13.476  0.0780 -0.0991 -0.1437
27123W        W44647   0.377  15.801   1.652 -0.0265 -0.1441 -0.0891
27124W        W44648   3.322   0.446   1.716 -0.2608  0.2070 -0.4205
27125W        W44649   2.101   4.520  12.166 -0.1193 -0.3401 -0.1784
27126W        W44650  14.382   4.953  14.077  0.3033  0.0741 -0.0068
27127W        W44651   7.867   4.318  13.211  0.0774  0.0419  0.0803
27128W        W44652   6.742   6.678  12.721 -0.0490 -0.1023 -0.1011
27129W        W44653  17.060  10.004   0.240  0.0611  0.1420  0.1931
27130W        W44654  10.166  15.398   3.983  0.4545 -0.5737  0.0672
27131W        W44655   8.065   4.594   0.307 -0.0198  0.0699 -0.0075
27132W        W44656   7.434   0.856  12.985 -0.0188 -0.0077  0.2841
27133W        W44657   2.883   1.787   0.512  0.0364 -0.1955 -0.2552
27134W        W44658   1.460  13.224   3.793  0.0183 -0.0932  0.1702
27135W        W44659  10.856  16.644   1.195  0.0233  0.1605  0.2529
27136W        W44660  13.222   4.635   1.281  0.0844 -0.0073  0.1490
27137W        W44661  18.066   5.670   4.304 -0.1859  0.1393 -0.1837
27138W        W44662   4.549  10.856  11.393  0.1939 -0.0563  0.3436
27139W        W44663  11.242  14.207  14.891  0.1888 -0.3552  0.3997
27140W        W44664  15.094  17.094   1.683  0.3327  0.0185  0.2102
27141W        W44665   7.820  11.268   2.784 -0.1288  0.0597  0.0401
27142W        W44666  17.622   5.628  10.991 -0.1581  0.0912 -0.1405
27143W        W44667   6.167  11.367  11.299 -0.0863 -0.1947 -0.0065
27144W        W44668  13.935   6.337  11.606  0.1461 -0.2685 -0.2041
27145W        W44669  14.365  14.378   3.774 -0.0646  0.3877 -0.3887
27146W        W44670  13.981  14.339  11.104  0.1605  0.2948 -0.2114
27147W        W44671  11.802   3.795   0.854 -0.0088  0.0616 -0.1594
27148W        W44672   9.459  11.771  12.739 -0.0559  0.1023 -0.1424
27149W        W44673  13.203   6.532   0.045 -0.1017  0.1412  0.2330
27150W        W44674   0.579  15.580  11.180  0.0569  0.2057 -0.0756
27151W        W44675   5.140  10.737  15.160 -0.1428  0.2244  0.0897
27152W        W44676  14.722  15.202   3.118  0.1004 -0.0781 -0.0737
27153W        W44677   0.809   2.044  12.503 -0.2825  0.1548  0.2205
27154W        W44678   3.508   2.157  14.438  0.0352 -0.0806  0.0065
27155W        W44679  10.663  14.510   3.854 -0.1965  0.0225 -0.3984
27156W        W44680   7.021   8.747   1.237  0.0509  0.0991  0.1149
27157W        W44681  16.098  11.235   4.242 -0.0003  0.0176  0.1684
27158W        W44682   8.253   9.550   2.569  0.1120  0.1519  0.0040
27159W        W44683   7.186  14.565   4.781 -0.0826  0.1273 -0.1940
27160W        W44684  15.804   8.495  12.957  0.0788 -0.2786  0.1722
27161W        W44685  15.964   9.064  14.286 -0.0759  0.3598 -0.1047
27162W        W44686   1.787  16.566   5.175  0.0583  0.1044 -0.0670
27163W        W44687   2.436  13.388   1.342 -0.2703 -0.1489  0.3941
27164W        W44688  14.770   1.700   0.528 -0.2614  0.0436  0.2717
27165W        W44689  10.851   0.011   0.614 -0.0141 -0.1467  0.1467
27166W        W44690   1.652   8.296  11.571  0.2741  0.3524 -0.1393
27167W        W44691   3.405   1.245  12.747 -0.1355 -0.1913 -0.0263
27168W        W44692  14.556   3.835  13.406  0.1891 -0.2334 -0.3507
27169W        W44693  10.381  16.418   2.737  0.0148 -0.3854  0.1007
27170W        W44694  11.310   3.450  11.350 -0.0089  0.1851 -0.1270
27171W        W44695   7.103   1.956  12.400 -0.3796 -0.0593  0.0851
27172W        W44696   7.853   6.518  10.731  0.1555 -0.2841  0.0394
27173W        W44697   5.826   4.324  14.403 -0.1607  0.2322  0.2443
27174W        W44698   1.414  13.171   4.412  0.0894  0.3455 -0.2234
27175W        W44699   9.311   8.435   4.924 -0.1807 -0.2786  0.0345
27176W        W44700  11.509   3.006   4.943  0.3891 -0.2940  0.2335
27177W        W44701  10.297  15.989  12.568 -0.1405  0.0383  0.2892
27178W        W44702   5.103  10.211   4.632 -0.2252  0.0620  0.2099
27179W        W44703  12.426   0.996  14.313 -0.2351  0.1367 -0.0834
27180W        W44704  12.330   2.784   3.075 -0.2129 -0.0413  0.1435
27181W        W44705   9.466   5.493  15.069 -0.0139  0.2607  0.0559
27182W        W44706   3.158   0.253   4.278 -0.3450 -0.0857 -0.1517
27183W        W44707   6.296  17.694  11.102  0.1925 -0.0114  0.0327
27184W        W44708  12.260  13.934  12.529  0.3794 -0.2432 -0.1888
27185W        W44709   5.357  11.946   4.997  0.2963 -0.0816 -0.3335
27186W        W44710   0.966  11.312  14.711  0.0712  0.2552 -0.2616
27187W        W44711  11.164   6.604   2.685  0.2197 -0.1629 -0.1345
27188W        W44712   2.748  15.442  14.550  0.0696  0.1037 -0.0810
27189W        W44713  13.187   1.674  11.826  0.0361  0.0429  0.0934
27190W        W44714   8.829  14.440   5.723 -0.1085 -0.3576 -0.2069
27191W        W44715   9.585   0.705  14.752  0.1870  0.1502 -0.0249
27192W        W44716  13.466  11.968  12.166  0.2210  0.2212  0.1028
27193W        W44717  18.270   5.759   2.850 -0.0951  0.1321  0.1442
27194W        W44718   6.697  11.473   2.112  0.3352 -0.0270 -0.0411
27195W        W44719  18.362  10.307   0.741 -0.0355 -0.0167 -0.2505
27196W        W44720   5.411  13.571   1.160  0.1111 -0.0787  0.2404
27197W        W44721   3.833  15.915   4.752  0.3214 -0.2299 -0.2620
27198W        W44722  13.256   6.804  13.053 -0.0807 -0.1053  0.1863
27199W        W44723  17.214   9.059   0.487  0.3675 -0.0621  0.0820
27200W        W44724  15.807   8.504   0.558  0.0418  0.2297  0.1499
27201W        W44725   1.078   5.552   4.292 -0.1883 -0.2855 -0.0064
27202W        W44726  11.659   8.934   4.285  0.1614  0.0739 -0.3512
27203W        W44727  11.147   8.800  15.503 -0.3964  0.3301 -0.2463
27204W        W44728   4.442  13.070   3.739  0.0221 -0.0284  0.1111
27205W        W44729  12.026   9.179  12.756  0.2835  0.1023  0.1510
27206W        W44730  17.916  12.831  11.349  0.0300  0.0447  0.0138
27207W        W44731  11.417   4.905  15.320  0.4107  0.0971  0.2904
27208W        W44732   7.705  13.309   5.769 -0.0754  0.3468  0.2183
27209W        W44733   4.998   1.143   1.780 -0.1384 -0.2403  0.1029
27210W        W44734   2.476  13.334  15.591  0.1992  0.1583  0.2342
27211W        W44735  16.449  17.504  12.080 -0.1212  0.0207 -0.1363
27212W        W44736  11.866   5.859  11.924 -0.1584  0.1947  0.2519
27213W        W44737   2.170  12.152   4.793 -0.2620 -0.0274  0.2155
27214W        W44738  10.157   3.294   1.764 -0.1007  0.3239  0.1311
27215W        W44739   3.306  12.506  13.787  0.1770  0.0990 -0.0287
27216W        W44740  16.298   2.182  14.231  0.1658 -0.0541  0.1357
27217W        W44741   4.503  10.351  11.216 -0.2280 -0.0407  0.1128
27218W        W44742  13.074  13.655   3.470 -0.0886  0.1188 -0.3357
27219W        W44743  18.422  15.429   5.031 -0.2166 -0.2674  0.0464
27220W        W44744   7.007   5.005  11.237  0.1287 -0.0309  0.0680
27221W        W44745   5.894   4.552  12.697 -0.0966  0.1871 -0.1398
27222W        W44746  16.219   2.645   0.217  0.0199 -0.3324  0.0486
27223W        W44747   3.767   4.409  15.142 -0.1861  0.0966  0.2775
27224W        W44748   6.531   8.285   2.868  0.2145  0.0141  0.0080
27225W        W44749   6.697   6.111  15.235 -0.2431 -0.1519  0.1681
27226W        W44750   5.819  12.986   3.376 -0.0434  0.1689  0.0070
27227W        W44751  11.963  17.191   2.165 -0.0543  0.2321 -0.0412
27228W        W44752   1.634  12.690  13.223 -0.0970  0.1517  0.0621
27229W        W44753  10.736   9.722   1.144 -0.1363  0.3195  0.3279
27230W        W44754  18.379  16.530  14.757 -0.2089 -0.2416 -0.2314
27231W        W44755   9.036   8.915   3.104  0.1516 -0.0413  0.0296
27232W        W44756  11.040  13.140  13.496 -0.0559  0.2727 -0.2049
27233W        W44757   5.677   6.528   4.034 -0.0321  0.0082 -0.0073
27234W        W44758   7.771  10.916  12.252 -0.0453 -0.1238  0.1272
27235W        W44759   8.107   3.875   4.816 -0.3575 -0.1038  0.1237
27236W        W44760  10.909  12.760   4.793 -0.0677 -0.4084  0.0568
27237W        W44761   9.866   4.347   4.690  0.0799  0.0213 -0.1483
27238W        W44762  17.772  16.859   3.332  0.0354 -0.1217  0.2236
27239W        W44763  11.721   1.981  13.348  0.1346 -0.3556  0.1170
27240W        W44764  17.007   2.326  13.072  0.1292  0.1438 -0.3325
27241W        W44765   8.649  16.643  12.141  0.2553  0.0166 -0.0800
27242W        W44766   1.783   6.080  11.564  0.2688  0.2041  0.0254
27243W        W44767  15.383   2.924  14.910  0.1400  0.0119 -0.1370
27244W        W44768  17.337   9.263   0.008 -0.0854  0.1505  0.1059
27245W        W44769  12.642  13.748   2.487 -0.0188  0.0452  0.3051
27246W        W44770  18.145   0.674   2.743 -0.0379  0.0917 -0.0367
27247W        W44771   0.044  12.673  12.461  0.1148 -0.0056  0.0189
27248W        W44772   9.761  17.044   1.072  0.2635 -0.1681 -0.1061
27249W        W44773   0.781  13.784  13.494  0.4063 -0.0427 -0.0947
27250W        W44774   5.556  14.350  14.812 -0.2974 -0.2552 -0.2060
27251W        W44775  14.950   4.553   0.497  0.3324  0.2840 -0.2775
27252W        W44776   9.136   8.128   4.616 -0.1930  0.0358 -0.2386
27253W        W44777   4.310  15.152  13.440  0.2902 -0.0991  0.0741
27254W        W44778   2.965   1.125  12.536  0.1326  0.1942  0.4562
27255W        W44779   2.369   6.130  12.591  0.0312 -0.0090 -0.1483
27256W        W44780  18.160  12.926  14.173 -0.1140 -0.2040  0.0707
27257W        W44781  10.538   7.365   2.057  0.1562 -0.2027 -0.2780
27258W        W44782  15.846  13.822   4.000  0.1871  0.2598 -0.1365
27259W        W44783   2.491  10.750   4.224  0.0444 -0.4580  0.0759
27260W        W44784  15.688  11.132   3.971  0.3346  0.1835  0.3283
27261W        W44785   5.763  14.672   2.775 -0.1386  0.0645 -0.3163
27262W        W44786   4.623  13.078  12.201  0.0660  0.3668 -0.0927
27263W        W44787  17.798  17.374   0.367  0.1239 -0.2093  0.1941
27264W        W44788  15.238  10.993  12.843  0.4164  0.3249 -0.0323
27265W        W44789  11.485  15.512  15.067  0.1942  0.2177  0.1882
27266W        W44790  14.845  13.408  13.265  0.1746  0.1001 -0.0533
27267W        W44791   0.310  12.132   5.929 -0.1013 -0.1804 -0.1700
27268W        W44792   5.262  13.621  10.108 -0.1121 -0.0801 -0.2663
27269W        W44793   9.809  14.077  11.454  0.2283  0.2354  0.2258
27270W        W44794  14.636   9.488   1.584  0.1007  0.2835 -0.0059
27271W        W44795   8.331   9.769  14.254 -0.3413 -0.1203 -0.0340
27272W        W44796   7.180   0.702  11.115 -0.0790  0.0164  0.0863
27273W        W44797  14.601   4.811   1.200 -0.1175  0.1222 -0.2806
27274W        W44798  13.435  10.785  12.283  0.0662 -0.2349 -0.1283
27275W        W44799  11.733   0.351  14.551 -0.2025  0.3823  0.0131
27276W        W44800  11.494   6.203  12.571 -0.0291 -0.2075 -0.0176
27277W        W44801  12.374   8.907   3.309  0.0541  0.0148  0.0546
27278W        W44802   9.959  17.486   1.240  0.0967 -0.1039 -0.2079
27279W        W44803  16.928  15.477  13.067  0.0890  0.0839 -0.0754
27280W        W44804  15.639   1.807  11.053 -0.2991  0.1329  0.1413
27281W        W44805   1.670   0.121  13.077 -0.1008 -0.2160  0.3437
27282W        W44806  11.545   0.456   1.220  0.2277 -0.1068 -0.2534
27283W        W44807   3.307   4.561  13.050 -0.0260  0.1945 -0.2906
27284W        W44808  17.225  12.269   2.027  0.0873  0.0083  0.1004
27285W        W44809   7.511   5.283   4.298  0.0836  0.0421 -0.0244
27286W        W44810  14.153  14.984  10.654  0.3095  0.0189 -0.0819
27287W        W44811  12.450   0.945   3.036  0.0071  0.0063 -0.1246
27288W        W44812   8.784  10.142  12.086 -0.1900  0.0372 -0.0421
27289W        W44813  13.819   6.658   9.866  0.1568  0.0721 -0.2344
27290W        W44814  11.252  15.621   2.554  0.1381  0.0537  0.2858
27291W        W44815   0.251  15.949  12.452 -0.0423  0.0296  0.2167
27292W        W44816   5.488  16.609  14.869  0.5252  0.0186  0.2288
27293W        W44817  11.781   7.458  14.802 -0.0700 -0.0943 -0.0085
27294W        W44818  12.020  12.872   1.864 -0.0438  0.0009  0.2441
27295W        W44819   6.194   0.593  13.543 -0.0779  0.1914 -0.1790
27296W        W44820   9.885   5.217   4.091 -0.1947  0.3494  0.2172
27297W        W44821   7.783  13.086  15.709  0.0848 -0.0204  0.4456
27298W        W44822  16.341   4.954   3.502  0.0992 -0.1010  0.0245
27299W        W44823   3.967  13.798   5.018 -0.0300 -0.0757  0.2913
27300W        W44824  10.803   8.653   0.191 -0.1136 -0.0679  0.0464
27301W        W44825   8.601   4.127  15.413  0.2669 -0.1667  0.0826
27302W        W44826   2.273   2.631   0.505  0.2421  0.1594  0.1176
27303W        W44827   0.373  16.124  11.967 -0.0415  0.2246  0.2600
27304W        W44828   7.535  17.355   3.799 -0.3913 -0.0131  0.4045
27305W        W44829  16.749   7.713  12.214 -0.0131  0.1834  0.1347
27306W        W44830   8.530   5.973   3.121 -0.0428  0.2419  0.4841
27307W        W44831   6.761  11.175   0.328  0.0367  0.0463 -0.5234
27308W        W44832   3.706   6.046   3.493 -0.2210  0.1837 -0.1217
27309W        W44833   0.157  18.196   2.383  0.1048  0.3704 -0.2181
27310W        W44834   3.062  14.772  11.300 -0.0861 -0.4731 -0.1028
27311W        W44835   7.506  15.067   4.043 -0.1357 -0.0288  0.0067
27312W        W44836   9.260  10.616  12.377  0.2418 -0.0328  0.2454
27313W        W44837   6.890   3.002   1.211  0.2795 -0.1758 -0.0170
27314W        W44838  17.332  18.472   4.446 -0.1875 -0.3556 -0.1675
27315W        W44839   5.802   5.882  12.136 -0.0885  0.0103  0.0176
27316W        W44840  11.304  14.506   3.519  0.3359 -0.2893 -0.0344
27317W        W44841   9.452  12.134  11.949 -0.1916 -0.1883 -0.0767
27318W        W44842   9.918  10.188   0.092 -0.1057  0.0608 -0.0691
27319W        W44843  17.919  13.522  15.321 -0.2331  0.1137  0.1308
27320W        W44844  13.885  18.276   5.738  0.0800 -0.3895 -0.2501
27321W        W44845  11.707  16.212  15.205 -0.0786 -0.0478 -0.0811
27322W        W44846   5.362  12.413  11.508 -0.3583 -0.1876 -0.1020
27323W        W44847   1.320   5.013   1.649 -0.4458 -0.1317 -0.0453
27324W        W44848   9.816   3.976   1.464 -0.0564 -0.0527 -0.0119
27325W        W44849  14.591  15.411  15.225 -0.1775 -0.0096 -0.0812
27326W        W44850   5.961   2.264  14.412  0.1179 -0.0512  0.3853
27327W        W44851  11.946   1.313  15.376 -0.1799 -0.0671 -0.1301
27328W        W44852  17.948  17.681   3.865 -0.4964 -0.2782 -0.2408
27329W        W44853   3.901   5.241   9.738 -0.1433 -0.2933 -0.0607
27330W        W44854   2.267   8.838   1.320  0.0931 -0.0439  0.0701
27331W        W44855  12.091   0.563  12.578  0.1638 -0.5228 -0.1418
27332W        W44856  12.251   5.763  11.295 -0.2062 -0.2334 -0.4236
27333W        W44857   4.070   8.279   0.943 -0.2229  0.2659 -0.0871
27334W        W44858  16.317   2.122   0.539  0.0924  0.2267 -0.2610
27335W        W44859  11.568   4.035   2.070  0.4657  0.2888 -0.0676
27336W        W44860  18.311   3.428   0.487 -0.0097 -0.1447  0.2780
27337W        W44861  13.201   6.312  12.855  0.0273  0.1032 -0.0421
27338W        W44862  16.259   1.157   2.289 -0.2638 -0.0803 -0.1633
27339W        W44863   2.877  17.989  13.299  0.1429  0.2260 -0.0062
27340W        W44864   5.598   1.003  12.602  0.0409  0.1340  0.0750
27341W        W44865   1.205  14.451  14.611 -0.1971 -0.1281  0.3452
27342W        W44866   0.430   5.419  15.322  0.3423 -0.0323 -0.0676
27343W        W44867   2.117   6.406  10.674  0.1038 -0.1562 -0.2289
27344W        W44868  15.380   2.579  13.120  0.0145 -0.3008 -0.0059
27345W        W44869  16.066   1.322  12.771 -0.0220 -0.0574  0.0870
27346W        W44870   6.960  12.798  15.233 -0.0115 -0.0246  0.0160
27347W        W44871  12.734  10.506  12.623 -0.1892  0.1861  0.0725
27348W        W44872   4.540  14.339  13.896  0.0140 -0.2522  0.0804
27349W        W44873  11.664   9.037  11.788  0.0204 -0.1194 -0.0535
27350W        W44874   9.924   8.521   4.257  0.0663 -0.1217 -0.0735
27351W        W44875  15.550   5.062   9.964 -0.2269  0.2589  0.1896
27352W        W44876   7.548  15.308  11.870  0.1075 -0.3928  0.1565
27353W        W44877   0.247   7.706   3.304 -0.0776 -0.0161  0.0520
27354W        W44878   3.577   0.710  15.382  0.2774  0.1040  0.3564
27355W        W44879  17.062   9.424  10.402 -0.2450 -0.3250  0.2653
27356W        W44880   1.218  12.172   0.042 -0.1138  0.0151 -0.1023
27357W        W44881   9.983  11.412  11.097  0.0491  0.1464 -0.4615
27358W        W44882   2.773  17.311  14.982 -0.0016 -0.0103 -0.3266
27359W        W44883  15.294  11.336   3.641  0.1545 -0.1901 -0.3094
27360W        W44884   9.229   1.140  14.769  0.0231 -0.1823  0.0188
27361W        W44885   7.393   1.477  14.249  0.1439  0.1041 -0.0678
27362W        W44886  15.700  12.732  10.822  0.0771  0.1421 -0.2388
27363W        W44887  10.957  11.903  12.457 -0.2471  0.0797  0.3937
27364W        W44888  11.624   8.781  15.664 -0.0887 -0.1427  0.2489
27365W        W44889   0.559   0.627  12.355  0.1616 -0.1448 -0.0839
27366W        W44890  13.997   8.787   4.139 -0.1334  0.2854 -0.4705
27367W        W44891  14.481  12.888   2.272 -0.2163  0.1753  0.0843
27368W        W44892  15.066   5.360  11.514  0.1597  0.0447 -0.1049
27369W        W44893   8.454   7.740  14.668  0.0020 -0.2918  0.1698
27370W        W44894   8.857   8.803  15.429 -0.0611 -0.2674  0.0668
27371W        W44895  16.301   1.028   0.976 -0.0179 -0.1392  0.1074
27372W        W44896   6.957  17.986  15.482 -0.0432 -0.0284  0.2332
27373W        W44897  16.382   3.744   1.690 -0.0546  0.1353 -0.2027
27374W        W44898   1.040   2.980   3.516  0.0662  0.0031 -0.0520
27375W        W44899   6.864   3.042  15.251 -0.0321  0.0712  0.3755
27376W        W44900  13.091  11.351   1.743 -0.2018 -0.1126  0.0055
27377W        W44901  17.734   7.199  12.903 -0.1159  0.1623  0.0540
27378W        W44902   3.803   5.538  15.454  0.0597 -0.1434 -0.1918
27379W        W44903  12.606  17.319  10.844  0.0788  0.3899 -0.1085
27380W        W44904  14.448   4.166   0.357  0.2864  0.1221  0.1166
27381W        W44905  12.851  11.192  10.880  0.1243 -0.0031  0.1312
27382W        W44906  14.971   2.002  15.413  0.2563 -0.0547 -0.0441
27383W        W44907   2.286  10.696  11.992 -0.4797 -0.2909 -0.1192
27384W        W44908   4.783   3.778   2.132  0.0911  0.5401 -0.0534
27385W        W44909   2.220  18.442  15.513 -0.1557 -0.1367  0.2243
27386W        W44910  16.045  11.213   1.568 -0.0522 -0.2463  0.1554
27387W        W44911   7.709   4.050  13.657  0.0552 -0.1529  0.1314
27388W        W44912  14.058   3.194   4.063 -0.2830 -0.0651 -0.0922
27389W        W44913  16.405   7.486  14.900  0.2794  0.3240  0.1016
27390W        W44914   2.351   3.593  10.943 -0.1963  0.0362 -0.3263
27391W        W44915  11.838   7.916   0.550  0.2178 -0.1118  0.1300
27392W        W44916   4.061  13.939  11.109 -0.0792  0.1305 -0.0592
27393W        W44917   7.353   0.207   3.728 -0.0080  0.1056 -0.2060
27394W        W44918  14.157   6.120   4.246  0.0343  0.0714 -0.1444
27395W        W44919   7.258   7.249  12.030  0.5634  0.1337 -0.0515
27396W        W44920  17.531   4.899   4.268 -0.3309  0.1447 -0.1070
27397W        W44921  14.102  13.943   3.900  0.2610  0.0407  0.0897
27398W        W44922   2.969  12.127  15.288  0.0637 -0.4658 -0.0636
27399W        W44923   1.493   6.371  15.383  0.3993  0.2181 -0.0027
27400W        W44924   8.245   6.511  12.705 -0.1621 -0.0540 -0.3469
27401W        W44925   7.964   2.624   0.503 -0.0393  0.3563 -0.2738
27402W        W44926   1.617   2.171  13.680  0.0252  0.0884  0.1537
27403W        W44927   1.788   7.362  11.243 -0.1559  0.1106  0.0069
27404W        W44928   7.532   3.085  14.416 -0.3385 -0.0436  0.0400
27405W        W44929  13.711   7.673  11.167  0.0100 -0.2911  0.1857
27406W        W44930  13.433  14.442  13.049 -0.0130 -0.3501 -0.0286
27407W        W44931   6.911   7.575  12.060  0.1906  0.0427 -0.3163
27408W        W44932  12.424  11.468  10.935 -0.0409  0.2902  0.1646
27409W        W44933   1.475  14.693   1.039 -0.0579 -0.0426  0.1132
27410W        W44934   1.927  12.752  15.169  0.1576 -0.2323  0.0782
27411W        W44935  11.381   6.417   3.945  0.1252  0.2138  0.0776
27412W        W44936   0.773  10.336   0.005 -0.0629  0.0699 -0.0557
27413W        W44937   2.382   0.213   1.895 -0.1926  0.2886 -0.1257
27414W        W44938   2.925  17.093  14.589 -0.0353  0.1022 -0.0230
27415W        W44939   9.748   0.532  11.185 -0.1813  0.2665 -0.1010
27416W        W44940  12.409   0.821  13.572 -0.0200  0.0030  0.1023
27417W        W44941   7.965   1.660  11.330  0.4742  0.0270 -0.2417
27418W        W44942  14.008  17.603   3.801  0.1128 -0.1728 -0.1517
27419W        W44943  12.389  11.610  12.646  0.1491 -0.1276 -0.4740
27420W        W44944   8.380  17.364   2.645 -0.1699  0.0660 -0.1503
27421W        W44945  10.830  13.038   0.499  0.0861  0.2758 -0.0160
27422W        W44946   7.724   3.101   4.631 -0.1721  0.0145 -0.0050
27423W        W44947   9.200   7.424   0.370  0.0297 -0.1661  0.1834
27424W        W44948   7.398   1.013   1.513 -0.0896  0.2841 -0.0200
27425W        W44949   0.369  14.917   1.182 -0.2067  0.0491 -0.0060
27426W        W44950   7.492   0.370  15.684  0.1999  0.0687  0.2158
27427W        W44951  11.653   9.204   0.193 -0.0580 -0.2098 -0.2591
27428W        W44952  16.785   4.507  14.332 -0.2899 -0.0689 -0.0304
27429W        W44953  15.890  12.925   0.377 -0.0425  0.0295 -0.0385
27430W        W44954   8.535   4.708   1.244  0.0867 -0.4316 -0.1961
27431W        W44955   2.909   5.376   2.436  0.3435 -0.1328  0.0626
27432W        W44956   1.903  15.291   2.401 -0.0041  0.0253 -0.0353
27433W        W44957   0.535  10.690   4.438  0.0674 -0.1875 -0.4226
27434W        W44958   3.448  11.135   2.251  0.0079  0.1055 -0.4464
27435W        W44959  17.484  11.984   3.289  0.0216 -0.0352 -0.2354
27436W        W44960   0.728   3.102  15.479  0.3605 -0.1541  0.0344
27437W        W44961   0.747   2.122  13.448 -0.1386 -0.0466 -0.2454
27438W        W44962  14.944  18.442  15.322  0.1016  0.0218 -0.1605
27439W        W44963  12.539   2.567   2.549 -0.1880  0.1211  0.0177
27440W        W44964   0.227   7.850   1.868 -0.0727  0.0534 -0.0388
27441W        W44965  16.063   4.135   2.944 -0.0887  0.2727 -0.3732
27442W        W44966  13.085   1.743   1.694 -0.2739 -0.0610 -0.0380
27443W        W44967  14.547   9.767   2.069 -0.1943  0.1109 -0.0279
27444W        W44968  16.495   6.124  11.858 -0.1431 -0.0959  0.1607
27445W        W44969   6.322   9.779   2.271 -0.2293  0.0567 -0.0670
27446W        W44970  12.948  16.975   0.154  0.3349  0.1467 -0.3221
27447W        W44971   0.521   8.890  10.043 -0.0500 -0.0114  0.2610
27448W        W44972   0.714   4.394  11.131  0.1739  0.1048 -0.2609
27449W        W44973  16.870  16.573   3.351 -0.3413  0.0135 -0.2028
27450W        W44974   3.496  16.299   3.845 -0.1169  0.1080 -0.2898
27451W        W44975  16.848  11.018  11.784 -0.0069 -0.0400  0.1613
27452W        W44976   7.660   1.827   1.233 -0.0740 -0.2322 -0.0489
27453W        W44977  10.402   3.263   2.748  0.0335  0.2744 -0.1462
27454W        W44978   9.970  15.770   4.750 -0.2595 -0.2618 -0.1788
27455W        W44979  16.388  17.188  13.389  0.2612 -0.2321 -0.1288
27456W        W44980   5.861  11.877  15.211  0.2997  0.1869  0.1009
27457W        W44981   1.593   3.487   4.880 -0.0439 -0.0732  0.2330
27458W        W44982   1.544  18.073   2.586 -0.1264  0.0890  0.1893
27459W        W44983   4.293  17.558  12.273  0.0056 -0.1097 -0.0467
27460W        W44984  14.114  18.473  15.301  0.1675  0.0002 -0.2716
27461W        W44985   9.959   6.907  14.042  0.0822 -0.0190  0.0036
27462W        W44986   2.217   7.580   3.381  0.2135 -0.3599 -0.0210
27463W        W44987  14.357   4.379  15.077  0.2511 -0.0275 -0.1734
27464W        W44988  16.058  17.370   1.941 -0.2013  0.2716 -0.1825
27465W        W44989   6.343   9.311  13.236  0.5211 -0.2870 -0.0077
27466W        W44990  13.634   0.331   2.313  0.2959 -0.2395  0.3012
27467W        W44991   2.920   9.983  14.317 -0.0545  0.1002 -0.1241
27468W        W44992   5.828   5.986   4.030  0.1993 -0.1116 -0.0044
27469W        W44993  10.585  17.996  14.897  0.1348 -0.0474 -0.1200
27470W        W44994  16.547   9.437   2.105  0.1323 -0.1466 -0.0292
27471W        W44995   4.443  13.702   0.024 -0.0333 -0.1481 -0.2389
27472W        W44996   1.958   1.582   1.521 -0.2437  0.2389 -0.0189
27473W        W44997  17.428  17.692   3.411 -0.3442 -0.1979  0.1051
27474W        W44998  12.777   5.716   5.432  0.0807 -0.2039  0.1842
27475W        W44999   0.466   0.902   4.170 -0.1156 -0.1365  0.1553
27476W        W45000  17.095   4.787  12.382  0.1691 -0.1190  0.1462
27477W        W45001   4.843  11.915  12.622 -0.0372  0.0937 -0.0670
27478W        W45002  16.226  11.755   3.552  0.1364 -0.0462 -0.0338
27479W        W45003  17.422   1.587  12.163  0.2357 -0.1621  0.0190
27480W        W45004  12.457   1.245   4.665 -0.0126 -0.0479 -0.1993
27481W        W45005  10.600   8.302  14.118  0.4461 -0.2925  0.0720
27482W        W45006  17.776   0.526  15.231  0.1106 -0.2998  0.0048
27483W        W45007   5.916   7.627  15.512 -0.1956 -0.2733 -0.2776
27484W        W45008   7.459   5.120  11.486  0.0533  0.2457  0.1906
27485W        W45009   2.780   8.048   4.562 -0.2116  0.0640  0.1049
27486W        W45010  10.227   2.808   3.661 -0.2019 -0.1277 -0.0344
27487W        W45011  12.012  15.540  14.255 -0.1907 -0.3518  0.1584
27488W        W45012   3.968   1.588  15.243  0.0693 -0.0881  0.0265
27489W        W45013  14.101   8.390   3.827  0.2223  0.1586 -0.0197
27490W        W45014   6.055   8.583   2.091  0.0282  0.0551 -0.0674
27491W        W45015  10.392   3.556   3.702  0.1499  0.3793 -0.1748
27492W        W45016  15.228   3.403   5.314 -0.2104 -0.2207  0.1040
27493W        W45017   3.679   9.246   2.629 -0.1669 -0.5245  0.0068
27494W        W45018  13.430  14.602  11.760  0.0178  0.2348  0.0573
27495W        W45019  14.241  10.587   1.147  0.2887  0.2555 -0.0111
27496W        W45020   0.474   1.863  14.516  0.0574 -0.0806 -0.0760
27497W        W45021   1.380   0.237  11.956 -0.0506 -0.2845  0.2641
27498W        W45022  17.430   7.061  11.337 -0.0480 -0.0374  0.2439
27499W        W45023   0.590  14.073   3.093 -0.0516  0.0236  0.0034
27500W        W45024  18.421  17.357  11.157 -0.2637 -0.0040  0.0117
27501W        W45025  10.500   5.930  11.064  0.1281  0.2059  0.2228
27502W        W45026   2.604  11.516  12.195  0.0909 -0.2231  0.3012
27503W        W45027   9.889  14.989  11.852 -0.0175  0.0154  0.0432
27504W        W45028   2.657   1.664   1.424 -0.1007 -0.1398 -0.3034
27505W        W45029  16.848   5.115   3.538  0.1756 -0.2170  0.0271
27506W        W45030  10.943   6.136  13.789 -0.2467 -0.0282  0.0543
27507W        W45031   7.893   4.335   1.691  0.1586  0.4048  0.1359
27508W        W45032   3.078   7.789   2.254  0.0625 -0.5343 -0.0966
27509W        W45033   4.171   4.555  13.722 -0.1652 -0.0006 -0.2371
27510W        W45034   9.595  15.640   5.056  0.1051 -0.0635 -0.1717
27511W        W45035   4.706  11.512   0.453 -0.1811 -0.1787 -0.1884
27512W        W45036  15.734  15.989  14.307 -0.0002  0.0929 -0.0834
27513W        W45037  17.103   8.734  14.826  0.0879  0.1299 -0.0952
27514W        W45038   3.627  14.520   1.944 -0.1417  0.0634 -0.1468
27515W        W45039  11.759  13.371  13.826  0.0154 -0.0309 -0.0642
27516W        W45040   1.460  11.501   0.067 -0.2400  0.3506 -0.1545
27517W        W45041  15.303  10.742   1.724 -0.1386  0.0919 -0.1964
27518W        W45042   2.171   2.698   3.285  0.0677  0.1434  0.2400
27519W        W45043   1.777   3.449   2.293  0.3385  0.1148 -0.1262
27520W        W45044  15.092  15.458   1.890  0.0055 -0.0966 -0.4464
27521W        W45045  13.375   8.863   2.364  0.1975  0.0397 -0.2789
27522W        W45046   6.662  10.955  13.698 -0.1233  0.1387 -0.1003
27523W        W45047  17.008  11.144  14.013  0.2763  0.0044  0.0933
27524W        W45048   9.642   7.258   0.190  0.1063  0.2450 -0.0426
27525W        W45049  15.087   3.455   3.534 -0.1467 -0.1835  0.0670
27526W        W45050  16.658  16.192   1.969 -0.3432  0.1265  0.1129
27527W        W45051   6.547   5.772  10.945  0.4072 -0.2110  0.1639
27528W        W45052   2.788   5.927  15.232  0.1116 -0.0468 -0.2020
27529W        W45053   8.093  12.063   0.698  0.1446  0.1169 -0.0697
27530W        W45054   1.208   2.095  10.166  0.0505 -0.2929  0.2237
27531W        W45055   3.429  14.476   0.800 -0.2991  0.2726  0.0851
27532W        W45056   1.375   6.651   0.055 -0.2739 -0.3501 -0.0250
27533W        W45057  14.042   9.260   3.282 -0.0938  0.4278  0.1631
27534W        W45058  10.477  14.339  14.279  0.1991  0.1076  0.0144
27535W        W45059  12.550  12.160   3.815 -0.1219  0.3359 -0.2269
27536W        W45060  10.860  14.430   1.098 -0.2402  0.0685  0.1461
27537W        W45061  12.765  15.931   3.561  0.0790  0.0628  0.1874
27538W        W45062   8.072  16.764  14.366 -0.0973  0.5749  0.0393
27539W        W45063   0.833   1.720  13.769  0.2264  0.1518  0.1426
27540W        W45064  11.912   3.193  14.714  0.1129  0.1039  0.3155
27541W        W45065  12.040   0.835  15.290 -0.1032 -0.0417  0.0642
27542W        W45066   3.369   7.354  15.543  0.1984 -0.3143  0.0417
27543W        W45067   3.001  13.106   3.221  0.2352 -0.1848  0.1831
27544W        W45068  12.570   2.839   0.449  0.0595 -0.0840  0.1032
27545W        W45069   0.040   7.574  15.377 -0.0447 -0.0507  0.0781
27546W        W45070  12.328  13.860  13.346 -0.1576  0.1707  0.0300
27547W        W45071   9.644   3.878   4.881 -0.1046  0.2922 -0.3017
27548W        W45072   0.097   2.061   4.401 -0.1395  0.0390 -0.0070
27549W        W45073   6.936  15.410  14.671 -0.0230  0.1024 -0.2764
27550W        W45074  14.437  15.777  13.811 -0.0663  0.1176 -0.0320
27551W        W45075   7.649   5.207   0.579  0.0428 -0.1661  0.0514
27552W        W45076   7.937  15.435   1.080  0.0351  0.3395  0.0354
27553W        W45077  18.300  10.189   4.648  0.0724 -0.0845 -0.1469
27554W        W45078  14.763   4.392  13.459 -0.2603  0.0943  0.0041
27555W        W45079  17.436   2.366  11.938 -0.1607 -0.0347 -0.2547
27556W        W45080  13.828  12.829  11.807  0.1623  0.3518  0.1195
27557W        W45081  15.701  11.085   3.454  0.0981 -0.0373 -0.0557
27558W        W45082   4.889  14.461  13.087 -0.0739 -0.1522  0.1203
27559W        W45083   0.484   5.253  11.786  0.3728  0.1951 -0.2966
27560W        W45084  17.327   2.723  12.287 -0.1696 -0.0939  0.0478
27561W        W45085   4.146   9.561   5.806  0.3259  0.3055 -0.0266
27562W        W45086  14.645   7.765  12.330  0.1116  0.0223  0.1982
27563W        W45087  11.973  14.259   1.743 -0.2505 -0.1168 -0.2732
27564W        W45088   5.470  15.151   2.566 -0.0505 -0.0607  0.0126
27565W        W45089   2.105   6.530  11.627  0.0809 -0.2521 -0.2431
27566W        W45090   3.544   7.084  12.772 -0.1615 -0.0067 -0.3743
27567W        W45091   0.473   3.766  11.699  0.1166 -0.4312 -0.0806
27568W        W45092  14.458   0.715  12.383  0.1233  0.1581  0.0531
27569W        W45093   9.643  15.512   0.400 -0.1228 -0.1189 -0.0492
27570W        W45094   9.331   4.445   0.508 -0.0478  0.2007  0.2269
27571W        W45095   1.065   0.842   0.915  0.1330  0.0407  0.3361
27572W        W45096   3.774   5.550   4.711 -0.3790 -0.3788 -0.0025
27573W        W45097  12.813   8.349   3.681 -0.1043 -0.0894  0.3588
27574W        W45098   3.219  16.736  14.333 -0.1887 -0.0085 -0.1041
27575W        W45099   2.134  12.399   2.963 -0.0330 -0.4752 -0.1997
27576W        W45100  15.774  12.433  11.200 -0.0492  0.2185  0.1299
27577W        W45101   7.537   7.631   1.005  0.2333  0.1292 -0.3003
27578W        W45102   4.589   4.607  14.093  0.2672  0.1166  0.3113
27579W        W45103  13.436   6.653  11.200 -0.2667 -0.1177  0.1803
27580W        W45104   0.968   6.766  13.794 -0.1443 -0.0248 -0.1647
27581W        W45105   8.330  16.598  11.112  0.1437  0.1425 -0.1917
27582W        W45106   3.262   6.288   0.300  0.0185  0.3524  0.1868
27583W        W45107   4.904   6.977  14.096  0.0434 -0.1742 -0.2990
27584W        W45108   6.207  14.091   0.544  0.3672 -0.0357 -0.2612
27585W        W45109  17.733  16.873   0.221 -0.2593  0.0186  0.1408
27586W        W45110  16.121  17.192   3.178 -0.0219 -0.0526  0.0341
27587W        W45111  14.322  13.982  12.087 -0.0107 -0.1819 -0.0335
27588W        W45112   2.949   2.584  13.536  0.0269 -0.1777 -0.0275
27589W        W45113  11.969  14.493   0.850 -0.0631 -0.0034 -0.2716
27590W        W45114   8.080   3.988  14.104 -0.2921 -0.2134 -0.0547
27591W        W45115   4.333   7.730   2.066  0.1061  0.1986 -0.0623
27592W        W45116  14.259   3.787   0.082  0.1641 -0.0695  0.0311
27593W        W45117  16.535   2.225  12.259 -0.0082 -0.3755  0.3327
27594W        W45118   2.612   4.426  11.898 -0.1128 -0.0551  0.0619
27595W        W45119   1.805   6.272  12.030 -0.2137 -0.0864  0.2911
27596W        W45120   2.336  14.345   1.074 -0.5450  0.0930 -0.1925
27597W        W45121   5.078   5.477  11.994 -0.0007  0.0202 -0.2957
27598W        W45122   1.142   8.637  11.361 -0.1314 -0.2219  0.2755
27599W        W45123   8.135  11.544   0.958 -0.0585  0.0380  0.2695
27600W        W45124  13.971   8.079   1.235 -0.0038 -0.2858 -0.0936
27601W        W45125  13.198  17.514  11.613 -0.2522 -0.0504  0.0063
27602W        W45126  14.499   4.425   4.169 -0.0979 -0.0533  0.0294
27603W        W45127   1.948   6.026  13.677  0.5115 -0.0621 -0.5195
27604W        W45128  10.391   3.115  14.931 -0.1059 -0.0398  0.3128
27605W        W45129  14.441   3.826  12.897  0.1122  0.1183 -0.0283
27606W        W45130  10.689   1.291  11.116 -0.0236 -0.2662  0.1698
27607W        W45131  16.655  13.335   3.770 -0.1522  0.0322  0.2193
27608W        W45132  14.560   6.683   2.516  0.0101  0.4334 -0.1409
27609W        W45133   1.305   5.198  13.474  0.0406 -0.2342 -0.0015
27610W        W45134   5.701   7.983   4.857 -0.1459  0.1295 -0.2026
27611W        W45135  12.045  11.206  12.524  0.0329 -0.2348  0.2868
27612W        W45136   6.559  16.820  11.061  0.0466 -0.2853 -0.3082
27613W        W45137  14.115   9.055   2.703  0.1773 -0.0450 -0.3681
27614W        W45138  11.491  13.782   0.715  0.1274 -0.0654 -0.0082
27615W        W45139   8.812   7.455   0.079  0.0586 -0.3376 -0.1863
27616W        W45140   7.781   9.193   3.555  0.0640 -0.0758 -0.2204
27617W        W45141   7.824   5.030  14.537  0.0215 -0.1710  0.1622
27618W        W45142   7.547  14.050   2.540  0.1507  0.1839  0.1159
27619W        W45143   6.548   3.745  14.114  0.3859 -0.1154 -0.3064
27620W        W45144  16.028   6.170   3.475  0.0615 -0.1622 -0.0197
27621W        W45145  10.326  13.043  11.695 -0.1389 -0.2628  0.0991
27622W        W45146  14.382   6.592  11.615  0.1947  0.2044  0.0912
27623W        W45147  14.181   9.495  11.443 -0.3215  0.2137  0.2416
27624W        W45148  15.833  12.627   2.468 -0.0165 -0.0767 -0.2351
27625W        W45149   6.678   2.019   1.192 -0.0289 -0.4135 -0.1354
27626W        W45150  18.340   8.790   0.496  0.1151 -0.1740 -0.0721
27627W        W45151  13.361   5.612   3.679 -0.0469 -0.4041  0.2824
27628W        W45152  10.100   0.923  14.852  0.1885 -0.1814  0.1276
27629W        W45153   3.610   4.887   3.237  0.0399 -0.1557  0.1940
27630W        W45154   5.830   8.581  15.246 -0.0497  0.1750 -0.1643
27631W        W45155  13.438   0.609   5.761  0.2987  0.1340 -0.0949
27632W        W45156  13.581  11.976   3.476  0.0879 -0.1019 -0.0683
27633W        W45157   5.433  17.890  13.840  0.1875 -0.0264 -0.2469
27634W        W45158  11.426  15.825   3.605 -0.1101  0.0959 -0.0775
27635W        W45159   1.677  15.763  12.936 -0.2378 -0.0224 -0.0772
27636W        W45160   1.829   9.709   1.079  0.3819 -0.1322  0.1779
27637W        W45161  12.801   9.849  15.285  0.1374  0.1552 -0.2282
27638W        W45162   5.543   7.269   3.721  0.0936 -0.0922  0.1650
27639W        W45163   1.396  16.227   1.430  0.4832 -0.1848  0.2955
27640W        W45164   9.681   9.123   4.644  0.0900 -0.1558  0.0915
27641W        W45165   6.585  15.175   2.371 -0.0595  0.0042 -0.0175
27642W        W45166   2.339  15.739   3.016 -0.1551  0.1987 -0.1829
27643W        W45167  14.112   1.955   0.038 -0.0980 -0.1050 -0.1122
27644W        W45168   6.262  16.546  12.802  0.2582 -0.0622 -0.1059
27645W        W45169  14.326  10.966  12.820 -0.0153 -0.0362 -0.3586
27646W        W45170   2.492  16.370  13.397  0.4046  0.2770  0.0527
27647W        W45171   7.682   7.828  10.139 -0.1162  0.0005 -0.3585
27648W        W45172  12.888   6.435   5.039 -0.2463 -0.3167 -0.3677
27649W        W45173   3.290  17.350   1.297  0.2772 -0.0265  0.1599
27650W        W45174   3.039  15.083  13.827 -0.1206 -0.0167  0.0820
27651W        W45175   5.177  12.437  13.554  0.0290 -0.2990 -0.1726
27652W        W45176   2.966  12.543   3.416 -0.1211 -0.0810 -0.4011
27653W        W45177   1.862  12.852   1.586 -0.0758 -0.1857  0.0064
27654W        W45178  13.001   6.473  13.376 -0.1644  0.1111 -0.1647
27655W        W45179  13.221  12.668  11.181  0.1783  0.1167  0.0316
27656W        W45180  17.629  14.717   3.451  0.1652 -0.3370 -0.0124
27657W        W45181   3.452   7.279   1.127  0.5181 -0.0435 -0.2364
27658W        W45182  14.462   7.581   3.636 -0.1936 -0.0688  0.4275
27659W        W45183   5.238   8.271  10.975 -0.2263  0.0621  0.3354
27660W        W45184  11.019   3.615   0.315  0.0449  0.2058  0.1790
27661W        W45185   7.606   4.533  12.793 -0.0139  0.4238  0.0387
27662W        W45186   9.092  11.619   1.002  0.2681 -0.0427  0.1261
27663W        W45187   7.994   2.750  13.266 -0.0781  0.1313  0.3375
27664W        W45188  16.838   9.138  10.700  0.2518 -0.1224  0.1364
27665W        W45189  17.625  12.727  15.463 -0.0670 -0.2463 -0.0113
27666W        W45190  10.516  14.529  14.822  0.0433 -0.2016  0.2381
27667W        W45191   9.839  16.450  11.449 -0.1464 -0.0900  0.0033
27668W        W45192   6.747   6.041   2.387  0.1915  0.2304 -0.0658
27669W        W45193  10.616  15.122  12.537  0.3396  0.2271 -0.1607
27670W        W45194  16.858  15.547  13.573  0.2068 -0.1382  0.1333
27671W        W45195   4.204   5.476  12.847  0.1040 -0.1318 -0.0841
27672W        W45196  17.980  12.573  12.645 -0.0928 -0.0135 -0.0489
27673W        W45197  13.747   4.634   2.426 -0.2005 -0.1436 -0.0024
27674W        W45198   5.702   2.646   3.214  0.0322 -0.2652  0.0723
27675W        W45199  12.554  14.070  11.602 -0.1491  0.0665  0.2042
27676W        W45200  13.014   6.330  11.464 -0.0903  0.1119  0.1518
27677W        W45201   3.890   4.600  11.954 -0.0783 -0.2715 -0.1748
27678W        W45202  15.487   2.124  14.824 -0.0399  0.1147 -0.2682
27679W        W45203  16.472  16.793  15.082  0.0323  0.0724  0.0485
27680W        W45204   9.368   4.375   4.308 -0.0529 -0.0858  0.2646
27681W        W45205  10.047  17.998   4.135  0.2848  0.0407 -0.1273
27682W        W45206   0.086  10.901  15.285 -0.0759  0.0123 -0.1205
27683W        W45207  13.609   7.091   3.784  0.0794  0.0586 -0.2279
27684W        W45208   4.747  16.074  12.078  0.1217  0.0099 -0.3865
27685W        W45209   0.241   0.117   2.968  0.2032  0.1249  0.1557
27686W        W45210   2.840  12.383   5.706 -0.1717 -0.1610  0.0454
27687W        W45211  15.120   8.664  12.204 -0.1914 -0.2531 -0.1502
27688W        W45212  12.601   3.857  12.465  0.2512 -0.2040  0.2126
27689W        W45213   0.559  13.427  13.931  0.2836  0.1198 -0.1159
27690W        W45214   4.891   4.347  15.482 -0.2527  0.1176  0.1533
27691W        W45215   2.534  10.654  12.971 -0.0219  0.1890  0.2469
27692W        W45216  11.313  12.176  14.086 -0.1807 -0.1864  0.0275
27693W        W45217   4.017  16.991  11.149  0.3880 -0.2917 -0.1736
27694W        W45218  13.426   0.944  10.820 -0.1483 -0.2794 -0.0509
27695W        W45219  10.726   3.406  15.193  0.0085  0.3008  0.0648
27696W        W45220   1.426  16.493   1.909  0.1479 -0.0052 -0.1388
27697W        W45221  10.466   4.674   2.647  0.2572 -0.1597 -0.1196
27698W        W45222  10.498  15.176   4.342 -0.0013  0.2283  0.1445
27699W        W45223   0.175   8.996  10.423 -0.3121 -0.1939 -0.0996
27700W        W45224   3.515  13.838   4.157 -0.3305  0.0130 -0.0311
27701W        W45225  12.364   2.300   3.016 -0.4328  0.3086 -0.1015
27702W        W45226   7.958   2.553  14.575 -0.1650 -0.1242 -0.2080
27703W        W45227   9.119  10.059  14.184 -0.0424 -0.0460 -0.2681
27704W        W45228   1.589  15.335  13.061 -0.1231  0.3229  0.0988
27705W        W45229   4.508   1.869   0.261  0.1564  0.2392 -0.1458
27706W        W45230  10.893  16.558   2.656 -0.2428 -0.1566  0.1130
27707W        W45231   4.825  10.406  14.155  0.0659  0.1348 -0.1809
27708W        W45232  18.333   2.864   1.891 -0.2178 -0.0572 -0.1407
27709W        W45233   2.616  18.078  15.355  0.2693 -0.0721 -0.0976
27710W        W45234   0.610  13.879  14.236  0.0435 -0.2839  0.1221
27711W        W45235   4.528  13.613  12.777 -0.0775  0.0057  0.1181
27712W        W45236   2.789   0.287   0.246 -0.3392 -0.2055 -0.0082
27713W        W45237  13.414   7.693  14.274 -0.0725 -0.4657  0.3144
27714W        W45238  13.289   3.307  15.441  0.0202  0.2572  0.0920
27715W        W45239   8.457   0.345   1.890  0.1046  0.2413  0.0078
27716W        W45240  18.383   4.375   1.381 -0.2135 -0.1233 -0.2119
27717W        W45241  13.302  15.659  11.700  0.0679 -0.4255 -0.0743
27718W        W45242   0.142   2.904   3.719  0.0402  0.4240  0.0741
27719W        W45243   4.201  17.845   2.656  0.0687  0.1585  0.0293
27720W        W45244  11.063  10.585   4.554  0.0275  0.1083  0.1488
27721W        W45245  13.450   6.495  11.787 -0.0783  0.2526  0.0213
27722W        W45246   5.990  10.390  11.571 -0.1530 -0.1384 -0.1225
27723W        W45247  18.075   7.740  11.018 -0.0314 -0.1352  0.0425
27724W        W45248   4.302   0.855  11.967  0.0357  0.1826 -0.1939
27725W        W45249   6.055  10.985  12.492  0.3438  0.0755  0.4377
27726W        W45250   6.707  17.037   0.228  0.0774  0.3102 -0.0497
27727W        W45251  17.501   5.228   2.945  0.1107 -0.0184  0.0474
27728W        W45252  15.654   9.031  12.925 -0.2122  0.1603 -0.3330
27729W        W45253   6.077   7.996   2.045  0.1036 -0.3537 -0.1292
27730W        W45254  17.585   9.865  15.181  0.0423 -0.0264  0.4214
27731W        W45255  15.364   6.963   2.204  0.0813  0.0418 -0.0081
27732W        W45256   5.207   7.375  12.511 -0.1416  0.2161  0.0725
27733W        W45257  11.635   0.046  11.443 -0.0895  0.1637 -0.3100
27734W        W45258  15.814   2.412  12.841 -0.2321  0.0255 -0.1048
27735W        W45259   1.347   2.409  12.938 -0.0076  0.1196 -0.0848
27736W        W45260   3.524   1.252   4.735 -0.1042  0.1459 -0.0357
27737W        W45261  17.239  17.393   2.502  0.3644 -0.1988 -0.0645
27738W        W45262   1.505   7.766   3.750  0.0401 -0.1743 -0.1770
27739W        W45263   4.067  12.450  12.864 -0.0384  0.0646  0.1064
27740W        W45264   5.112  12.834  10.981  0.0872  0.0745 -0.2510
27741W        W45265   6.116   4.937  12.358 -0.0801 -0.2822 -0.1598
27742W        W45266   4.594  12.322  12.668 -0.2244  0.0089 -0.0154
27743W        W45267   6.317   0.783   1.632  0.2285  0.0434  0.0251
27744W        W45268   5.930   6.299   9.361 -0.0085  0.3655 -0.1042
27745W        W45269   8.862   2.307   3.526 -0.0309 -0.0854  0.2652
27746W        W45270   3.210  14.982  12.112  0.1065 -0.2575  0.3002
27747W        W45271  15.724   8.618  14.315  0.1832  0.0600  0.1188
27748W        W45272   6.342  13.659   3.513 -0.1725  0.2037 -0.3600
27749W        W45273   9.532   4.479   2.984 -0.0687 -0.0731 -0.1117
27750W        W45274   5.654  17.243   4.719  0.2594 -0.1268  0.2554
27751W        W45275  11.393  14.370   4.791 -0.2381  0.2514 -0.0585
27752W        W45276  11.207   5.693  13.456 -0.0242 -0.1441  0.2523
27753W        W45277  13.530   8.212   2.968 -0.0579 -0.2143 -0.0573
27754W        W45278   2.135  13.305   0.272  0.0968  0.3109 -0.1547
27755W        W45279   6.662   6.569   2.568  0.2281 -0.1616 -0.1462
27756W        W45280   6.834  11.414  11.025 -0.1350  0.1614  0.1530
27757W        W45281   5.890  15.756  11.656 -0.0866  0.2606 -0.2388
27758W        W45282   8.938  15.497   3.325  0.2804  0.3223  0.0777
27759W        W45283  12.371   2.689  11.368 -0.1358 -0.4044 -0.2190
27760W        W45284  13.573  17.666   4.167  0.0525 -0.0401 -0.0771
27761W        W45285  10.142   1.717   1.120 -0.0139 -0.0307  0.1588
27762W        W45286   2.833  10.908  15.332 -0.0909 -0.1795 -0.1784
27763W        W45287  15.415  11.151  14.847  0.1351  0.1959  0.0069
27764W        W45288  10.317   5.849  15.663  0.3737  0.2048  0.0511
27765W        W45289   5.271   7.568  15.266 -0.2785  0.1025 -0.0419
27766W        W45290   4.821  18.352   1.440 -0.2124  0.0223 -0.0487
27767W        W45291   4.777   7.623  12.320 -0.4046 -0.2253 -0.1899
27768W        W45292   3.511  11.826  10.858 -0.0708 -0.2160 -0.0581
27769W        W45293  15.714  15.762  13.750 -0.2570 -0.0487 -0.1064
27770W        W45294  18.173   5.140  15.637  0.1459 -0.0778  0.4423
27771W        W45295   9.392  18.281  11.100 -0.2812 -0.1599  0.0795
27772W        W45296  12.594   5.023  15.406 -0.0494 -0.1546 -0.1070
27773W        W45297   8.405  16.326   3.308 -0.3408 -0.2203  0.0721
27774W        W45298  17.942  11.064   1.248 -0.0839  0.0980 -0.0691
27775W        W45299   9.290  17.913   3.112 -0.0014 -0.0004  0.1132
27776W        W45300   8.386  16.044   2.489  0.0137  0.1980  0.1795
27777W        W45301  14.885  12.791  11.231 -0.0272 -0.0833 -0.1803
27778W        W45302   6.893   1.095  14.872  0.0477 -0.3301  0.0562
27779W        W45303  13.994   0.317   0.916 -0.4215 -0.0416 -0.0838
27780W        W45304  12.926  17.182  11.964 -0.0898  0.3344  0.1768
27781W        W45305   3.540   9.619   3.925 -0.1667  0.1086 -0.1344
27782W        W45306  11.176   3.179  10.973 -0.0018 -0.0838  0.2325
27783W        W45307  10.170  15.662  13.908  0.0874 -0.1200  0.3746
27784W        W45308   3.810   5.197  13.237 -0.1100  0.0134  0.4436
27785W        W45309   7.998  18.361  12.661 -0.0979  0.0242  0.0288
27786W        W45310   2.784   2.671   1.641 -0.1038 -0.0521 -0.3946
27787W        W45311   7.043   3.492  14.952 -0.2420 -0.0483 -0.0987
27788W        W45312   4.004  11.954  13.705  0.0323 -0.1172 -0.0820
27789W        W45313   9.465  18.006   1.960  0.0975 -0.1847  0.0382
27790W        W45314   7.377  17.827  11.216  0.1264  0.2247  0.4102
27791W        W45315   1.188  15.999  12.868  0.0332  0.2742 -0.0600
27792W        W45316  11.277   5.278   1.072 -0.0812 -0.3249 -0.1670
27793W        W45317   1.997   5.943   4.527  0.0667 -0.1365  0.3279
27794W        W45318   3.449   8.182  14.434  0.0906  0.1810  0.2013
27795W        W45319   6.542  10.216  12.401  0.2074  0.2573  0.0204
27796W        W45320   8.458  12.405   0.461  0.0714  0.3003  0.1091
27797W        W45321  11.468   0.960   1.038  0.2571 -0.2037  0.1196
27798W        W45322  16.562  15.389  13.954 -0.2201 -0.2969  0.0642
27799W        W45323   3.348  10.509  11.248  0.1669 -0.0122  0.0744
27800W        W45324  17.924   1.125   1.794 -0.2012 -0.3164  0.0856
27801W        W45325   4.793  15.877  14.638 -0.1364  0.1361  0.0399
27802W        W45326  14.122   5.349  10.280 -0.0536 -0.1104  0.1721
27803W        W45327   1.525  16.532  14.082 -0.0609 -0.1932 -0.0334
27804W        W45328   2.629  17.024  12.583 -0.2132 -0.0521 -0.1314
27805W        W45329  17.700   0.607  13.951  0.0497 -0.0744  0.1104
27806W        W45330  13.079  17.991   5.474 -0.0821 -0.1333  0.2544
27807W        W45331   3.363   0.164   0.434  0.5340 -0.0132  0.5012
27808W        W45332   0.515   0.516   2.449  0.1789 -0.0023  0.2597
27809W        W45333  16.798  11.946  11.569 -0.3193  0.2125  0.4296
27810W        W45334  12.813   4.603   2.052  0.0732 -0.0534 -0.1362
27811W        W45335   2.776   3.974  14.923 -0.0580  0.2141 -0.0064
27812W        W45336  18.005   3.094   2.628 -0.1549 -0.3625  0.1727
27813W        W45337  17.504   1.563  13.139 -0.0472 -0.0161 -0.1540
27814W        W45338   2.003  13.326   3.657  0.0848 -0.1827 -0.0265
27815W        W45339  13.087  14.456   3.024 -0.1722  0.3081 -0.0868
27816W        W45340  17.417  17.612   5.076 -0.0830 -0.3823 -0.0881
27817W        W45341  13.987  17.836   4.978 -0.1252 -0.1613  0.1884
27818W        W45342   6.765   9.131  14.971  0.2304 -0.3562 -0.0322
27819W        W45343  16.676  15.465  12.634 -0.2665 -0.1654  0.3772
27820W        W45344  12.069   8.044  14.216 -0.0030 -0.1190  0.5159
27821W        W45345   0.124   1.815   2.383 -0.2190 -0.1114 -0.3008
27822W        W45346   6.551   3.015   1.605 -0.0537  0.1494  0.1129
27823W        W45347  12.587  17.995  12.153  0.0048  0.0782 -0.0066
27824W        W45348  18.387  12.357  12.853 -0.0070 -0.3571 -0.0390
27825W        W45349   0.414   2.994   5.531 -0.0278  0.1707  0.1299
27826W        W45350   9.619  16.768  11.787 -0.2647  0.2237 -0.1693
27827W        W45351   1.555   5.690  13.617 -0.1815  0.1304  0.0842
27828W        W45352  16.898   2.555  12.538  0.1417  0.3470  0.2261
27829W        W45353   2.566  12.414  15.617 -0.0040  0.0980  0.2684
27830W        W45354  12.984   1.903  13.251 -0.2160  0.0320 -0.0725
27831W        W45355  15.243  12.467  15.312 -0.1416  0.0356 -0.1972
27832W        W45356  11.929   4.580   2.834 -0.0168  0.0750 -0.0188
27833W        W45357  12.675  14.907   1.716 -0.2750 -0.1884  0.1188
27834W        W45358   0.447   0.350   1.641 -0.0489 -0.0121 -0.2360
27835W        W45359   7.152   2.896   0.519 -0.0734 -0.0312 -0.1653
27836W        W45360  18.389  12.445   1.662  0.0299  0.0152 -0.0632
27837W        W45361  11.029  15.533  14.850  0.0341 -0.0073 -0.3395
27838W        W45362   4.041  13.805   4.174 -0.0733  0.3004 -0.4991
27839W        W45363   4.110  12.532   1.936 -0.1015  0.1220 -0.1615
27840W        W45364   4.655   9.701   0.395  0.1038 -0.1097  0.1431
27841W        W45365  11.758  17.646   4.979 -0.0405 -0.0520 -0.0314
27842W        W45366  13.858   4.528  13.018 -0.1276  0.4380  0.2902
27843W        W45367  13.101   3.360   3.580 -0.4799 -0.0970 -0.1633
27844W        W45368   2.988  17.367   4.649 -0.3522 -0.0123  0.1500
27845W        W45369   2.545  15.089   4.098 -0.0958  0.3710  0.1069
27846W        W45370   6.469  14.351  15.175 -0.0495 -0.0699  0.0434
27847W        W45371  13.543  14.137  11.463  0.1480  0.0284 -0.1070
27848W        W45372   1.171  17.911   3.590  0.0425 -0.1733 -0.1121
27849W        W45373  12.373  12.963  14.218 -0.0182  0.3394 -0.0933
27850W        W45374  14.665  11.698  11.112 -0.2585  0.3024  0.2276
27851W        W45375  17.024  14.116  12.283  0.0365  0.0268  0.0008
27852W        W45376   8.496   1.725   4.453 -0.4420 -0.1868  0.0968
27853W        W45377   5.962   7.586  10.537 -0.0525  0.2162 -0.0535
27854W        W45378   1.165   0.143  10.535  0.1963  0.0142  0.1543
27855W        W45379  15.193   7.057  13.526  0.2061 -0.0081 -0.1728
27856W        W45380   6.334   6.544   0.705  0.0105  0.1434  0.1832
27857W        W45381   1.459   3.657  10.783 -0.1392  0.0916 -0.2154
27858W        W45382  13.616  12.205   4.732  0.0436 -0.4327 -0.1584
27859W        W45383   9.534   9.330  12.551 -0.2182  0.0603 -0.0396
27860W        W45384  13.748   4.326   1.943  0.2034  0.1068 -0.2496
27861W        W45385   7.351  16.540  15.448  0.1178  0.0744  0.0774
27862W        W45386   7.525   1.119  10.960  0.1223 -0.3471  0.0034
27863W        W45387   3.327   9.500   1.041  0.0074 -0.1264  0.2415
27864W        W45388   6.566   8.746   2.626  0.1321  0.1347  0.0538
27865W        W45389   6.421  10.594  14.763  0.0178 -0.0788 -0.4511
27866W        W45390  10.132  16.488  13.824  0.0245 -0.2504 -0.0448
27867W        W45391   6.996  18.460   1.213  0.1206 -0.0348 -0.0894
27868W        W45392  12.380   6.729   2.273 -0.0460 -0.2461  0.1392
27869W        W45393   2.593  11.251   2.437 -0.0409 -0.2015  0.2403
27870W        W45394   1.089  13.520  13.265 -0.0855  0.0341 -0.2211
27871W        W45395   4.229   0.733  13.983  0.0415 -0.2852 -0.0341
27872W        W45396   1.924   3.625  14.743  0.2279 -0.4378 -0.0568
27873W        W45397   0.574  10.924   0.776 -0.0683  0.2558  0.3959
27874W        W45398   8.990  12.237   2.710  0.1735  0.2875 -0.0898
27875W        W45399  10.613  12.035   2.614  0.0998  0.0094  0.1509
27876W        W45400  14.385   8.058   4.650  0.1458  0.1906 -0.2659
27877W        W45401  15.811   1.717  12.533 -0.2468 -0.0487 -0.1484
27878W        W45402  16.915   7.250  10.950 -0.1590  0.2051 -0.1364
27879W        W45403  17.160  18.191  15.334 -0.1231  0.4401 -0.1157
27880W        W45404   7.778   0.524  11.818  0.0071  0.1774 -0.1385
27881W        W45405   0.817   4.255   9.981  0.0328  0.0145  0.0191
27882W        W45406  17.987   6.027  11.934  0.2010 -0.3466  0.1060
27883W        W45407   4.296  12.022   5.634 -0.1870  0.3687  0.0485
27884W        W45408  11.084   7.258   2.869  0.2490  0.2331 -0.1694
27885W        W45409   1.054   4.272   1.036  0.0389  0.3265  0.0449
27886W        W45410   2.808  15.548  13.538  0.1036 -0.3030 -0.1193
27887W        W45411  18.167  10.653  15.181 -0.0279  0.1990  0.1767
27888W        W45412   0.592  13.536  10.134 -0.0587 -0.1876  0.1625
27889W        W45413  13.367   1.070   5.516  0.0607 -0.0213 -0.0072
27890W        W45414   9.139  17.674   4.273 -0.0907 -0.0275 -0.0389
27891W        W45415  12.153   3.862   2.240 -0.0364 -0.0035 -0.2392
27892W        W45416  10.203  14.440   0.439 -0.0658 -0.3177 -0.2894
27893W        W45417   3.806   9.763   2.915  0.0550  0.1984 -0.1495
27894W        W45418   7.927   3.758   2.224 -0.0161 -0.2402  0.0625
27895W        W45419   5.566   6.636   1.829 -0.0555 -0.1533  0.1191
27896W        W45420   9.206   2.182  13.948 -0.1811 -0.0693  0.0760
27897W        W45421   2.241   1.793  10.138  0.1613 -0.3267 -0.0256
27898W        W45422   0.208  12.938   3.571 -0.0565 -0.1161 -0.0748
27899W        W45423  13.214   0.980   2.074  0.1571 -0.2160  0.2198
27900W        W45424  15.847   9.243   4.486 -0.0236  0.0229  0.3528
27901W        W45425   3.506  15.723  14.578 -0.1214 -0.1993  0.0412
27902W        W45426   1.875   1.500  13.072 -0.0269 -0.0044  0.1614
27903W        W45427   8.834   6.908   0.002  0.2175 -0.0555 -0.0458
27904W        W45428  16.854  14.183  14.820  0.3630  0.0656  0.3714
27905W        W45429  17.669  15.460  14.756  0.0572  0.0973 -0.0110
27906W        W45430  14.950   2.143   0.222 -0.0756 -0.2118  0.0055
27907W        W45431  12.720  15.107  11.103 -0.2478 -0.0798 -0.2890
27908W        W45432   6.095  18.365  13.159  0.2203  0.2925  0.2866
27909W        W45433   0.444   6.989  11.916 -0.2033 -0.2851  0.2830
27910W        W45434   2.642  10.343   2.762 -0.0027  0.1408  0.0141
27911W        W45435  12.705   8.492  13.947  0.0539  0.2789  0.0231
27912W        W45436  16.405   5.336  13.475 -0.2297 -0.3698  0.0443
27913W        W45437   3.113   9.308  10.066  0.2449  0.2397  0.0957
27914W        W45438  11.713  16.578  11.194 -0.2521  0.0624  0.0479
27915W        W45439   3.086   5.777   1.560 -0.1877  0.0313  0.3667
27916W        W45440  14.632  17.491  14.303  0.3672  0.0912  0.0104
27917W        W45441   4.627   7.526  11.703  0.0286  0.0255  0.1016
27918W        W45442  11.248  18.320   1.762  0.2142  0.1553 -0.0717
27919W        W45443   1.051  15.903  11.183  0.2169 -0.2306 -0.1567
27920W        W45444   1.441  14.769  14.939  0.2257 -0.1106  0.0369
27921W        W45445   3.914   9.339  14.887 -0.4051 -0.3812 -0.0200
27922W        W45446  16.462   6.268  15.235 -0.0419  0.0645 -0.0695
27923W        W45447  17.946  15.079   0.077 -0.1215  0.2386 -0.1751
27924W        W45448   5.858  14.609   0.395 -0.1504  0.0365 -0.0654
27925W        W45449  11.052  16.995   0.237 -0.1379 -0.2407  0.1494
27926W        W45450   7.243  12.093   2.505  0.1461  0.1770 -0.1256
27927W        W45451  12.123   3.763  12.430  0.0583 -0.1411  0.3192
27928W        W45452   5.503  15.356   5.264  0.2748  0.2880 -0.2211
27929W        W45453   7.635   6.522  13.348  0.4489  0.3467  0.3940
27930W        W45454   3.901   4.229  11.571  0.1215 -0.2341 -0.1316
27931W        W45455   6.148   0.824   4.412 -0.0279 -0.1957 -0.0286
27932W        W45456   1.496   7.891  12.015 -0.0273  0.1189 -0.0578
27933W        W45457   8.282   8.484   0.549 -0.0132  0.0222 -0.0446
27934W        W45458   5.025   5.177   1.814 -0.1798  0.1340 -0.2664
27935W        W45459   5.029   9.193   0.503  0.0071 -0.1355 -0.1693
27936W        W45460   7.675   0.490   0.560  0.0619  0.0260 -0.4126
27937W        W45461  13.407  14.338   6.027  0.0141  0.0427  0.2172
27938W        W45462  13.392   3.882   1.872  0.1300  0.0971 -0.0779
27939W        W45463   8.038   1.384   0.626 -0.0212  0.0563  0.0537
27940W        W45464  18.211   7.949   4.010 -0.1049  0.2341 -0.0270
27941W        W45465   2.275   2.684  11.794 -0.2419 -0.0787  0.1802
27942W        W45466  11.393   8.907   2.705  0.2222 -0.3773  0.0494
27943W        W45467  14.302  11.028  11.893 -0.2405  0.1145 -0.2925
27944W        W45468  13.395  16.252   0.170  0.2005 -0.0714 -0.0779
27945W        W45469  18.235   6.998   2.192  0.0956 -0.1882 -0.0675
27946W        W45470  11.604  12.533  13.948  0.0553 -0.4429 -0.0642
27947W        W45471   3.184   9.691   3.559 -0.3730 -0.0272 -0.1664
27948W        W45472  17.400  15.851   1.657  0.3072  0.1512 -0.3353
27949W        W45473   9.023   4.434  14.328  0.3972 -0.3971 -0.0014
27950W        W45474   7.034  14.421  14.373 -0.1208 -0.1678 -0.0510
27951W        W45475   8.670   1.944   3.831 -0.2778 -0.2919 -0.2927
27952W        W45476  16.618   9.849   0.036  0.5373  0.0860  0.1972
27953W        W45477  14.817  14.517  14.640 -0.3265 -0.2516 -0.2851
27954W        W45478  11.687  12.358  10.151  0.0529  0.0514 -0.0591
27955W        W45479  11.267  10.179   3.502 -0.1406 -0.2048  0.1718
27956W        W45480  10.526  14.138  15.154 -0.0308  0.0924  0.0246
27957W        W45481   1.122  17.717  14.245  0.2520 -0.4365 -0.0599
27958W        W45482  18.433   0.810   0.297 -0.1157  0.2747  0.0192
27959W        W45483  16.616  13.554   3.216 -0.3735  0.3407  0.1603
27960W        W45484   7.611  14.633   2.691 -0.2622 -0.5868  0.1356
27961W        W45485   2.140   7.871  15.031 -0.0366 -0.1545 -0.0891
27962W        W45486   0.813   9.782  15.697 -0.0584 -0.2177 -0.3336
27963W        W45487   8.331   1.071   3.622  0.1369  0.1364 -0.1266
27964W        W45488  10.386  15.380  14.304  0.0639 -0.1980 -0.1739
27965W        W45489  17.962  12.084  13.753 -0.0872  0.0536  0.0841
27966W        W45490  12.809  12.844  11.968 -0.3561  0.1463  0.0490
27967W        W45491   9.431  11.515  12.151  0.1549 -0.2262  0.1212
27968W        W45492   0.886   7.277   4.731 -0.0123 -0.0654  0.1186
27969W        W45493  11.757  16.955  14.986  0.1619  0.0017 -0.0741
27970W        W45494  12.584   0.936  11.235 -0.0756  0.1727 -0.1601
27971W        W45495  11.987  10.656   4.983 -0.1833  0.2364 -0.1110
27972W        W45496   7.491  18.423  15.135 -0.0628 -0.1297  0.0786
27973W        W45497  17.112   0.973   1.217  0.1299  0.1140 -0.0815
27974W        W45498  12.897   3.816  11.605  0.1039  0.2054  0.1586
27975W        W45499  13.110   2.913  15.617  0.0793  0.1915 -0.3035
27976W        W45500   2.437   1.438  14.235 -0.0902  0.3162 -0.1950
27977W        W45501  12.853   6.342  14.660 -0.1346  0.1099  0.0667
27978W        W45502   9.537   6.124   2.419  0.3190 -0.0072  0.1587
27979W        W45503  14.954  17.709   1.167 -0.0454 -0.2039  0.0983
27980W        W45504  18.363  17.367   3.832  0.2852 -0.2442  0.0394
27981W        W45505   6.923  15.897  13.909 -0.0774  0.0767  0.2041
27982W        W45506   5.152  11.224  14.912 -0.0059 -0.2287 -0.0705
27983W        W45507  13.140  12.298   1.348 -0.1539  0.1454  0.1910
27984W        W45508   8.518  13.441  11.820  0.2871  0.1463  0.2918
27985W        W45509  16.705   5.104  12.119  0.1982 -0.2035 -0.0328
27986W        W45510   3.753   3.389   2.352  0.0391 -0.3781 -0.0545
27987W        W45511   8.314   5.414   2.862 -0.2107  0.0396 -0.0016
27988W        W45512  16.954  13.682  14.851 -0.2861 -0.0994 -0.0106
27989W        W45513  15.988  10.825   1.912  0.0695 -0.2814  0.1258
27990W        W45514  10.626   9.725   3.102  0.1350 -0.2388 -0.0844
27991W        W45515   9.175  13.204  14.574  0.0099  0.1463 -0.2843
27992W        W45516   5.755   1.540  11.725 -0.0317  0.1422  0.0383
27993W        W45517  17.762   4.575  13.797 -0.0685 -0.0906 -0.1075
27994W        W45518  13.129  16.512  14.618  0.0624  0.3313 -0.3640
27995W        W45519   0.931   5.390  14.447 -0.0068  0.0540 -0.1031
27996W        W45520  15.638   8.193  11.264 -0.2041 -0.0739  0.2166
27997W        W45521   3.602  16.927  14.083  0.1059 -0.3124  0.2416
27998W        W45522  11.402   3.416   1.723 -0.1773 -0.0579 -0.0019
27999W        W45523  12.557  10.436  14.748 -0.0273 -0.1874 -0.0766
28000W        W45524  16.887  17.460  14.127 -0.0273 -0.3219 -0.0941
28001W        W45525  14.171  10.090   2.990  0.2518 -0.2157  0.1528
28002W        W45526  16.944  14.885   1.959 -0.0609  0.1910 -0.0687
28003W        W45527   0.037   5.946  15.285  0.0428 -0.0234  0.0566
28004W        W45528   2.890  11.505  14.565 -0.0380 -0.3257  0.1960
28005W        W45529   1.465   1.771   4.376 -0.0018  0.1003  0.0703
28006W        W45530   4.152   0.256  13.278 -0.1294 -0.0115 -0.0997
28007W        W45531   5.246   7.970   4.122  0.0547  0.1779  0.1225
28008W        W45532   7.530   6.467  12.423 -0.2439 -0.2787 -0.0110
28009W        W45533   8.179   9.009   2.783  0.0677  0.1124 -0.0178
28010W        W45534  15.759   8.470   1.043 -0.0390  0.0369 -0.1450
28011W        W45535  12.697  16.240   3.914 -0.1213 -0.1453 -0.2119
28012W        W45536  17.484   4.397   3.450 -0.0761  0.1077 -0.5691
28013W        W45537  11.757   5.033  13.574 -0.1185 -0.0267 -0.1143
28014W        W45538  11.083   0.857   3.512  0.1147 -0.0434 -0.3760
28015W        W45539   5.132   4.105   0.192  0.1464 -0.1109  0.0259
28016W        W45540   8.221   1.805   2.482  0.0431  0.1440 -0.2398
28017W        W45541   6.077   6.400   0.261  0.3204 -0.3408  0.0407
28018W        W45542   2.279   4.985   0.862 -0.0624  0.0121 -0.1905
28019W        W45543   2.303  17.233  14.991  0.0178 -0.0214  0.2662
28020W        W45544   3.146  15.499   3.099  0.2039  0.0211 -0.3320
28021W        W45545   6.921  14.947  11.182  0.0837  0.2130  0.0680
28022W        W45546   1.690   2.270   4.395 -0.4311 -0.1660 -0.3236
28023W        W45547   3.856   7.425   3.187  0.0519 -0.0587 -0.0468
28024W        W45548  14.988  12.482  13.665  0.2917  0.2282  0.3959
28025W        W45549  14.375  15.231  14.415  0.0043 -0.1163  0.1758
28026W        W45550   1.044  14.508   3.943  0.2865 -0.2588  0.4005
28027W        W45551   7.488  10.101   2.468 -0.1548  0.0954  0.2151
28028W        W45552   5.580  17.401  13.607  0.0313 -0.0864 -0.1525
28029W        W45553  18.078   2.697  14.089 -0.1835 -0.0771 -0.0573
28030W        W45554   8.468   1.065   0.958  0.1999  0.0795  0.0852
28031W        W45555   8.632  16.050  12.164 -0.3055 -0.0498 -0.0096
28032W        W45556   6.222  16.764   0.429  0.0560  0.0199 -0.0092
28033W        W45557   2.588   5.740   1.374  0.0850 -0.0681 -0.3080
28034W        W45558  15.284  15.047  12.281  0.0049 -0.1154 -0.0194
28035W        W45559  10.238   2.999  14.133  0.2121  0.1581 -0.0188
28036W        W45560  12.088  15.203   1.511  0.0403  0.1961  0.0918
28037W        W45561  15.793  15.461   2.484 -0.1389 -0.2017 -0.2016
28038W        W45562  17.836  15.886  12.902  0.0321 -0.4400 -0.0236
28039W        W45563  13.057  13.142  11.653  0.3701  0.1881 -0.0955
28040W        W45564   8.779  14.919   4.800  0.0310  0.0567  0.0330
28041W        W45565   4.198  16.244  12.961 -0.0013  0.3032  0.4473
28042W        W45566   3.948   2.317  12.015 -0.1371  0.0578  0.0329
28043W        W45567   0.855   2.156   0.852  0.2562 -0.0145  0.1769
28044W        W45568   0.815   0.622  15.524 -0.0509 -0.2234  0.0803
28045W        W45569  15.414  10.673   4.628  0.1430 -0.0266  0.1885
28046W        W45570  15.168  10.456  12.800 -0.0672  0.2393 -0.1554
28047W        W45571   9.886  11.055   2.294 -0.0725 -0.0448 -0.0107
28048W        W45572  14.269  16.456   4.269  0.1154  0.1008 -0.1376
28049W        W45573   7.332  14.261  14.035  0.0979  0.1626  0.0332
28050W        W45574   2.912  17.636  14.496  0.0363  0.2702  0.3291
28051W        W45575   0.645  11.014   1.877  0.3493 -0.4732  0.1544
28052W        W45576   8.816   8.743  12.790 -0.0056 -0.0334  0.1036
28053W        W45577  14.652  16.145   1.896 -0.4118 -0.2034  0.0498
28054W        W45578  11.157  11.824  11.399  0.1902 -0.0496  0.0845
28055W        W45579   1.876  15.546   0.856 -0.2169  0.1589 -0.0578
28056W        W45580   0.878   0.411  11.844 -0.0922 -0.0752  0.0249
28057W        W45581  15.683   6.774   4.076  0.1283  0.0064  0.2212
28058W        W45582   3.832   6.386   1.298  0.1562  0.2234 -0.2118
28059W        W45583   5.273   5.797  13.059  0.1600  0.3731 -0.1030
28060W        W45584   9.206   3.109   4.435 -0.0476  0.3022  0.3440
28061W        W45585   2.024  13.617   3.094  0.0285 -0.1625 -0.3582
28062W        W45586  12.430  17.544  12.640  0.5167  0.1798  0.1979
28063W        W45587   7.335  14.182  11.702 -0.1524  0.0748 -0.0771
28064W        W45588  10.874  16.330   5.010  0.3269 -0.5646  0.2687
28065W        W45589  10.296  11.738   2.369  0.0933  0.2514 -0.3318
28066W        W45590   8.863   5.084   3.275 -0.0499  0.4145 -0.0813
28067W        W45591  17.337   7.010  14.905  0.1535 -0.0113 -0.1501
28068W        W45592   1.894  13.249  14.844 -0.2555 -0.2089 -0.0722
28069W        W45593   8.603   7.234   3.477  0.0296  0.3600  0.2610
28070W        W45594  17.974   9.892  14.142  0.2237  0.2041  0.0543
28071W        W45595   3.580   0.623   2.118 -0.0507  0.0638 -0.1175
28072W        W45596   9.322   4.882   2.555 -0.1302  0.0628  0.2522
28073W        W45597   3.563   9.058   4.807  0.2057  0.3071 -0.1868
28074W        W45598   4.509  12.631   0.206 -0.2691 -0.3766 -0.2176
28075W        W45599   7.529   9.327   0.763 -0.3879  0.0687  0.1102
28076W        W45600  16.428  10.717   3.580  0.0175  0.2908 -0.2692
28077W        W45601   6.735   8.013  15.277 -0.1484  0.0659 -0.0441
28078W        W45602   5.667   5.519   1.382 -0.1173 -0.0666  0.0700
28079W        W45603  17.024   5.488   0.155  0.2113 -0.2205 -0.0400
28080W        W45604  17.872  11.320  14.474 -0.3309 -0.3009  0.2265
28081W        W45605   8.785  15.148  11.852  0.0001 -0.2232 -0.0608
28082W        W45606  15.342   1.328  13.213  0.1962 -0.1520  0.1538
28083W        W45607   6.263   1.128  10.958  0.3006 -0.1939 -0.2687
28084W        W45608   4.493  10.821   2.523 -0.0149  0.1525 -0.3019
28085W        W45609  16.073  15.244   0.599  0.2813  0.1283 -0.3130
28086W        W45610  11.383   2.394   5.536 -0.1205  0.0915 -0.0214
28087W        W45611  16.319   5.061  13.859 -0.1998 -0.1487 -0.0149
28088W        W45612  17.479   3.350  12.293 -0.1540  0.1262 -0.1737
28089W        W45613   0.797   3.895  11.258  0.0720 -0.2685  0.0266
28090W        W45614  10.999   1.691  15.564 -0.0563 -0.1567 -0.0524
28091W        W45615   0.574  12.985  12.125  0.3068  0.0037  0.0362
28092W        W45616   5.402  11.269   2.733 -0.0449  0.0558  0.3148
28093W        W45617  18.356  10.361  15.567  0.0285  0.2165  0.1137
28094W        W45618   4.489   3.807   2.699 -0.4380 -0.1603  0.3089
28095W        W45619   4.761   6.362  10.860 -0.3375  0.1781 -0.0226
28096W        W45620   5.755   9.840  12.232  0.0608 -0.1596 -0.2005
28097W        W45621   8.862  16.141  12.984  0.3870 -0.2203  0.1553
28098W        W45622  13.906   4.587   0.164  0.0550  0.0378  0.0087
28099W        W45623   1.014  15.339   2.436 -0.0714 -0.5866 -0.1744
28100W        W45624  15.424  16.941  15.430 -0.2299  0.1467  0.0213
28101W        W45625   1.422  13.985   5.006  0.0312  0.1051 -0.0804
28102W        W45626   9.675   4.711  14.555  0.1301  0.0767 -0.0650
28103W        W45627   7.328   5.179   1.734  0.0278  0.3241  0.0182
28104W        W45628  13.026   3.363  12.651  0.3209  0.0035 -0.0500
28105W        W45629  13.492   9.857   0.845  0.0388 -0.3074 -0.3780
28106W        W45630   8.896  17.475  10.936  0.3243 -0.2573 -0.3086
28107W        W45631   6.869   1.236   4.075  0.0410  0.0920  0.1536
28108W        W45632  10.589   8.921   4.284  0.1384  0.0277  0.2332
28109W        W45633  15.255   6.385  10.505  0.1404  0.1200 -0.1767
28110W        W45634  17.619  12.986   3.344 -0.0706 -0.1741 -0.0204
28111W        W45635  16.138  12.687  12.097 -0.0079  0.0803 -0.2234
28112W        W45636   2.173   9.710  12.295  0.0507  0.1682 -0.0784
28113W        W45637   8.321   7.989   1.321 -0.0362  0.1956 -0.0114
28114W        W45638  17.035   2.649   1.595 -0.3144 -0.2031  0.3096
28115W        W45639   7.295   1.837  11.845 -0.1473  0.0500  0.0849
28116W        W45640  15.776  10.707  12.336 -0.2947  0.1937 -0.2951
28117W        W45641   9.166   9.600  12.737  0.0484  0.0515 -0.2709
28118W        W45642   9.838   2.704   0.724  0.0801  0.3456 -0.0447
28119W        W45643  14.283  14.521  13.842 -0.1158  0.1517 -0.0930
28120W        W45644  15.790  15.206   0.195 -0.0889 -0.0495 -0.1235
28121W        W45645  13.852  17.322   2.702  0.5605 -0.0904  0.0281
28122W        W45646   2.849  11.845   2.760 -0.0547  0.4641  0.0422
28123W        W45647  15.611   1.412   3.927  0.1869  0.1946  0.0463
28124W        W45648  14.389  14.801  12.216  0.3607  0.0198  0.1318
28125W        W45649   9.821   2.587   3.867 -0.1393  0.2004  0.1072
28126W        W45650  13.357  12.012   0.989  0.2601 -0.1799 -0.1518
28127W        W45651  14.340   2.946   1.078  0.1656 -0.2425  0.0710
28128W        W45652   3.079  15.245   0.067 -0.1523 -0.1558 -0.1188
28129W        W45653   8.925   0.762  12.100 -0.2707 -0.0375  0.1836
28130W        W45654   5.186   0.333   1.355  0.0270  0.1508  0.1440
28131W        W45655   9.933   4.206   0.818 -0.1257 -0.0925 -0.0834
28132W        W45656  11.136   2.930  11.485 -0.1485  0.1460  0.2430
28133W        W45657  15.076   6.085   4.559 -0.2559 -0.0731 -0.1740
28134W        W45658  14.668  12.791  12.491 -0.0363  0.0573  0.1873
28135W        W45659  11.876   6.570  11.789 -0.1641  0.0140 -0.0442
28136W        W45660  11.766  13.799  13.576  0.1515 -0.3792  0.2552
28137W        W45661   3.490   2.113  10.677  0.2267 -0.1137  0.0199
28138W        W45662  17.329  17.243  14.061  0.1290  0.0722  0.0655
28139W        W45663   1.121  10.636   2.727  0.0325 -0.0117 -0.0102
28140W        W45664   0.998  12.849   0.689 -0.0655  0.0070 -0.1959
28141W        W45665  16.690  18.452   3.666  0.0350 -0.1497 -0.0322
28142W        W45666   6.806   5.364   1.669  0.2143 -0.4015 -0.0738
28143W        W45667  12.388   5.354  13.246  0.2453 -0.0820  0.3490
28144W        W45668   5.647   1.967   4.431 -0.1869 -0.2639  0.1064
28145W        W45669   4.330   2.642  12.308  0.1487 -0.0666  0.1100
28146W        W45670  15.522   9.568  11.407  0.2803  0.0198 -0.1145
28147W        W45671   0.098  13.380   0.167  0.3484 -0.1176  0.1332
28148W        W45672   2.650   8.474   1.686 -0.1417  0.0933 -0.0438
28149W        W45673  16.145   8.299  11.508  0.1990 -0.3057 -0.0182
28150W        W45674   2.174  16.519   1.082  0.1647  0.1644  0.0503
28151W        W45675   1.666   9.245   1.834 -0.2052 -0.2164  0.1224
28152W        W45676  14.894   2.108  12.671 -0.2477  0.0498 -0.2639
28153W        W45677  12.969   0.899  12.381 -0.0687  0.3100 -0.2280
28154W        W45678  16.918   8.445   4.089  0.0177  0.2513  0.1667
28155W        W45679   8.692   3.383  13.062  0.1310  0.1144 -0.1061
28156W        W45680   2.796   1.627   4.926  0.2992 -0.1753 -0.2407
28157W        W45681   5.977   2.819  12.518  0.2846  0.1436 -0.1335
28158W        W45682   6.085   2.775  13.504  0.0344 -0.0470 -0.1200
28159W        W45683   2.409   8.462   0.599  0.0885  0.1109  0.1968
28160W        W45684  12.957   2.394   2.787 -0.1181 -0.1636  0.0205
28161W        W45685   5.622   3.424  11.470 -0.0913 -0.2130 -0.0281
28162W        W45686   6.264  14.596  13.842  0.1497 -0.0524 -0.1556
28163W        W45687   7.136   9.370   1.368  0.2371  0.3143  0.0236
28164W        W45688   2.758  15.905   4.355  0.1334 -0.0413  0.1981
28165W        W45689  16.412  11.857  13.684  0.3239  0.0079 -0.1936
28166W        W45690   7.638  16.833  14.610 -0.1445 -0.0835  0.1825
28167W        W45691  12.945   5.942  15.585 -0.1445  0.1427  0.2974
28168W        W45692   0.131   6.696  11.406 -0.4357 -0.1938  0.1730
28169W        W45693  11.484  13.727   0.162 -0.2968 -0.1861  0.2665
28170W        W45694  16.728  13.487   1.746 -0.0028  0.1155  0.0382
28171W        W45695   2.335   7.849  14.270 -0.1922  0.0318  0.0633
28172W        W45696  15.960   5.681  10.575  0.0771 -0.0590  0.1864
28173W        W45697   1.102  16.973   1.220 -0.1262  0.1068  0.1743
28174W        W45698   6.655   7.106   4.918 -0.0768  0.0975 -0.0415
28175W        W45699  18.276   2.375  12.832 -0.2119  0.3659 -0.0196
28176W        W45700  15.941   2.336  15.452  0.2413  0.0075 -0.0531
28177W        W45701   0.782  13.780   1.490 -0.0566  0.1224  0.1239
28178W        W45702   1.953  13.795  13.932  0.4727  0.1065 -0.0659
28179W        W45703   9.091  14.458  15.619 -0.0691  0.2109  0.1072
28180W        W45704  12.342  13.183   3.748 -0.1701  0.0766  0.0425
28181W        W45705  15.669   2.519  14.023 -0.1444 -0.2190  0.5366
28182W        W45706  16.045  14.156   2.286  0.0168  0.0095 -0.2830
28183W        W45707   8.192  13.833  11.958  0.0922 -0.0333 -0.1069
28184W        W45708  16.680   4.844   1.606 -0.1855  0.1432 -0.0534
28185W        W45709  14.313  17.191   2.805 -0.1082  0.1788  0.1970
28186W        W45710  13.879   8.768   3.042 -0.0474  0.0959 -0.3415
28187W        W45711  12.709   2.091   2.431 -0.1859 -0.0343  0.3135
28188W        W45712   6.396   1.315   3.595 -0.0749 -0.2140 -0.0706
28189W        W45713  15.864   5.148   9.497  0.0591  0.1137 -0.0980
28190W        W45714  18.394  11.886   2.309 -0.1128  0.2245 -0.1843
28191W        W45715  18.367   4.857   0.423 -0.3510 -0.3961 -0.0906
28192W        W45716   5.398  17.081  15.005 -0.1980  0.1311 -0.0717
28193W        W45717  14.308   2.984   3.105  0.1767  0.1081 -0.1314
28194W        W45718  14.954  13.919   3.424  0.2023 -0.0243 -0.0278
28195W        W45719  13.914   5.850  11.459 -0.3359 -0.0015 -0.0132
28196W        W45720  18.187   6.663  14.350  0.0009  0.1729  0.2005
28197W        W45721  16.294  11.472   4.593  0.2039  0.3928 -0.0725
28198W        W45722  12.941  13.079   4.340 -0.1289  0.1474  0.1012
28199W        W45723  11.522   7.463  13.665  0.0473  0.0903 -0.2431
28200W        W45724   6.240   7.584  13.839  0.3500  0.0602  0.0508
28201W        W45725  13.893  10.149  14.997 -0.2874  0.2539  0.1021
28202W        W45726  14.857   8.291  10.494  0.0192  0.0590  0.0614
28203W        W45727   0.719   3.465   3.153 -0.0272 -0.2181  0.2438
28204W        W45728   6.072   2.378   0.746  0.0799 -0.0639  0.1526
28205W        W45729  11.656   1.767   0.628  0.3135 -0.0765  0.2024
28206W        W45730  13.675  16.199  15.418  0.0565  0.0552  0.5810
28207W        W45731  10.197   1.543  11.095 -0.0888  0.0314  0.1525
28208W        W45732  16.606  14.418   5.098  0.1213  0.0007 -0.2401
28209W        W45733  12.103   1.617   0.542  0.0573 -0.0036  0.2127
28210W        W45734  17.549   4.567   1.647 -0.0267  0.1736  0.1117
28211W        W45735   4.087   0.273   0.200  0.0025  0.1877  0.0891
28212W        W45736   4.808   9.539  14.346 -0.1034  0.0157  0.0814
28213W        W45737   3.256   9.914   1.497  0.0519 -0.4038  0.3635
28214W        W45738   2.061   0.409   4.908  0.0866  0.1422 -0.2557
28215W        W45739  14.079   5.105  15.352 -0.0491 -0.0231  0.1094
28216W        W45740   3.040   0.022   2.722 -0.6147  0.3039 -0.1240
28217W        W45741  12.649   6.900  13.132 -0.3313 -0.2155 -0.1249
28218W        W45742  11.126   0.427   1.500 -0.0296 -0.2486  0.0710
28219W        W45743   0.464  14.623  15.162  0.0290  0.2807  0.0539
28220W        W45744  13.048  13.575   4.396 -0.1470  0.3951 -0.2025
28221W        W45745   0.683   7.794   0.986  0.1220 -0.2488 -0.1186
28222W        W45746  11.700  10.438  12.837 -0.4389 -0.1303 -0.1168
28223W        W45747  14.086  17.748  12.782  0.1005 -0.1930 -0.0462
28224W        W45748  14.342   8.760  13.728  0.2165  0.0262  0.3106
28225W        W45749   4.181   7.783  11.876  0.0604  0.0310  0.0232
28226W        W45750  12.244   5.451   3.635 -0.3403  0.0649 -0.0360
28227W        W45751  14.412   3.990  14.807 -0.0830  0.0974 -0.1105
28228W        W45752   4.756  11.061  15.298 -0.2612  0.3002  0.0619
28229W        W45753   6.600  18.275  13.225 -0.2016  0.0102  0.1629
28230W        W45754   2.493   0.436   3.153 -0.2546 -0.1198  0.0240
28231W        W45755  13.003   4.163  15.231  0.1226  0.0658 -0.0836
28232W        W45756  14.445   5.838   1.654 -0.0816 -0.0250 -0.2486
28233W        W45757   4.736  16.141  12.929  0.2317 -0.1203 -0.0696
28234W        W45758  17.407   7.344  11.955  0.3053  0.0310  0.2614
28235W        W45759  17.718  18.062   0.830 -0.1697  0.0117 -0.1363
28236W        W45760   6.679   4.252   2.965 -0.0379  0.2573 -0.0692
28237W        W45761   2.132  11.422  13.972  0.1204 -0.0106  0.0559
28238W        W45762  15.858  10.112   2.348  0.2795  0.2399 -0.0264
28239W        W45763  10.069  14.775   0.807  0.2311 -0.1585  0.0809
28240W        W45764   0.821   3.343  12.008  0.1510 -0.1419  0.2711
28241W        W45765   4.641   2.802  14.463  0.2177  0.1136 -0.1434
28242W        W45766  12.305  11.938  13.024  0.0805 -0.0316  0.0523
28243W        W45767  10.602  10.587   4.845 -0.1146 -0.0542 -0.0966
28244W        W45768  14.941  13.596  12.815 -0.1155 -0.0172  0.0471
28245W        W45769   6.645  11.846   3.337 -0.0379 -0.1264 -0.0236
28246W        W45770   7.685   9.175   1.674  0.1921 -0.1900 -0.0098
28247W        W45771   6.306   5.497   0.240  0.0379 -0.0324  0.1022
28248W        W45772  13.845   4.778  13.425  0.0544  0.2417  0.1969
28249W        W45773   9.208   6.065  14.072 -0.1065 -0.0119  0.0061
28250W        W45774  12.766  13.397  13.460 -0.0982 -0.0946 -0.0576
28251W        W45775   7.170  16.154  12.412 -0.0255  0.2279  0.0177
28252W        W45776  16.793  11.654   1.481 -0.0658 -0.1060  0.1660
28253W        W45777   8.107   7.460  14.267 -0.0850 -0.2882 -0.2114
28254W        W45778  12.801   2.109   4.669 -0.0970  0.0039 -0.1543
28255W        W45779  10.770   6.673   0.004  0.1190 -0.2046  0.1726
28256W        W45780  13.521   9.549  13.231  0.1774  0.0703 -0.0481
28257W        W45781  17.987   2.394  13.277 -0.0607 -0.2339 -0.0026
28258W        W45782  16.929   1.409   3.947 -0.0248  0.0490 -0.1082
28259W        W45783  10.001  14.828   3.501 -0.1466 -0.0246 -0.0792
28260W        W45784  14.844  11.978  12.780 -0.0340  0.2003 -0.2107
28261W        W45785  10.959   4.380   1.006  0.1269 -0.0994 -0.1778
28262W        W45786   1.011  16.691  15.462  0.0729  0.1822 -0.1784
28263W        W45787  17.184  17.066  12.330  0.1911  0.5344 -0.0806
28264W        W45788  13.079   4.402  12.336  0.3273  0.3804 -0.1188
28265W        W45789  16.581  14.893   4.121  0.2059 -0.1032 -0.1555
28266W        W45790  13.657   1.434  12.500  0.3158 -0.2199  0.1243
28267W        W45791   3.627  12.864  13.063  0.3792 -0.2097  0.0296
28268W        W45792  12.744  13.456   0.686  0.0237  0.3033 -0.2999
28269W        W45793  11.944  15.219   0.022 -0.1992  0.1365 -0.0289
28270W        W45794   6.013   1.335   4.541  0.0756 -0.3241 -0.1135
28271W        W45795   8.453  10.093   2.064 -0.0160  0.0208  0.1121
28272W        W45796  13.956   1.821  13.325  0.2582  0.1490 -0.1751
28273W        W45797  14.293   9.652   4.117 -0.3344  0.0341 -0.0103
28274W        W45798   6.830  16.502  10.841 -0.0079  0.1687 -0.0152
28275W        W45799   3.350  10.993  11.857  0.0181  0.2644  0.0280
28276W        W45800  15.200  15.453  14.695  0.1676 -0.0102 -0.3391
28277W        W45801   5.114   8.344   3.772 -0.1248  0.2025 -0.0878
28278W        W45802   8.623   9.800   1.739 -0.0191 -0.0355 -0.1585
28279W        W45803  17.435  15.921   2.715 -0.1441 -0.1330  0.4820
28280W        W45804   7.803  11.060  10.716  0.0118  0.0230 -0.1622
28281W        W45805   1.426  11.584   0.576 -0.0970  0.2642 -0.1179
28282W        W45806  18.266   5.940   0.291  0.0269 -0.0663 -0.1700
28283W        W45807   5.754  18.066   0.262 -0.0318 -0.0836  0.1935
28284W        W45808   0.161   6.498  13.807 -0.0400 -0.1678  0.2939
28285W        W45809  13.143  14.595  15.539  0.1694  0.0437 -0.1360
28286W        W45810   8.800  16.638   4.123  0.2481 -0.0076  0.1811
28287W        W45811   3.300   6.899  11.053  0.2958 -0.1872  0.1049
28288W        W45812  14.435   6.263  12.328 -0.0646 -0.0285  0.2483
28289W        W45813   3.720  18.381   3.530  0.1669 -0.3069  0.0873
28290W        W45814  10.119   9.121  13.283  0.2032  0.1563  0.2489
28291W        W45815   7.178  13.682   2.859  0.1864  0.1906  0.3584
28292W        W45816   4.718  14.556  14.945  0.0310 -0.1981 -0.1267
28293W        W45817   5.025   8.670  10.670 -0.0543  0.1582  0.2047
28294W        W45818  15.693  15.517  15.063  0.1313 -0.0828  0.3267
28295W        W45819   3.776  12.505   3.442  0.0839 -0.0316  0.1080
28296W        W45820   5.327  14.155   1.037  0.5252 -0.0953  0.0621
28297W        W45821   2.396   7.453   1.810 -0.0955 -0.2435  0.1511
28298W        W45822   4.990   7.455  15.697 -0.3711 -0.0238  0.2981
28299W        W45823  17.427  10.959  15.006  0.2698 -0.2294 -0.1096
28300W        W45824   8.178   3.438  11.360 -0.0264  0.1401  0.1931
28301W        W45825   2.581   5.536   4.555  0.2245 -0.1942 -0.1454
28302W        W45826  11.087  10.973   4.916  0.2568 -0.1943 -0.2684
28303W        W45827   5.258  13.272  13.455  0.1334  0.0694 -0.0053
28304W        W45828   3.246   1.899  13.619  0.1846  0.1747  0.0754
28305W        W45829   7.921   9.154   1.117  0.0743  0.2787 -0.0582
28306W        W45830   4.068  18.439  11.254 -0.0327  0.2082  0.0852
28307W        W45831  16.785  14.514  12.063 -0.2128  0.1112  0.3267
28308W        W45832   3.191   3.937   0.405  0.1164  0.0000 -0.3357
28309W        W45833  14.772   8.382  14.878  0.0294  0.0671 -0.2606
28310W        W45834   4.659   4.825  11.533  0.0730  0.1558  0.1421
28311W        W45835  13.030   0.729  11.104  0.1384  0.0518  0.0460
28312W        W45836  13.976   9.359  15.598  0.3453 -0.3933 -0.1522
28313W        W45837  11.682  15.406   0.976 -0.1109  0.0412 -0.0662
28314W        W45838   2.082   1.015   4.383 -0.2723 -0.0796 -0.1441
28315W        W45839  13.271   5.205   1.139  0.1271  0.0621 -0.3225
28316W        W45840   1.125  10.721   0.094  0.1199  0.0598  0.1938
28317W        W45841   5.785  15.235  11.763 -0.0630 -0.0421 -0.0433
28318W        W45842   3.706   4.080   4.249  0.1345  0.1932  0.0622
28319W        W45843   5.955   2.692  14.946 -0.0061  0.1802  0.0850
28320W        W45844   7.744   9.822   0.840 -0.1430  0.2507  0.1966
28321W        W45845  17.960   3.524  14.871  0.0596 -0.0217 -0.0341
28322W        W45846   0.687   0.279   2.889 -0.1420 -0.2304 -0.1358
28323W        W45847   9.760   7.471  11.849  0.2061 -0.0763  0.2976
28324W        W45848   5.454   3.439  12.073 -0.1070 -0.0886  0.0595
28325W        W45849  16.109  10.379  15.042  0.2629 -0.0884 -0.0935
28326W        W45850  16.575  10.855  13.611 -0.0707 -0.2124 -0.1212
28327W        W45851   6.383  10.025  11.511 -0.1254 -0.1943  0.1790
28328W        W45852  14.893   5.608   1.706  0.3189 -0.0322  0.1309
28329W        W45853   0.177   0.083  11.319  0.2529  0.3207  0.3297
28330W        W45854   6.789   7.939   0.095 -0.4250  0.0809 -0.1757
28331W        W45855   3.950   7.576  15.519  0.1648  0.4185  0.5216
28332W        W45856  13.681   4.260  11.838 -0.1501 -0.1544  0.1335
28333W        W45857   9.159  17.632  14.120 -0.0103  0.0427  0.3211
28334W        W45858  15.914  13.853   3.212  0.1463  0.1796  0.2161
28335W        W45859   7.097  10.626  11.318 -0.0503  0.0894  0.4076
28336W        W45860   5.235   8.601   5.419 -0.0934  0.1645  0.0310
28337W        W45861   5.731  11.300  11.580 -0.0047  0.2907 -0.0980
28338W        W45862   4.767   9.947   1.141 -0.0672  0.0260  0.0224
28339W        W45863   2.158  11.378   5.937  0.1620  0.3862 -0.0971
28340W        W45864   5.587  10.688  12.302  0.0731 -0.0144 -0.3114
28341W        W45865   3.471  16.793   2.121 -0.2351 -0.1450  0.0432
28342W        W45866  16.853   3.447   0.943 -0.0595 -0.3853  0.1685
28343W        W45867  12.267   8.499  14.140  0.1224  0.0654  0.1796
28344W        W45868   5.112  14.550   1.887 -0.0890 -0.1482 -0.0893
28345W        W45869   0.948   0.858   4.113  0.0809  0.1230  0.1214
28346W        W45870  14.748   2.580   0.266 -0.0776  0.1802  0.0578
28347W        W45871   9.370   6.331  15.475  0.1625 -0.2331 -0.0433
28348W        W45872   5.955  12.737  10.608  0.1464 -0.0355  0.0616
28349W        W45873   4.694   9.023  12.921  0.1117 -0.1226  0.2459
28350W        W45874  16.571   4.839  13.445 -0.0016 -0.1203 -0.1927
28351W        W45875   3.741   8.965  14.305 -0.1478 -0.0143  0.0967
28352W        W45876  16.877   3.466   0.173  0.1389 -0.0231  0.3996
28353W        W45877  16.774  14.955   6.042 -0.4032  0.1279 -0.2299
28354W        W45878  14.582   4.602  11.796  0.0382 -0.0721 -0.0700
28355W        W45879  17.730  13.539   2.974  0.1693  0.2434 -0.0959
28356W        W45880  10.747   9.600  15.313 -0.0657  0.0336 -0.3043
28357W        W45881   5.393  13.117  15.471  0.1529 -0.0584  0.1470
28358W        W45882   0.605   9.601   1.288 -0.1044 -0.1457  0.0060
28359W        W45883   9.350   5.024   1.902 -0.2572  0.1200 -0.1675
28360W        W45884   3.331  18.314   4.607  0.2329 -0.0123 -0.0764
28361W        W45885  11.402   2.948   3.983  0.0992  0.1656  0.2801
28362W        W45886   6.516   5.698  15.002  0.1339  0.2698 -0.0269
28363W        W45887   5.278  17.695   5.060 -0.0161 -0.5100 -0.1448
28364W        W45888  15.544   7.225  12.238 -0.2548  0.4214  0.1150
28365W        W45889  10.014  12.372   4.541  0.1336 -0.0971  0.4253
28366W        W45890   3.865   1.874   3.976  0.1565  0.1001 -0.1334
28367W        W45891  18.036   5.752  14.873  0.0667  0.0755  0.2028
28368W        W45892   4.631   9.824  14.798 -0.1762  0.0012 -0.0426
28369W        W45893   0.601   5.225   3.053 -0.0329 -0.5216  0.2280
28370W        W45894   6.994   3.748   0.651 -0.0614  0.0906 -0.2207
28371W        W45895   9.082   9.846  15.409 -0.0651 -0.0854  0.0781
28372W        W45896  18.160   0.270  11.995 -0.0901 -0.1954  0.0746
28373W        W45897  14.201   9.766   1.706 -0.2539 -0.0964 -0.4401
28374W        W45898  14.822  14.028   4.882 -0.0930  0.2218  0.2694
28375W        W45899  10.340  14.057   4.395 -0.0131  0.0441  0.0025
28376W        W45900  11.076   1.613  11.987  0.1048  0.3746 -0.0948
28377W        W45901   6.245   7.297  10.836 -0.3577 -0.2211 -0.2341
28378W        W45902   4.773  18.216   2.586  0.1351 -0.2558 -0.0342
28379W        W45903   4.733  17.149   3.861 -0.1297 -0.2060 -0.0729
28380W        W45904  18.389  15.764  14.154 -0.0401  0.0228 -0.2663
28381W        W45905  10.940   2.608   5.839 -0.1042  0.0456 -0.3193
28382W        W45906   2.163   7.299   0.908  0.1813 -0.0407 -0.2256
28383W        W45907  12.358  14.070   3.363 -0.2435  0.1002 -0.0121
28384W        W45908  15.962  11.710  14.580 -0.1635  0.0649  0.0090
28385W        W45909   6.628   2.194  14.112  0.1574 -0.4149  0.0043
28386W        W45910   7.705  18.013   0.134  0.1207  0.2098  0.0465
28387W        W45911   7.281   4.251   0.072 -0.1943 -0.1540 -0.1034
28388W        W45912  16.860   0.479   1.464 -0.2360  0.1297  0.0986
28389W        W45913   6.003   5.880   0.116 -0.2609  0.3256 -0.1790
28390W        W45914  10.437   6.114  14.055  0.0286 -0.2952 -0.2759
28391W        W45915   0.819  14.086   2.567  0.0734 -0.2700 -0.1411
28392W        W45916   6.301   6.470  12.566 -0.2489  0.0513  0.1313
28393W        W45917   8.488   6.596  11.844 -0.2401  0.3584 -0.2608
28394W        W45918  14.890  15.970  13.729 -0.3632  0.3123  0.2221
28395W        W45919  13.694   8.631  11.595 -0.2206 -0.0387  0.0628
28396W        W45920  16.242  14.555   5.461 -0.0466 -0.2630 -0.1668
28397W        W45921   8.511   3.033   1.261  0.7803 -0.2016  0.2864
28398W        W45922  10.716   0.517  15.457  0.2057  0.1585  0.1099
28399W        W45923  14.014   6.303  12.622  0.1257 -0.0136 -0.0894
28400W        W45924   1.853  11.506   3.917 -0.2408 -0.0338 -0.0473
28401W        W45925   3.956   1.954   1.396 -0.1163  0.1631  0.0784
28402W        W45926   1.269   5.410   1.983  0.1341  0.2028  0.3557
28403W        W45927   8.764   2.558  13.025  0.1770  0.1774  0.2506
28404W        W45928   1.511  11.432   1.619 -0.0551  0.0214  0.2085
28405W        W45929   9.205  16.633   1.736 -0.0737 -0.0738  0.0814
28406W        W45930  12.326   7.003   3.718 -0.3735  0.0144  0.1205
28407W        W45931   4.900  16.965  15.674 -0.0245  0.1389 -0.1026
28408W        W45932  15.767  14.354   3.282  0.3628 -0.0890  0.2140
28409W        W45933   1.334   9.654   0.953 -0.0416 -0.2695  0.0777
28410W        W45934   8.360   4.038   2.975 -0.1434 -0.0522 -0.5088
28411W        W45935   1.520   4.781   0.222  0.2660 -0.1831 -0.1621
28412W        W45936   8.110  17.146   3.460  0.0080 -0.0647 -0.1959
28413W        W45937   8.307   9.798   0.416 -0.0418 -0.2496  0.0262
28414W        W45938   9.977  16.086  14.129  0.2743 -0.1861  0.2345
28415W        W45939   4.306   2.735  11.851  0.2778  0.1700 -0.0662
28416W        W45940   9.380  12.178   4.493  0.1476  0.2550 -0.2731
28417W        W45941   0.123  15.215  13.588  0.0621  0.4090 -0.1675
28418W        W45942   0.158  17.590   0.414  0.2081  0.1360 -0.2790
28419W        W45943   0.429  15.932   4.872 -0.0377  0.1299 -0.0674
28420W        W45944   2.806  14.787  13.495 -0.2889  0.1160 -0.1394
28421W        W45945   7.849  12.150  15.376 -0.0422  0.1284  0.0985
28422W        W45946  12.070  11.373   1.944  0.2928  0.0614  0.2914
28423W        W45947   1.941   6.021   5.266 -0.0145 -0.0129  0.0824
28424W        W45948  13.200  16.729  13.374  0.0299  0.2085  0.0690
28425W        W45949  10.250  13.653  12.034  0.1353  0.4335 -0.2872
28426W        W45950   7.305   6.750   3.796  0.1724  0.0290  0.1970
28427W        W45951   5.886  11.363  13.385  0.1352  0.1096 -0.0162
28428W        W45952   7.494  10.427   4.877 -0.1190 -0.0275  0.0906
28429W        W45953  15.457   3.523  13.521 -0.1062  0.1917 -0.0305
28430W        W45954   2.430   1.427   3.739  0.1083 -0.0073  0.1272
28431W        W45955   6.327  12.696   3.529  0.0987 -0.2465 -0.2582
28432W        W45956  13.451  14.237   2.157  0.0456 -0.0298  0.1017
28433W        W45957  14.657   8.966   0.598  0.1122  0.0056 -0.0308
28434W        W45958  17.997  10.473  14.725  0.1452 -0.0986  0.2165
28435W        W45959  15.612   5.502  11.650  0.7650 -0.0952  0.1681
28436W        W45960   8.692  16.425   1.633  0.0251 -0.1143 -0.1337
28437W        W45961   4.384  14.713  12.113 -0.0055  0.0125 -0.4871
28438W        W45962  17.873  14.180  11.497 -0.2460  0.0081  0.1991
28439W        W45963   2.315   1.804   1.763 -0.0802  0.2441  0.1238
28440W        W45964   6.877   7.728  13.141 -0.0353 -0.0925  0.1158
28441W        W45965  13.922   2.341   4.665 -0.2376 -0.0840 -0.0263
28442W        W45966   0.702  12.378   4.584  0.4293  0.2560 -0.0844
28443W        W45967  17.221  10.390  13.248  0.1289 -0.1717  0.0654
28444W        W45968  13.352   3.174   0.863  0.0140 -0.1542 -0.0115
28445W        W45969   0.476   5.618   4.291  0.0310  0.1173 -0.0685
28446W        W45970   3.249   1.851  14.153  0.1561 -0.1227 -0.4949
28447W        W45971  10.778   2.039  15.182  0.1809 -0.1736  0.2030
28448W        W45972   8.846  12.829  12.761  0.0808  0.3033 -0.2253
28449W        W45973  17.382   3.261  11.561  0.2939 -0.0863 -0.1386
28450W        W45974  16.010  14.050   9.979  0.1254  0.0902  0.0033
28451W        W45975  15.423  18.118   3.064 -0.1662 -0.1486  0.2705
28452W        W45976  13.290  14.082  13.528 -0.2123  0.0782 -0.1449
28453W        W45977   6.344   8.148  15.495  0.0046  0.0914  0.0780
28454W        W45978  12.383   6.034  15.442 -0.1330  0.1233 -0.0577
28455W        W45979   3.735  14.798  13.766  0.0421  0.2590 -0.1784
28456W        W45980   7.198  15.869  11.284 -0.1376 -0.0763 -0.1506
28457W        W45981  15.487  12.172   3.064  0.2480 -0.3192 -0.0748
28458W        W45982  13.720  16.554   0.658 -0.1763 -0.2138 -0.1666
28459W        W45983  15.354  12.975  15.323  0.1527  0.1034  0.1265
28460W        W45984   8.182  11.255   4.830 -0.0407 -0.0742  0.3165
28461W        W45985  17.217   0.711  12.795  0.2827  0.0555 -0.2529
28462W        W45986  11.192  17.064   2.923 -0.0946  0.4437 -0.4393
28463W        W45987  13.014  11.417  13.914  0.0432 -0.0188  0.0596
28464W        W45988  17.609  12.723  13.150 -0.1147 -0.0594  0.2926
28465W        W45989   8.351  14.767  12.740  0.0380  0.2438 -0.0763
28466W        W45990  15.660  11.909   1.057  0.2103  0.0517  0.1420
28467W        W45991   4.273   3.116   1.457 -0.2528  0.2437  0.0350
28468W        W45992  14.667   7.407   5.624 -0.2403  0.0400 -0.0207
28469W        W45993   7.995  17.612   4.236  0.2601  0.0287  0.0342
28470W        W45994   4.905  12.163   1.830  0.3436 -0.2283 -0.1299
28471W        W45995   8.115  10.964  15.059 -0.0801  0.1282 -0.0726
28472W        W45996   0.647  17.392  13.624  0.2838  0.0949 -0.0493
28473W        W45997  12.663   3.792   2.144  0.1674  0.2704  0.4707
28474W        W45998  13.907  11.336  11.788  0.3100 -0.2761  0.0971
28475W        W45999  13.457  11.814  11.470 -0.0430  0.0323  0.0140
28476W        W46000  16.577   1.614   3.683 -0.1033 -0.0762 -0.3957
28477W        W46001   3.972  12.949  12.636  0.4593  0.0525 -0.4375
28478W        W46002   6.870  16.847   4.459 -0.0932  0.0442 -0.0241
28479W        W46003  10.821   3.418  11.463  0.1636  0.1527  0.1489
28480W        W46004   0.746  11.519   1.976  0.0795  0.0880  0.0765
28481W        W46005   6.512  17.974  11.728 -0.0421 -0.2699  0.3934
28482W        W46006  11.242   3.955   3.373 -0.0071  0.2442  0.0946
28483W        W46007   7.613  10.931  11.215  0.0212 -0.0713 -0.0040
28484W        W46008  12.888  14.517   4.859 -0.4485 -0.1754  0.1608
28485W        W46009  12.972   8.799   3.395  0.0532  0.0282 -0.4434
28486W        W46010  13.561  15.141   3.110  0.0961 -0.0927 -0.0881
28487W        W46011   1.021   4.547  11.973  0.2282  0.0888 -0.2393
28488W        W46012   2.014   7.727   2.902 -0.5746  0.0174  0.0912
28489W        W46013  15.882  12.308   3.977 -0.2223 -0.1486 -0.0842
28490W        W46014   1.958   1.864   4.463  0.1294  0.0260  0.0345
28491W        W46015  12.681   3.235   1.760 -0.1278 -0.0868  0.1843
28492W        W46016   1.215   1.469   4.643  0.4001 -0.0688 -0.0366
28493W        W46017   3.999  10.496  15.274  0.1740 -0.2438  0.1800
28494W        W46018   1.784   5.581   5.542  0.2506  0.2424 -0.5212
28495W        W46019   2.481  13.579  11.270  0.1744 -0.2214 -0.2776
28496W        W46020   2.170  14.643  12.543 -0.0057  0.1258  0.2908
28497W        W46021  16.451   6.251   0.104 -0.3889 -0.0449  0.0105
28498W        W46022   3.767  18.412  12.126  0.0072  0.0883  0.2749
28499W        W46023  15.515  14.515   0.970  0.0060  0.1680  0.3363
28500W        W46024   7.174   3.436  15.447 -0.4049  0.2787 -0.0458
28501W        W46025   9.207  17.262   3.453  0.1130 -0.1692 -0.0640
28502W        W46026  11.873  16.803   1.841 -0.3102  0.2424 -0.0010
28503W        W46027   9.907   4.216  13.398 -0.3121 -0.3092  0.4540
28504W        W46028  17.672  18.159  14.306 -0.1985  0.0274 -0.2344
28505W        W46029  16.556   4.501   2.160  0.0776 -0.0112  0.1542
28506W        W46030   5.639  13.512  13.670 -0.0312 -0.2199 -0.1560
28507W        W46031  18.060   5.128  12.394  0.3569 -0.4776  0.2830
28508W        W46032  10.285  12.756   3.820  0.1688  0.1031  0.1174
28509W        W46033  10.102  10.484  12.790  0.2078 -0.0124  0.2218
28510W        W46034  14.991  17.284  12.152  0.4865 -0.3026 -0.2275
28511W        W46035  11.424   5.408  11.835 -0.1487 -0.0020 -0.0423
28512W        W46036   3.748  10.931  15.224  0.0282  0.0836  0.2427
28513W        W46037   1.906   4.046  10.193 -0.1525 -0.1807  0.1209
28514W        W46038  17.343   6.148  12.748  0.1452  0.1373 -0.1301
28515W        W46039  13.000   1.179   5.165  0.0280 -0.1091 -0.3044
28516W        W46040   1.942  10.528   0.441 -0.1271 -0.0364  0.1144
28517W        W46041   7.404  15.090  13.791  0.0711  0.1729  0.2389
28518W        W46042   9.122  15.966   5.803 -0.0248 -0.0455 -0.2744
28519W        W46043   5.424   7.412  13.375 -0.0009  0.1761  0.0357
28520W        W46044   9.275   9.267   3.375 -0.0900 -0.1039  0.0432
28521W        W46045  11.330   9.314  12.020 -0.2317  0.1389  0.2636
28522W        W46046  13.402   4.337  15.640  0.0748  0.1451  0.0669
28523W        W46047   1.466  17.281   1.104 -0.0197  0.0370  0.1332
28524W        W46048  10.009  10.268   3.148 -0.0929 -0.0953 -0.0882
28525W        W46049  12.305   7.195   4.974  0.1151  0.2013 -0.0641
28526W        W46050   5.620   2.149  10.475 -0.0095 -0.1599 -0.2879
28527W        W46051   3.630   0.028   4.205 -0.0321 -0.0830 -0.3330
28528W        W46052   8.178   7.651  10.089  0.0827 -0.0575 -0.1128
28529W        W46053  15.712  15.809   1.640 -0.0595 -0.0709  0.3177
28530W        W46054  16.082  16.946   0.669 -0.1496 -0.1593  0.0455
28531W        W46055   8.820   0.166   5.571 -0.0663 -0.1716 -0.0247
28532W        W46056  11.123   5.191   2.664  0.1317 -0.1940  0.5070
28533W        W46057  10.011  18.459   4.616 -0.1561 -0.1783 -0.0504
28534W        W46058   7.409  10.392  13.518 -0.2031  0.3014 -0.1663
28535W        W46059  17.710  12.662  14.330 -0.0009  0.1359 -0.3710
28536W        W46060  10.465  12.937   4.775  0.0218 -0.1482 -0.1033
28537W        W46061   5.396   6.981   4.813  0.0087 -0.1438 -0.0276
28538W        W46062   0.139  14.205  13.013 -0.1744 -0.1241 -0.1612
28539W        W46063   7.137   9.211  14.533 -0.0335  0.1543  0.0927
28540W        W46064  11.197   2.047   0.350 -0.0212  0.2340 -0.0771
28541W        W46065   6.894  12.245  12.132  0.2257  0.2144  0.0770
28542W        W46066   2.621  13.799   4.555 -0.0425  0.0881 -0.1928
28543W        W46067   5.026  12.101   0.716  0.2375  0.1098  0.0601
28544W        W46068   1.550  15.397  12.544  0.1039  0.1625  0.1145
28545W        W46069  16.478   6.913  14.010  0.0684 -0.0869  0.0066
28546W        W46070  10.479   5.335  13.817 -0.0297  0.1643 -0.1864
28547W        W46071   2.730   5.481  12.220  0.2327 -0.0011 -0.0975
28548W        W46072   1.023   9.405  14.066  0.1268  0.2160 -0.0861
28549W        W46073  10.917   5.375   3.118 -0.1285  0.1494 -0.1016
28550W        W46074   1.509   4.905  15.455  0.0773 -0.4160 -0.1446
28551W        W46075  12.990   7.800   3.754 -0.1405  0.1880 -0.2328
28552W        W46076  13.989  16.989  13.270 -0.0135 -0.1817  0.1079
28553W        W46077   9.542   3.370  12.862 -0.0033 -0.1206 -0.0172
28554W        W46078  15.578  14.140   1.465 -0.2696  0.0460  0.1976
28555W        W46079   8.216  17.447  13.231 -0.2446  0.2415 -0.0030
28556W        W46080  13.583   6.120   3.491 -0.1919 -0.0200 -0.0731
28557W        W46081  14.458   0.666  15.515 -0.3283 -0.0488  0.0872
28558W        W46082   5.525   6.912  14.924 -0.5096  0.1549  0.1507
28559W        W46083   4.443  17.202   1.208  0.0254  0.1787 -0.2470
28560W        W46084  18.007  16.514  10.562  0.2635 -0.3127  0.2458
28561W        W46085   2.618  17.603   3.610 -0.1162  0.2605  0.0081
28562W        W46086  16.094   4.918   0.983  0.3287  0.2716  0.3277
28563W        W46087   0.604  17.043  15.132  0.0918  0.2086 -0.2162
28564W        W46088   2.473   9.916  14.134 -0.2350  0.2341  0.2143
28565W        W46089   8.519   9.272   4.048 -0.2480  0.0512 -0.1361
28566W        W46090  10.628  10.643  12.775 -0.0744  0.2163  0.1261
28567W        W46091  17.165   2.856  11.312  0.2098 -0.3245  0.1086
28568W        W46092  14.700  14.786   2.182 -0.1325  0.2918 -0.0896
28569W        W46093  13.520   6.038  15.426  0.2723  0.0636  0.1701
28570W        W46094   2.653   8.376  11.624 -0.0962 -0.0183  0.6077
28571W        W46095  10.392   1.242  12.386  0.0578 -0.2642  0.1959
28572W        W46096  11.614   7.696   2.063  0.0881  0.0139  0.1298
28573W        W46097  12.750  16.798   3.903  0.1353  0.5952 -0.0638
28574W        W46098   1.839   5.701   3.418 -0.1653  0.3192  0.4671
28575W        W46099  12.055   3.136  12.651  0.0055 -0.1339 -0.0205
28576W        W46100   8.299  13.472  12.837 -0.1132 -0.2233 -0.0480
28577W        W46101  13.117  15.684  14.388  0.2766 -0.0822 -0.2239
28578W        W46102  15.715   5.773   0.186 -0.5277  0.0183  0.0479
28579W        W46103  12.908  12.669  14.961 -0.1403 -0.1956 -0.1330
28580W        W46104  13.028  18.091  15.681 -0.2566 -0.1234  0.2078
28581W        W46105  17.453   0.552   4.912  0.3533 -0.0863 -0.0287
28582W        W46106   8.513   5.580   1.084 -0.1773  0.1633  0.1420
28583W        W46107  10.216  14.741   1.876 -0.1012 -0.1723 -0.0659
28584W        W46108  12.805   7.038  13.898 -0.0408  0.1158 -0.1427
28585W        W46109   1.013   9.528   3.161  0.0712  0.0633 -0.1693
28586W        W46110   1.408   7.505  14.345  0.1899 -0.3186  0.0573
28587W        W46111  12.517  11.531   1.109  0.1322  0.0802  0.0507
28588W        W46112  10.368  18.195   0.817 -0.2472 -0.1809 -0.1802
28589W        W46113   6.045  13.509   0.529 -0.0603 -0.1920 -0.0290
28590W        W46114   2.099   2.019  15.722 -0.1088 -0.2958 -0.0600
28591W        W46115   6.562   6.148   1.419 -0.0133  0.2614  0.3257
28592W        W46116  11.122   3.312   0.756  0.2876 -0.1795 -0.0089
28593W        W46117  15.203   7.264   9.506 -0.1506 -0.1407  0.0842
28594W        W46118  16.261  12.352   0.769  0.0810  0.0153  0.4016
28595W        W46119   8.224   4.685  13.436 -0.1473 -0.0818  0.0395
28596W        W46120  11.968   3.302   1.464 -0.0777 -0.0473 -0.0350
28597W        W46121   9.789   8.866   2.156 -0.0672  0.2172  0.3756
28598W        W46122   4.636  14.835  12.584 -0.1045  0.1792  0.0802
28599W        W46123   6.913   5.973   3.711 -0.1945  0.0737 -0.0390
28600W        W46124  13.563  13.754  15.226  0.0258  0.0046 -0.1371
28601W        W46125  18.124   9.782   0.162  0.1880 -0.0740 -0.1712
28602W        W46126   7.662   8.375  10.738 -0.2164 -0.4490  0.2540
28603W        W46127  10.997   9.232  15.038  0.3983  0.1735 -0.2126
28604W        W46128   1.670  16.557  13.449 -0.0539  0.0473  0.0550
28605W        W46129  15.926  18.103  14.032 -0.0308 -0.2158 -0.0790
28606W        W46130   4.986   0.713  11.883  0.2569  0.3781 -0.1974
28607W        W46131   8.196  18.263  15.572  0.0708 -0.2177  0.2643
28608W        W46132  10.534  15.202  13.106  0.1937 -0.0063  0.2582
28609W        W46133   5.252  14.577   4.104 -0.0405  0.0469  0.0352
28610W        W46134  14.032   6.003   2.254  0.0158 -0.2356  0.2225
28611W        W46135  12.991  13.572   0.259 -0.1465  0.1746  0.0698
28612W        W46136   8.898  13.572   0.507 -0.4146 -0.0840  0.0450
28613W        W46137  11.944  17.834   4.542  0.1092 -0.1008  0.0006
28614W        W46138   7.902   7.604   3.044 -0.2334  0.0369  0.0154
28615W        W46139   7.853   1.045   1.892  0.2048  0.2243  0.0125
28616W        W46140   3.576   8.054   2.107 -0.0605 -0.0855  0.1490
28617W        W46141  18.086  12.253   4.889  0.0904  0.2067  0.3524
28618W        W46142  16.384  11.455  14.945 -0.0254 -0.2230 -0.1797
28619W        W46143   5.220   0.685   1.772 -0.2067  0.1299 -0.0657
28620W        W46144  18.280  10.275   2.528 -0.1062 -0.2622 -0.1719
28621W        W46145   6.215  12.740  12.429 -0.1533 -0.0660 -0.1720
28622W        W46146  17.529  14.024   3.479 -0.0664 -0.0493 -0.4145
28623W        W46147   7.266   2.108   1.024 -0.0326  0.3723  0.2234
28624W        W46148   2.833  11.460   0.342  0.2880 -0.0171 -0.0073
28625W        W46149   5.555  14.064  10.005 -0.0567 -0.0599 -0.0213
28626W        W46150   0.731  16.767   0.958  0.0115  0.1298  0.1972
28627W        W46151  15.392   9.894  13.962  0.0681  0.4899 -0.4853
28628W        W46152   4.174   6.794  12.139 -0.0043 -0.2875 -0.2519
28629W        W46153   7.519   5.186   3.676  0.2844  0.1113 -0.2711
28630W        W46154  15.005   9.610   2.626 -0.0580 -0.1083 -0.2249
28631W        W46155   3.999  14.217  12.927  0.2626  0.1636  0.1687
28632W        W46156  13.946   6.512   1.278 -0.1495  0.1230 -0.1109
28633W        W46157  15.448   6.721  12.380 -0.0203  0.2198 -0.0426
28634W        W46158  11.380   5.913   0.507 -0.0588  0.1416 -0.3406
28635W        W46159   1.505   0.202  13.529 -0.2412 -0.0478 -0.1031
28636W        W46160   4.443   3.075  10.940  0.0479  0.0363  0.1586
28637W        W46161  17.106   8.611  12.907 -0.2259 -0.1657  0.1756
28638W        W46162   0.628  13.629   2.757  0.3006 -0.2195 -0.1154
28639W        W46163   5.717   7.502   2.814  0.0959 -0.2626  0.0845
28640W        W46164   1.005   6.607  15.369 -0.1075  0.1672  0.0962
28641W        W46165   9.745  17.918  10.297  0.0620  0.1372 -0.0165
28642W        W46166  12.130   8.419   4.209 -0.0408 -0.1040 -0.0289
28643W        W46167  16.294   5.268  11.842 -0.1245 -0.0719 -0.0387
28644W        W46168  14.192   8.883  15.463  0.1773 -0.1595  0.1927
28645W        W46169   8.260   5.883   2.644  0.1584  0.3068  0.0345
28646W        W46170   9.757  11.583   2.447 -0.4091  0.0875 -0.0496
28647W        W46171  17.039   3.369  11.900  0.1839  0.0787 -0.0840
28648W        W46172  17.610  13.107   1.989 -0.1319 -0.2419 -0.2793
28649W        W46173   1.376   2.018   0.881 -0.2048  0.1879 -0.1957
28650W        W46174  13.314   7.193   2.723  0.0507 -0.2894 -0.2433
28651W        W46175   5.157  15.825   4.367  0.0078 -0.0774 -0.2770
28652W        W46176   5.856   3.155  12.085 -0.0809  0.1700  0.0903
28653W        W46177  13.991   1.954   1.065 -0.0655 -0.0781  0.0840
28654W        W46178   4.006  16.116   3.231  0.0209  0.4016  0.1090
28655W        W46179  10.768   3.598  14.080  0.0760  0.1289  0.0698
28656W        W46180  13.707  13.111   0.240  0.0425  0.2765  0.1946
28657W        W46181   2.873   5.381  13.497 -0.0370  0.1970 -0.0926
28658W        W46182  11.986   9.351   4.492 -0.0635 -0.0046 -0.0970
28659W        W46183  13.725   4.781  11.158 -0.1280  0.0729  0.0237
28660W        W46184  18.292  10.429   3.386  0.2883  0.2696 -0.1535
28661W        W46185   7.350  12.857   3.102  0.3976 -0.4355 -0.0105
28662W        W46186   1.699  15.933  12.022 -0.1303 -0.3763 -0.0991
28663W        W46187  10.072   0.561   3.110  0.0466 -0.1557  0.1548
28664W        W46188  12.334  10.874   3.083  0.1002 -0.1192  0.1960
28665W        W46189   2.887  13.305  11.468 -0.3167  0.0369  0.0376
28666W        W46190   9.149   5.973   3.930 -0.0189 -0.2865  0.0933
28667W        W46191   7.887  12.831  14.313 -0.1520 -0.2040 -0.0240
28668W        W46192   8.056   2.705  13.761 -0.2069  0.0459 -0.0590
28669W        W46193  12.508  10.308   0.825 -0.1343  0.1877 -0.3377
28670W        W46194   6.875  10.233   3.586  0.2014 -0.3045 -0.1470
28671W        W46195   0.756   9.117   3.507 -0.0307 -0.0762  0.1448
28672W        W46196   6.834  12.824  15.715 -0.0703  0.0138  0.0583
28673W        W46197  15.302   0.057  11.395  0.3193 -0.0557 -0.0831
28674W        W46198  10.712   2.486  14.513  0.1040  0.0419  0.0111
28675W        W46199   1.230   5.882   0.592  0.1240 -0.0042  0.0024
28676W        W46200   8.956  13.678  12.578  0.1567  0.2147 -0.0659
28677W        W46201  10.701  17.210   2.277 -0.0465  0.3441 -0.2043
28678W        W46202   9.056  11.241  11.478 -0.3960  0.5349 -0.0783
28679W        W46203  18.293   4.769   1.014  0.0407 -0.0702  0.0075
28680W        W46204  12.386  17.089   3.668 -0.0392  0.2700  0.0578
28681W        W46205  16.352  18.146   4.243 -0.2174  0.0567 -0.0151
28682W        W46206  14.507   6.583  13.295 -0.0303 -0.0534 -0.0454
28683W        W46207  15.470   5.972  10.310 -0.3039  0.0756  0.1801
28684W        W46208  12.764  16.599  13.549  0.0273  0.0923  0.0040
28685W        W46209  11.533  15.866  13.802 -0.1655  0.0338 -0.1541
28686W        W46210   9.859   4.181  13.883 -0.1236 -0.4303  0.1230
28687W        W46211   5.078   7.500   4.731 -0.1618  0.0108  0.0326
28688W        W46212   0.788   9.424  11.324 -0.1662 -0.3713  0.1962
28689W        W46213  18.478  12.902   0.050  0.1709  0.2728 -0.0277
28690W        W46214   2.394  15.536  11.532  0.2823  0.0562 -0.0388
28691W        W46215   3.134   0.885   1.516  0.3682  0.1063  0.0509
28692W        W46216   4.658  11.650  11.891  0.1414 -0.0252 -0.1164
28693W        W46217  13.607  16.010   3.135 -0.1784 -0.0339  0.0126
28694W        W46218  14.294   5.636   2.569  0.3487  0.0058  0.1337
28695W        W46219  11.380   4.471   4.211 -0.1580 -0.1852 -0.0793
28696W        W46220   6.443   9.415  12.758  0.1467  0.1139 -0.0791
28697W        W46221  12.599   1.937  12.520  0.0842 -0.1935 -0.1019
28698W        W46222   5.809   8.735   4.336  0.0803  0.1916  0.2287
28699W        W46223  13.143  13.624   4.960  0.2601 -0.2458 -0.0136
28700W        W46224  11.613   9.880   1.701 -0.0372 -0.0433  0.1406
28701W        W46225   9.051   8.543  13.549  0.1305 -0.1316 -0.0819
28702W        W46226  18.106   2.193   4.509 -0.1027  0.0053  0.2029
28703W        W46227  17.066  11.523   0.544 -0.1092  0.0138 -0.1733
28704W        W46228   4.340   2.731   0.103  0.3286 -0.0957  0.3462
28705W        W46229  16.918   9.865  12.957 -0.0413  0.0664  0.2700
28706W        W46230   0.536   4.719   2.917  0.2445 -0.3056  0.1154
28707W        W46231  15.466  16.412   5.014 -0.0163  0.1657  0.4284
28708W        W46232   6.222  14.827   1.702 -0.1420  0.2636  0.0472
28709W        W46233   5.067   9.252  13.272  0.5445 -0.0336  0.0033
28710W        W46234  17.130   3.209  13.932 -0.1082  0.1184 -0.0940
28711W        W46235  18.102  12.775   1.893 -0.1803 -0.0104 -0.3081
28712W        W46236   2.609  17.538   3.012  0.1571 -0.0435  0.1264
28713W        W46237   8.204   4.095   0.163  0.1660 -0.1661 -0.2472
28714W        W46238   7.125  14.979  10.372  0.1150  0.4965 -0.0164
28715W        W46239  12.540  18.253   1.360 -0.3176 -0.1021 -0.0585
28716W        W46240   6.502  12.384   1.691  0.0833  0.3150 -0.5047
28717W        W46241   4.808  10.261  15.486 -0.0993  0.3063 -0.2908
28718W        W46242   9.056   5.388   9.885  0.0356 -0.1501 -0.3893
28719W        W46243  12.862  15.428   3.634 -0.0949  0.1359 -0.0808
28720W        W46244   1.416  14.318  11.543  0.2185  0.0728  0.1089
28721W        W46245   1.239   4.102  14.561  0.1856  0.0931  0.3518
28722W        W46246  17.683   8.285  12.450  0.3460 -0.0217  0.0315
28723W        W46247  14.647   4.536   1.626  0.0986  0.2432 -0.1028
28724W        W46248   4.265  11.896   5.141 -0.0624 -0.0636  0.0926
28725W        W46249   3.232   6.504   2.101 -0.3325  0.0600  0.1371
28726W        W46250   7.181  17.998   0.229  0.0692 -0.0646  0.1086
28727W        W46251  15.693  12.086   4.459 -0.0113  0.1216  0.0530
28728W        W46252  13.656  17.428   0.988  0.3114 -0.2103 -0.0632
28729W        W46253  17.236   8.271  11.539  0.0452  0.0496  0.0798
28730W        W46254  11.730  13.374   0.495  0.5149  0.0659 -0.2359
28731W        W46255   2.757   7.569  11.398  0.1593 -0.1429  0.0462
28732W        W46256  12.323  15.446  12.688  0.0930  0.1984  0.0907
28733W        W46257   6.631  11.395   4.684 -0.0986 -0.1405 -0.0706
28734W        W46258   6.528   9.537   1.490 -0.0677  0.2717  0.0016
28735W        W46259  11.933  16.377  13.619 -0.3918 -0.1992  0.3065
28736W        W46260   6.645  11.928  12.452  0.0073 -0.1226  0.2491
28737W        W46261   8.808   6.451  11.429 -0.0404  0.0629 -0.0925
28738W        W46262  16.212   6.388   1.227  0.0950  0.2135  0.0404
28739W        W46263  14.787   5.830  14.168 -0.1853  0.2345  0.0407
28740W        W46264   9.746   7.358   3.594 -0.2871  0.1462 -0.3555
28741W        W46265   3.447  12.534  15.138  0.2321  0.0425 -0.0283
28742W        W46266   0.820  16.530   2.052  0.0502  0.1171 -0.1284
28743W        W46267   6.554   3.641  14.677 -0.2965  0.0471 -0.5124
28744W        W46268  18.280  18.251  13.063  0.0906  0.0155 -0.0714
28745W        W46269   3.314  10.529   4.036  0.0827 -0.1065 -0.4369
28746W        W46270   6.871  16.801   3.667  0.2183 -0.0700 -0.0602
28747W        W46271   7.490   4.558   4.412 -0.0051  0.2935  0.0227
28748W        W46272   1.866   8.270   3.697  0.0913  0.0142 -0.2173
28749W        W46273   9.143  12.128   1.896  0.1715  0.0010 -0.2378
28750W        W46274  10.554  13.157  13.559  0.0977 -0.1270  0.3704
28751W        W46275  16.889  10.807  15.006 -0.1185  0.2868  0.1034
28752W        W46276   9.839   8.203   0.080  0.0935  0.0450 -0.1481
28753W        W46277  13.109  13.915   3.984  0.1538  0.1416 -0.0338
28754W        W46278  13.184  14.971   3.321  0.0426 -0.0247 -0.3061
28755W        W46279   9.003  14.370   4.134  0.0604  0.0715 -0.0470
28756W        W46280  17.217   8.495   1.996 -0.0872  0.1227  0.2235
28757W        W46281   8.738  16.294  15.578 -0.0921 -0.0194  0.1055
28758W        W46282  16.379   2.555  15.474 -0.1929  0.0791 -0.0461
28759W        W46283  11.431  14.844  12.822 -0.0313  0.3012  0.0355
28760W        W46284   8.889   7.475  11.567  0.0414  0.1257  0.3318
28761W        W46285  12.500  14.984  14.984 -0.0760 -0.0747  0.4489
28762W        W46286   7.312   8.280  11.124  0.1014  0.0790  0.1924
28763W        W46287   7.222   2.344  14.045  0.1967  0.1816  0.4144
28764W        W46288   6.631  16.235   2.457 -0.2892 -0.0195  0.1112
28765W        W46289   5.039  13.796  14.466 -0.0057  0.0884 -0.0167
28766W        W46290  14.298  10.586  13.734 -0.0865  0.0346 -0.2333
28767W        W46291   4.879  13.698   2.982  0.1576  0.3076  0.0913
28768W        W46292   2.693  17.816  14.858 -0.2765 -0.2600 -0.0361
28769W        W46293  15.693   6.365  13.852  0.4123  0.1132  0.2886
28770W        W46294  10.480  14.076   2.938 -0.0179  0.1437 -0.0116
28771W        W46295   4.985  10.250  14.954  0.1040 -0.1273 -0.2013
28772W        W46296   3.478  16.334   4.887 -0.1178  0.1197  0.0739
28773W        W46297  14.366   0.029   0.744  0.0249 -0.1323  0.1957
28774W        W46298   0.814   0.697   1.827  0.0212  0.2021 -0.4238
28775W        W46299   5.687  12.023  13.999 -0.3002  0.1646 -0.5786
28776W        W46300  13.750   2.707   0.273  0.0298  0.1120 -0.0402
28777W        W46301  18.108   9.938   3.494 -0.0720  0.1852  0.1569
28778W        W46302  16.972   4.451  13.377 -0.1884  0.1164  0.3357
28779W        W46303  10.558   7.560   0.010 -0.3114 -0.0119  0.2731
28780W        W46304  12.968   3.682   1.715 -0.1299 -0.3240 -0.0184
28781W        W46305   9.419   7.358  13.220  0.0108  0.0951  0.4309
28782W        W46306   1.867  11.331  11.017 -0.0437 -0.4520 -0.1798
28783W        W46307  15.927  12.038   3.303  0.4282 -0.2289  0.2433
28784W        W46308  14.713  10.760  14.037  0.0975 -0.0827  0.1343
28785W        W46309  11.772  16.776  15.480 -0.2240  0.1828  0.0731
28786W        W46310  10.404   8.842  12.332 -0.0929 -0.1665  0.0129
28787W        W46311   1.853   5.122   4.332  0.0589  0.0340  0.1266
28788W        W46312   0.741   0.664  14.907 -0.3069 -0.0113  0.1267
28789W        W46313   5.392   9.359   0.740 -0.1439  0.0672  0.0631
28790W        W46314   6.781  13.035  12.794  0.0393  0.3563 -0.0559
28791W        W46315   0.806   8.228  14.872 -0.0367  0.0519  0.0098
28792W        W46316   5.793   6.134   5.309 -0.2550  0.1522 -0.2760
28793W        W46317   4.592   8.154   2.491  0.0426 -0.0001  0.2874
28794W        W46318  12.873   5.412  14.359 -0.3060 -0.0455 -0.1967
28795W        W46319  17.127   1.914   4.641 -0.2292  0.1276 -0.1633
28796W        W46320   5.350   2.858   2.852  0.0635  0.2793  0.1146
28797W        W46321  17.480   1.619  14.633  0.1589  0.0532  0.0815
28798W        W46322  11.694  14.931  12.202 -0.0325 -0.1111  0.3440
28799W        W46323  14.014   8.213  12.848 -0.0863 -0.4100 -0.1717
28800W        W46324  16.180   2.941   1.826 -0.1034 -0.0901  0.1687
28801W        W46325  17.971   1.061   0.251 -0.1153  0.0568  0.1289
28802W        W46326  16.517   4.031   2.060 -0.1521 -0.1751 -0.0194
28803W        W46327  13.716   5.247  13.389 -0.2502 -0.1547 -0.0278
28804W        W46328  18.123   8.457   3.965 -0.0130  0.1467 -0.0166
28805W        W46329  14.313   4.876  10.356  0.2124 -0.0868  0.1427
28806W        W46330  13.378  18.342  12.947  0.0848  0.3321 -0.1729
28807W        W46331  14.385   7.556  14.314  0.5008 -0.2812  0.3190
28808W        W46332   7.043  10.393   4.611  0.0435  0.2151 -0.1991
28809W        W46333  15.751   9.591   3.307 -0.0228  0.0043 -0.2181
28810W        W46334  17.777  10.453  10.939 -0.0795 -0.0024 -0.1217
28811W        W46335   6.245  18.094  15.635 -0.2062 -0.3288 -0.0586
28812W        W46336   4.483   6.974  14.429  0.0764 -0.1132  0.0716
28813W        W46337  16.559  17.095  14.479 -0.1064 -0.2572  0.0950
28814W        W46338   0.912   9.729  14.882  0.1416  0.4691  0.1267
28815W        W46339   1.004   4.454  14.244  0.1609 -0.0101  0.1050
28816W        W46340   4.330   0.987  11.313  0.0219 -0.0560 -0.0891
28817W        W46341   2.294  17.677   1.488 -0.2396 -0.2335  0.4424
28818W        W46342  15.971  12.295   1.224 -0.0070 -0.1980  0.2394
28819W        W46343   7.126  18.322  13.084  0.0366  0.0856 -0.3382
28820W        W46344   2.570  17.263   1.495  0.2268  0.0240  0.0503
28821W        W46345   8.611   9.934  15.571 -0.0630  0.2389  0.0330
28822W        W46346  16.724  14.493   2.793  0.2269 -0.1540  0.2029
28823W        W46347  16.008   8.115   1.250  0.0302 -0.2594  0.1997
28824W        W46348   2.377   7.140  11.695 -0.1145 -0.4111  0.1595
28825W        W46349  16.521  11.530   3.099  0.3609  0.1349 -0.1186
28826W        W46350  13.239   5.378  11.995  0.0054 -0.0752 -0.0358
28827W        W46351  15.125   8.229   3.241 -0.0763 -0.1413 -0.0101
28828W        W46352  12.011  12.372   0.479  0.0481 -0.0610 -0.1869
28829W        W46353   6.970  10.864   1.875 -0.0080 -0.1019  0.1689
28830W        W46354   1.954   5.785  10.803 -0.0782  0.0483 -0.0299
28831W        W46355   1.457  17.851   1.122 -0.2125 -0.1136  0.2388
28832W        W46356   6.469   3.892   2.715  0.2080  0.2630  0.2137
28833W        W46357   2.745  15.745   2.804  0.0091 -0.3061 -0.0623
28834W        W46358   9.309   5.562  11.206  0.0938 -0.1968  0.0764
28835W        W46359   4.444   7.024   1.298  0.0627 -0.1611 -0.1827
28836W        W46360   1.645  10.860   0.065 -0.0275  0.0756  0.0812
28837W        W46361   2.800   7.177  14.756  0.2045 -0.0390 -0.2747
28838W        W46362  11.796   8.779   2.905  0.0090  0.2710 -0.0628
28839W        W46363  16.263   7.103   1.431 -0.1382  0.0093  0.1967
28840W        W46364   0.804  10.703   1.195  0.0992 -0.2824 -0.1528
28841W        W46365   7.035   9.089   0.822 -0.1071  0.1339 -0.0998
28842W        W46366   6.666   6.454   4.132 -0.0782  0.1392 -0.0742
28843W        W46367  17.558   3.079   2.873 -0.2083  0.0035  0.1620
28844W        W46368   9.191  14.398  15.145 -0.2725 -0.0718 -0.1724
28845W        W46369   1.378   8.023   0.285 -0.1626 -0.1589  0.2313
28846W        W46370  10.173   8.126  14.335  0.1432 -0.1194 -0.1608
28847W        W46371  12.501  12.922  13.750 -0.0089 -0.2247  0.0843
28848W        W46372  17.575   1.698  11.262 -0.2203 -0.1925 -0.2178
28849W        W46373  18.480   8.000   0.660 -0.0860  0.1984  0.1323
28850W        W46374  17.004  11.071   0.451  0.0328 -0.0184 -0.0020
28851W        W46375  10.855  11.993  12.924  0.1679  0.1578 -0.0327
28852W        W46376  14.909  15.075   9.932 -0.4915 -0.0621  0.4944
28853W        W46377  15.974   0.320  11.898 -0.0782  0.1595 -0.3048
28854W        W46378  17.334  18.210   2.969 -0.1442 -0.0452 -0.2864
28855W        W46379   5.499  10.106   1.947 -0.0878  0.1818 -0.3675
28856W        W46380  11.606  11.063   3.594 -0.1435 -0.0503 -0.3540
28857W        W46381  11.408  10.077  12.891 -0.0293  0.1252  0.0749
28858W        W46382   9.066  14.334  12.082 -0.1352  0.0694 -0.2599
28859W        W46383  12.891   8.426  11.022 -0.1594 -0.2206 -0.2954
28860W        W46384  17.825   6.962  11.839 -0.2105 -0.2522 -0.2116
28861W        W46385   5.047   9.329  15.297 -0.1589 -0.1197 -0.1270
28862W        W46386   1.135   9.262   0.660  0.2841  0.1369  0.0409
28863W        W46387   3.110   7.166  10.656 -0.4966  0.1644 -0.1926
28864W        W46388  11.919   2.714   2.725  0.0748  0.1117 -0.2297
28865W        W46389  12.471   5.450   2.100  0.1056  0.1871 -0.1271
28866W        W46390  14.872  17.991   4.489 -0.2844  0.1237 -0.1276
28867W        W46391  18.239   4.954   3.283 -0.3705  0.0246 -0.3491
28868W        W46392   4.181   1.678   3.604 -0.0838  0.1173  0.0283
28869W        W46393   2.077  10.432  15.154  0.1521 -0.3363  0.1253
28870W        W46394   3.957   8.458  12.764 -0.0161 -0.2410 -0.1759
28871W        W46395  14.248  11.089   2.794 -0.1497  0.0113  0.0445
28872W        W46396  15.322   8.553  12.966 -0.0039 -0.1243 -0.4182
28873W        W46397  15.794   6.574   1.457 -0.1506 -0.0913 -0.0680
28874W        W46398   9.016  11.008  12.797  0.0673 -0.1072 -0.1080
28875W        W46399   7.440   1.267   1.971  0.0831 -0.2387  0.4969
28876W        W46400   8.729  17.713   0.017 -0.1296  0.3301 -0.1746
28877W        W46401   1.496   5.653  12.578 -0.0373 -0.4068 -0.1677
28878W        W46402   1.948  10.029  15.436  0.4021  0.0423  0.2604
28879W        W46403  17.032  17.520   4.015 -0.1119  0.0363 -0.0715
28880W        W46404   6.668   4.220  11.296 -0.2446  0.0196 -0.1924
28881W        W46405   4.485  16.405   0.786 -0.1345 -0.1421 -0.0444
28882W        W46406  16.306   4.560  14.002  0.0975 -0.0682 -0.1118
28883W        W46407   1.273   8.512   3.376 -0.1781 -0.1964  0.1828
28884W        W46408   1.510   9.073   2.407 -0.4790  0.2075 -0.1099
28885W        W46409  15.887   3.111  14.263 -0.2030  0.1360  0.1025
28886W        W46410   6.239   6.980   0.367  0.1393 -0.0273 -0.1859
28887W        W46411   8.064   5.816   4.980  0.0345 -0.1425  0.0673
28888W        W46412  17.754   9.001  15.635  0.1179  0.2687  0.2898
28889W        W46413  15.671   8.307   4.814 -0.2165  0.1000  0.0121
28890W        W46414   8.887   0.278  11.718  0.1230  0.0544  0.3424
28891W        W46415  13.050  18.356  11.585 -0.2315  0.1134 -0.1103
28892W        W46416   6.951   0.870   2.174 -0.1112 -0.0397 -0.0814
28893W        W46417  16.182  11.673   1.414 -0.2241 -0.0337 -0.2020
28894W        W46418   8.964   3.277   0.106  0.0202 -0.0846 -0.0305
28895W        W46419   7.682  11.774  11.332  0.0317 -0.1893  0.1023
28896W        W46420   9.036  17.265  12.410  0.0519 -0.2525  0.3118
28897W        W46421  13.415   5.972   0.194 -0.1203 -0.0981 -0.0647
28898W        W46422   3.242   5.681   3.750 -0.0161 -0.0764 -0.0086
28899W        W46423   8.448  15.820  13.329 -0.2236 -0.2249  0.3106
28900W        W46424   1.268  16.247  13.423 -0.1861 -0.3071  0.0006
28901W        W46425   4.954  17.378   1.321  0.0899  0.2204  0.1145
28902W        W46426   9.145  15.990  13.824  0.0064  0.1779  0.1090
28903W        W46427   2.319  10.608   0.976 -0.4366 -0.1742  0.1919
28904W        W46428  10.896   2.176   2.054  0.1268 -0.0798  0.1286
28905W        W46429   1.204  17.008   3.974 -0.0053 -0.2476 -0.0496
28906W        W46430   5.583   0.672  15.037  0.1720 -0.1594 -0.1298
28907W        W46431  15.791  12.384   0.711 -0.0395 -0.1158  0.0201
28908W        W46432   1.206   8.560   4.210 -0.4363 -0.0497  0.3337
28909W        W46433   6.337   4.588  13.216  0.2460  0.2793 -0.1375
28910W        W46434   9.573   6.057   3.027  0.0298 -0.0704  0.4200
28911W        W46435   3.028   3.858   2.299  0.2951 -0.2156  0.1926
28912W        W46436   3.210   2.748  11.406  0.1514 -0.2745 -0.1127
28913W        W46437  17.406  11.352   2.925  0.0489  0.1803  0.0416
28914W        W46438  10.138  15.458   5.131  0.0045 -0.0049  0.2584
28915W        W46439  17.721  14.999   2.173 -0.2598  0.1241 -0.0472
28916W        W46440   9.875  10.906  11.345 -0.0178  0.2787  0.0782
28917W        W46441   3.444   7.457   2.299  0.1224 -0.1541  0.3655
28918W        W46442   6.024  14.177   1.720  0.0621  0.2723  0.0675
28919W        W46443   9.100  14.506   3.571 -0.1748  0.0193 -0.1375
28920W        W46444  17.072   0.064   1.291  0.2002  0.0352 -0.2235
28921W        W46445  14.725  16.245  14.856 -0.2306  0.1094  0.0802
28922W        W46446  17.534   3.148  15.433 -0.3578 -0.0053  0.2755
28923W        W46447   3.994  17.460   9.659  0.1107 -0.0777 -0.2807
28924W        W46448   6.012  16.946  12.986 -0.2853 -0.3787  0.1320
28925W        W46449  11.014   5.322  11.465 -0.1740 -0.1899 -0.1830
28926W        W46450   5.792   4.197  11.340  0.1089  0.2859 -0.2720
28927W        W46451   5.552   6.032  14.840 -0.0172 -0.1599 -0.1032
28928W        W46452   4.081  17.950  11.421 -0.3556  0.0024 -0.3457
28929W        W46453   0.396   2.341  14.511 -0.1734 -0.0290  0.1450
28930W        W46454  11.271   9.676  15.534 -0.2354 -0.0827  0.4837
28931W        W46455  12.428  13.093   4.672  0.5632 -0.1911  0.2485
28932W        W46456  10.328   3.533  14.238  0.0769 -0.0258  0.1130
28933W        W46457  10.441   6.440  14.951 -0.3459 -0.1473  0.0004
28934W        W46458  16.471   4.057  14.421  0.0360  0.0009 -0.0162
28935W        W46459   5.855   9.280   4.294  0.4018 -0.2315 -0.0796
28936W        W46460  11.249   6.495  11.611  0.1417 -0.0319 -0.0197
28937W        W46461  14.745   4.222  11.446  0.0855 -0.2504 -0.0988
28938W        W46462  16.578   4.075   2.574  0.0373  0.0258 -0.3397
28939W        W46463   1.305  16.015  14.352  0.2347  0.1217 -0.2239
28940W        W46464   1.271  15.643   4.119 -0.2309  0.2113  0.0202
28941W        W46465  16.244  12.283   3.641 -0.1066  0.1480  0.1167
28942W        W46466   1.482  14.381   0.630 -0.0774  0.0582 -0.0679
28943W        W46467  10.114  18.344   3.710  0.0194  0.1646  0.2160
28944W        W46468  16.018  16.829  12.118  0.2922  0.0424 -0.2601
28945W        W46469   8.277   4.020  14.531 -0.2293  0.1100  0.3304
28946W        W46470   6.678  14.732   2.587 -0.0790 -0.1509  0.1372
28947W        W46471  14.842  11.926  13.621 -0.4152 -0.1912 -0.0151
28948W        W46472  16.678   2.031  13.307  0.0235 -0.2829  0.0619
28949W        W46473  16.489   9.427  15.343  0.0200  0.0670 -0.0025
28950W        W46474   2.785   7.950  11.742  0.3168  0.3959 -0.0863
28951W        W46475   1.340   4.731  12.806 -0.2839  0.0822 -0.0281
28952W        W46476   7.210   6.083   4.485  0.4992 -0.3188 -0.1690
28953W        W46477   7.563  17.331   2.842  0.1501 -0.0162  0.1513
28954W        W46478  18.031  18.466   4.320 -0.2611  0.3077  0.0986
28955W        W46479   4.241   9.988  10.868 -0.2205  0.1797  0.5300
28956W        W46480   6.225   5.800   1.225  0.0082 -0.0171  0.1205
28957W        W46481   2.364  13.964   0.732  0.0764  0.1110  0.2172
28958W        W46482   5.248  15.219   1.525  0.0134 -0.0020 -0.0295
28959W        W46483   9.591  18.046  15.545 -0.4021 -0.1681 -0.3029
28960W        W46484   1.291   1.530   5.136 -0.0282 -0.1819 -0.2630
28961W        W46485  17.161  15.575   0.157 -0.0334 -0.3182 -0.1253
28962W        W46486   4.638   3.890   4.492 -0.1776 -0.3846  0.1712
28963W        W46487   0.260   1.118  12.525 -0.1521 -0.0583  0.2735
28964W        W46488   8.456  18.362   3.120  0.1205  0.0141  0.0364
28965W        W46489  17.797   8.622  11.925 -0.4091  0.2387  0.1997
28966W        W46490  12.991  17.513   0.186  0.4269  0.1221 -0.1158
28967W        W46491  17.344  11.178   2.332  0.1088 -0.2348  0.0384
28968W        W46492   0.279   4.565  15.032  0.0429 -0.0408 -0.0116
28969W        W46493  14.781   3.255   4.646  0.1144  0.2701 -0.1300
28970W        W46494   4.549   9.187  15.415 -0.4219 -0.0621  0.0753
28971W        W46495   5.326   6.255   2.696  0.2156  0.3831 -0.1413
28972W        W46496  12.907   5.979  14.280  0.1970 -0.2246  0.2180
28973W        W46497  11.511  14.107  11.959 -0.0571  0.1625  0.0828
28974W        W46498   1.709   5.293   1.757  0.3409 -0.0599 -0.0718
28975W        W46499   7.617   3.022   3.211 -0.2657  0.3928 -0.2175
28976W        W46500   3.775  16.471  14.847  0.4170 -0.1327 -0.3546
28977W        W46501   8.145  14.880   3.050 -0.2922 -0.0924 -0.2037
28978W        W46502   8.023   3.861   4.081 -0.0939  0.0001 -0.2582
28979W        W46503  13.364  16.989   2.836  0.0707 -0.0137  0.1065
28980W        W46504  12.283   9.123  13.657  0.1787  0.2359  0.0756
28981W        W46505  15.295  18.448  13.346 -0.0216 -0.0652 -0.0165
28982W        W46506  18.181  17.014   1.168  0.1663 -0.0567 -0.1038
28983W        W46507   8.549   9.674   2.215 -0.2285 -0.1131 -0.1860
28984W        W46508  15.990  18.221  10.741  0.0362 -0.0808 -0.2013
28985W        W46509  15.517   2.555   5.649 -0.0347 -0.0933 -0.5521
28986W        W46510   3.966  16.428   4.568 -0.0387  0.1030  0.1746
28987W        W46511   5.335  13.364  15.072 -0.1508 -0.1337  0.0494
28988W        W46512   0.084  10.081   0.133 -0.1635  0.1756 -0.3266
28989W        W46513   5.766   2.043   0.998 -0.0065 -0.1138  0.1255
28990W        W46514   7.001   4.650   1.467  0.0987  0.0972  0.0627
28991W        W46515  17.460  10.140   1.227 -0.0606  0.0867  0.1604
28992W        W46516  18.202   7.902  15.068  0.1289  0.0488  0.0650
28993W        W46517  12.144  15.474  13.146  0.1281  0.2560  0.1915
28994W        W46518   3.299  14.650  11.709  0.1433  0.0705  0.0036
28995W        W46519  10.782  17.239  15.244  0.0379  0.2166 -0.0433
28996W        W46520  10.134   9.370  11.550 -0.3373  0.1522 -0.1219
28997W        W46521   3.715  10.476  14.172 -0.1202 -0.3847 -0.0821
28998W        W46522  10.583  13.780   1.790 -0.0728 -0.1736 -0.0084
28999W        W46523  13.351   9.664   3.063 -0.2053 -0.0931  0.1485
29000W        W46524   8.185   8.659  14.421 -0.2081  0.1137 -0.2726
29001W        W46525  12.128  17.686   2.499 -0.3477  0.0343 -0.0074
29002W        W46526  13.269   0.619  14.598  0.0237 -0.0207  0.0063
29003W        W46527  13.998   6.474   2.407 -0.1831 -0.0314 -0.1776
29004W        W46528  12.934   2.518   2.271  0.0555 -0.0986  0.3225
29005W        W46529   9.455   4.198  15.593 -0.2294 -0.0631  0.0422
29006W        W46530   3.177  10.214   0.027  0.1866 -0.0649 -0.1370
29007W        W46531  10.385   9.416   1.981 -0.2856  0.0903 -0.1465
29008W        W46532   5.078   4.292   4.367  0.1383  0.2749 -0.2742
29009W        W46533  10.368  16.639   0.255 -0.0824 -0.0559  0.1432
29010W        W46534   2.437   6.857   4.785 -0.0525 -0.5553  0.2727
29011W        W46535   0.469  13.525  11.051 -0.1264 -0.0805 -0.0048
29012W        W46536  13.767  18.256   5.258  0.1252  0.0953 -0.3099
29013W        W46537  12.803   8.884   5.242 -0.2215 -0.0957 -0.1344
29014W        W46538   3.120   7.305   3.545 -0.1477  0.1291 -0.1060
29015W        W46539   5.054  17.733  12.003  0.1595  0.3553 -0.0978
29016W        W46540   8.020  13.975   4.588  0.1698  0.0644  0.1196
29017W        W46541   0.044  11.632   0.057 -0.2089 -0.1394 -0.0835
29018W        W46542  16.283   8.429  11.038  0.0227  0.1607 -0.3028
29019W        W46543  17.728  11.225   4.684  0.0668 -0.3060 -0.0848
29020W        W46544  14.034   7.315  11.869  0.1065  0.2237 -0.0700
29021W        W46545   2.412   1.752   2.595 -0.0836  0.1038  0.3103
29022W        W46546   6.064  10.788   1.505  0.2121 -0.1746 -0.0918
29023W        W46547  16.004   5.051   3.158 -0.1472 -0.3066  0.1319
29024W        W46548   5.385   3.415   1.483  0.1639  0.2995  0.0905
29025W        W46549  14.806   4.367   3.756  0.0722  0.0059 -0.3362
29026W        W46550   4.715   9.047   1.323  0.0424  0.0590  0.3276
29027W        W46551   3.576  14.505   3.811 -0.0386 -0.1400 -0.0497
29028W        W46552  11.975   3.011   3.984  0.0834 -0.1621  0.2202
29029W        W46553   8.166  16.743   0.504 -0.2428  0.0129  0.1199
29030W        W46554  13.752  18.461   4.809  0.0255 -0.4057  0.0629
29031W        W46555   0.188  12.461   5.357 -0.1418 -0.0039 -0.1790
29032W        W46556  15.764   8.170   0.235 -0.1450  0.2677  0.0531
29033W        W46557   7.980   2.975  11.384 -0.0534 -0.0201  0.1641
29034W        W46558  15.722  13.374   0.444  0.2474 -0.1137 -0.2135
29035W        W46559  17.705  16.425  11.682 -0.0817  0.0527 -0.0987
29036W        W46560   8.904  15.611  12.069 -0.1269 -0.0784  0.1415
29037W        W46561  14.591  17.615   0.680 -0.0450  0.1620 -0.1705
29038W        W46562   2.132  14.230   3.871  0.1560  0.0028  0.1476
29039W        W46563  11.665  15.337   2.340 -0.0220  0.1228 -0.0815
29040W        W46564   5.734  18.290  13.883 -0.2079 -0.2070 -0.2807
29041W        W46565  14.693  11.900  14.871 -0.1771 -0.2674 -0.0489
29042W        W46566   1.547   1.412  14.877 -0.0389  0.0100  0.0299
29043W        W46567  17.718   4.683  10.896 -0.1975 -0.0938  0.0448
29044W        W46568   7.597   1.563  14.735 -0.0807 -0.3749  0.0803
29045W        W46569  11.689   6.061   0.878 -0.0204  0.3050  0.3047
29046W        W46570  12.279   9.888  13.823 -0.0452  0.3631 -0.0836
29047W        W46571  16.554   0.541   2.406 -0.2350  0.4319  0.1018
29048W        W46572  16.944   7.713  10.535  0.1625  0.2872  0.1777
29049W        W46573   1.153   5.024   4.512  0.0615 -0.2065 -0.0745
29050W        W46574   1.392   8.684  14.282  0.1327 -0.1040  0.0291
29051W        W46575   6.622   9.944  12.002 -0.1953 -0.2891 -0.1195
29052W        W46576  13.730   3.528  15.232 -0.0619  0.1583  0.1316
29053W        W46577   5.097  17.921   4.220  0.0246  0.2213 -0.0152
29054W        W46578  13.272  13.973  14.818  0.1601  0.2494 -0.0898
29055W        W46579  14.310   9.118  14.135  0.3417  0.0124  0.1206
29056W        W46580  10.164  16.915   3.062 -0.4789 -0.1415 -0.1399
29057W        W46581  16.261  14.814   0.268  0.2573  0.0459  0.1922
29058W        W46582  10.558  16.187   1.118  0.0863 -0.0752 -0.0836
29059W        W46583   3.035  12.610  15.541  0.1403 -0.1531  0.0056
29060W        W46584   3.936   2.658   0.335  0.1944  0.0420 -0.1623
29061W        W46585  11.418   3.271   2.602 -0.0941 -0.0600  0.1061
29062W        W46586  13.020   3.418   2.100  0.0017 -0.1573  0.2933
29063W        W46587  17.927   9.142   1.109  0.5230 -0.4581  0.1086
29064W        W46588  13.113  16.715   1.752  0.0991 -0.1226 -0.2805
29065W        W46589  17.249  18.165   2.138 -0.0217  0.4421  0.1036
29066W        W46590  15.552  15.750  11.078  0.2260  0.1710 -0.0889
29067W        W46591  10.610   5.845   3.988 -0.0110  0.2467  0.1113
29068W        W46592  16.635  11.817   4.396 -0.1483  0.0069  0.0630
29069W        W46593   4.645  10.882  14.196  0.0920 -0.0304 -0.2302
29070W        W46594  12.655  10.444   3.127 -0.0490  0.1318 -0.0008
29071W        W46595  13.537  11.187   3.929  0.0250 -0.0228 -0.4112
29072W        W46596  16.153  13.159   3.660 -0.1212 -0.0994 -0.1499
29073W        W46597   8.829  16.393   5.037  0.0370 -0.1069  0.0071
29074W        W46598  15.241  18.357   3.597 -0.0314  0.2319 -0.1398
29075W        W46599  10.403  14.882   4.813  0.3472 -0.1204 -0.0114
29076W        W46600   5.592   5.427  12.230  0.0609 -0.2603  0.2921
29077W        W46601   4.419   8.217   1.996  0.1534 -0.0094  0.0049
29078W        W46602  14.654   4.715  11.236 -0.1082  0.1012  0.0411
29079W        W46603  10.153   8.473  11.442 -0.0940 -0.3401  0.1040
29080W        W46604  11.901   9.903  15.101 -0.0368 -0.4158  0.2895
29081W        W46605   3.614  14.419  15.109  0.0080  0.0738  0.1992
29082W        W46606  13.053  11.611  11.627  0.3386 -0.0889  0.0223
29083W        W46607   3.374  13.227  14.365  0.1091  0.0485 -0.2623
29084W        W46608   7.803   8.077   1.293  0.0817  0.1128 -0.2161
29085W        W46609   3.114   0.421  11.854  0.4897  0.0776  0.2927
29086W        W46610   9.798  15.527  11.139  0.2337  0.0413  0.0843
29087W        W46611   6.912   3.287  11.535 -0.1403  0.3357 -0.4925
29088W        W46612  10.751  13.663  12.223 -0.2573  0.0772 -0.0860
29089W        W46613  10.628   0.718   4.370 -0.0454  0.0965  0.0714
29090W        W46614   2.729  12.847  13.149 -0.0031  0.2172  0.1517
29091W        W46615  12.225   5.286  11.103  0.0233  0.0760  0.1666
29092W        W46616   9.897   4.773  13.267 -0.1600 -0.1202 -0.1453
29093W        W46617   1.025  12.548  11.037 -0.1021 -0.0962 -0.0468
29094W        W46618   7.487   4.316   5.334  0.2455  0.0408  0.1169
29095W        W46619   8.626   4.511  12.688  0.0323  0.1694 -0.0327
29096W        W46620   4.243   7.312   2.885  0.1643  0.0848 -0.0745
29097W        W46621  13.404  11.015   1.188  0.2765 -0.0306 -0.0924
29098W        W46622  15.627   3.102   2.774  0.1914 -0.1134 -0.2417
29099W        W46623  18.058  11.951  11.065 -0.1470 -0.1908 -0.2367
29100W        W46624  13.147   8.665   3.966 -0.2875  0.0780  0.3032
29101W        W46625   7.901  13.544   0.226  0.2699  0.0350  0.2354
29102W        W46626  13.933   0.121   0.401  0.0015  0.0959  0.1582
29103W        W46627   9.190   0.345   2.088 -0.1880  0.4328 -0.4788
29104W        W46628  16.849   5.441  14.292 -0.0190  0.2465  0.2163
29105W        W46629  17.563  12.732  14.884  0.2300  0.0648 -0.4123
29106W        W46630  12.196  13.604   3.459 -0.1173  0.2690  0.1448
29107W        W46631   1.726   2.201   2.109 -0.1484  0.2755  0.0530
29108W        W46632  14.289  11.815  12.712  0.0261  0.0371 -0.1079
29109W        W46633  17.493   2.457   1.842  0.1229  0.0449  0.0679
29110W        W46634  12.002   4.809  10.314 -0.0333  0.4635  0.2553
29111W        W46635   2.183   1.738  11.016 -0.0218 -0.1244 -0.1727
29112W        W46636  17.370  12.490  11.930 -0.1310  0.1535 -0.0812
29113W        W46637  16.072  17.014  14.195 -0.2666  0.2069  0.0249
29114W        W46638  11.904   0.132  15.002 -0.1039  0.0760  0.1243
29115W        W46639   8.897   4.526   4.064  0.1258 -0.1903  0.1713
29116W        W46640   5.013   5.970  11.012  0.1853  0.2307  0.1355
29117W        W46641  11.885  18.370   2.511 -0.2181  0.0113  0.4865
29118W        W46642  15.154   5.923  12.604  0.1995  0.2183 -0.1476
29119W        W46643   8.282  14.001   3.595  0.0785 -0.1951 -0.0526
29120W        W46644   2.071   6.685   1.166 -0.0867  0.0180 -0.1461
29121W        W46645  15.815   9.189   1.292  0.3741  0.1394  0.0627
29122W        W46646   0.633  12.729  10.729 -0.2265  0.1155  0.0944
29123W        W46647  18.474  11.423   0.541  0.2879  0.1393  0.3226
29124W        W46648   7.867   6.224   0.995  0.2488 -0.0058  0.0450
29125W        W46649  15.486  16.617   3.344 -0.2355  0.3072 -0.1089
29126W        W46650   9.265   3.959  14.694  0.0954 -0.1468  0.1090
29127W        W46651   3.635   0.727   0.554 -0.1584  0.1555 -0.1848
29128W        W46652   0.303  17.627  15.630  0.0339 -0.1824 -0.0290
29129W        W46653   9.593   7.801   3.395  0.2911 -0.0609 -0.3799
29130W        W46654   7.695  16.325  13.262  0.1955  0.0073  0.1589
29131W        W46655   0.567   5.431   0.081 -0.2658  0.0040  0.0704
29132W        W46656   4.091  13.230   0.687  0.0698  0.1596  0.0613
29133W        W46657  15.087   6.069   5.098 -0.1468 -0.0818  0.0837
29134W        W46658   7.690  12.822  12.722  0.4059 -0.5612  0.1867
29135W        W46659  17.416   1.856   1.008 -0.4071  0.0132  0.0902
29136W        W46660   3.653  16.316   1.291 -0.0967  0.0162 -0.2493
29137W        W46661   1.085   5.894   1.807 -0.1945 -0.1815 -0.1370
29138W        W46662   2.109  18.478   0.945 -0.1308 -0.3246 -0.1409
29139W        W46663   2.881  15.262  10.284 -0.0140  0.2405  0.0128
29140W        W46664   5.226  10.749  14.146 -0.0757  0.0970  0.2402
29141W        W46665  16.941   7.282  13.777  0.4234  0.1971 -0.1166
29142W        W46666  10.937  13.668  12.707  0.1755  0.1038  0.2444
29143W        W46667   0.106  14.081   4.027 -0.0631 -0.0321 -0.2408
29144W        W46668  17.073  14.787   3.079  0.1573 -0.4183  0.1307
29145W        W46669   1.174   9.183  15.338  0.0250  0.0633 -0.0692
29146W        W46670  16.759  14.832  14.183  0.0346 -0.2100  0.0418
29147W        W46671   8.102  12.971  12.485 -0.1073  0.1757 -0.0515
29148W        W46672   9.134   9.214  12.228 -0.4235 -0.2015 -0.0734
29149W        W46673  10.692   3.689   4.120 -0.0507  0.1617 -0.0656
29150W        W46674   3.941   2.154   4.394  0.1807 -0.0307  0.1869
29151W        W46675  11.885   1.872  15.380  0.1794 -0.2669 -0.1125
29152W        W46676   3.785  16.245   0.201  0.0285 -0.1559 -0.1938
29153W        W46677   7.985   4.183   5.211  0.0598  0.2884  0.0810
29154W        W46678   4.189   2.345   3.969  0.3500 -0.1035 -0.4004
29155W        W46679  16.128   3.331   3.024  0.1465  0.1428  0.1741
29156W        W46680   0.477   6.048  14.094  0.1334 -0.2177  0.2473
29157W        W46681   6.342  10.859  11.677  0.1380 -0.2072  0.2903
29158W        W46682   4.654   9.548   2.651 -0.0320  0.1742 -0.1747
29159W        W46683  12.218  15.489   1.049 -0.3248 -0.2129 -0.3298
29160W        W46684   1.825   0.359   1.102  0.1863 -0.1451 -0.0554
29161W        W46685   9.891  10.675  14.750 -0.0614  0.1772 -0.2166
29162W        W46686   0.065   3.191  14.713 -0.1771  0.0256 -0.1320
29163W        W46687  17.611   1.988  11.686 -0.0565  0.1052  0.0362
29164W        W46688  13.595   6.316   2.658 -0.0552  0.0852 -0.0647
29165W        W46689  11.789  10.557   2.702 -0.0354 -0.3065 -0.3045
29166W        W46690   2.953  16.148   0.812  0.1052  0.1222 -0.0378
29167W        W46691  16.551  12.745   0.583 -0.0282  0.1580 -0.3474
29168W        W46692   9.121  18.471   1.022  0.3528 -0.2872  0.1303
29169W        W46693   7.961   6.688  11.757  0.2591 -0.0890  0.0848
29170W        W46694  18.309   4.039  10.918 -0.1172 -0.0232 -0.2547
29171W        W46695  12.116   8.332  11.033 -0.1537 -0.0922  0.2759
29172W        W46696  15.896  17.909  13.123  0.1931  0.1271 -0.0389
29173W        W46697   6.163   5.165   3.133 -0.2406 -0.2830 -0.3897
29174W        W46698  16.435   3.805  13.390 -0.3988 -0.0391  0.3871
29175W        W46699  13.337   0.154   2.639  0.0626  0.0493  0.0257
29176W        W46700  16.412  14.771  13.140  0.2867 -0.0190 -0.2646
29177W        W46701   1.492  15.107  14.037  0.0665  0.0198  0.0543
29178W        W46702   3.575  11.715   2.908  0.1811 -0.0119  0.0038
29179W        W46703  11.326   7.360   1.025  0.1029  0.2344 -0.0369
29180W        W46704  16.420  13.191   0.829  0.1103 -0.0917 -0.1986
29181W        W46705  16.234   1.522  13.842 -0.4191 -0.0908  0.0908
29182W        W46706  14.865   5.576  12.859 -0.0847  0.1119 -0.1111
29183W        W46707  11.115  16.664   4.637 -0.0977  0.1170  0.0012
29184W        W46708  12.861  14.427   0.718 -0.1179  0.0262 -0.1790
29185W        W46709  15.306   2.722   4.735  0.1920 -0.0573  0.3514
29186W        W46710   0.627  12.596   5.010  0.2165  0.1600  0.4818
29187W        W46711  16.899   0.421   3.812  0.2917 -0.1288  0.3259
29188W        W46712   2.212  10.446  15.701 -0.0229  0.3095 -0.0825
29189W        W46713   0.304   7.228   3.101 -0.0202  0.2508  0.1478
29190W        W46714  10.130   0.102  12.380  0.0750  0.0116 -0.0607
29191W        W46715   9.470   8.251   0.442 -0.1305  0.3641 -0.0015
29192W        W46716  17.178  12.467  10.660 -0.1859  0.3930 -0.1442
29193W        W46717   2.950  13.534   1.408 -0.0686 -0.1345 -0.0239
29194W        W46718  11.962   7.216  12.521 -0.4012  0.1193  0.1550
29195W        W46719  15.871  17.390   2.410  0.1454  0.0902 -0.0345
29196W        W46720   9.974   5.574   0.449  0.0870  0.1407  0.1041
29197W        W46721   0.224   2.627   2.267 -0.2211  0.3044 -0.2154
29198W        W46722   3.989   0.267  14.174 -0.1083  0.0012 -0.1508
29199W        W46723   6.335  15.099  13.925 -0.2350  0.2271  0.2504
29200W        W46724   7.193   0.328  12.542  0.0380  0.2701 -0.1230
29201W        W46725  14.435   6.339   3.879  0.3359 -0.3191  0.3696
29202W        W46726  18.009   7.075   4.184 -0.1076  0.1770 -0.2155
29203W        W46727   1.341  11.105  15.443 -0.0516 -0.1086  0.0364
29204W        W46728   4.271   2.131  12.391 -0.1472 -0.1483 -0.0699
29205W        W46729   4.011   8.842   3.676  0.1160  0.0162  0.1526
29206W        W46730   5.364  17.615   3.936 -0.0187  0.2508 -0.1084
29207W        W46731  17.498   7.342  14.163 -0.2662  0.0452  0.2030
29208W        W46732  14.950  16.140  11.249  0.0177  0.0086 -0.1363
29209W        W46733   0.592  17.360   0.908 -0.2440  0.0166 -0.2752
29210W        W46734   6.173   4.713   2.358 -0.0983 -0.1121 -0.3630
29211W        W46735   5.155   3.977   5.369  0.1094 -0.1694 -0.0000
29212W        W46736   5.908   6.921   3.733 -0.1428  0.0740  0.2577
29213W        W46737   0.980   3.523  11.061 -0.1014 -0.1442 -0.0468
29214W        W46738   1.223  12.681  11.486 -0.2734 -0.2015  0.4135
29215W        W46739   6.329   1.925  14.419  0.0803 -0.0189 -0.0156
29216W        W46740   8.298  10.148  14.598  0.0709  0.0700 -0.1217
29217W        W46741   9.083  17.428  13.690 -0.3549  0.3295  0.1944
29218W        W46742   4.214   4.198   4.351  0.0992  0.0198 -0.2380
29219W        W46743  16.885   8.535  11.113  0.0111  0.2008  0.0932
29220W        W46744  17.270   7.730   3.557 -0.0248  0.0213 -0.2217
29221W        W46745  15.955   2.864   4.197  0.0617  0.0010  0.1178
29222W        W46746  14.738   2.759  13.931  0.4158  0.2108 -0.3310
29223W        W46747   0.424  16.953   5.296 -0.1377  0.0470  0.1459
29224W        W46748  13.233  16.109   3.639 -0.1851  0.0610 -0.0510
29225W        W46749   9.400  15.618   4.539 -0.2784 -0.4481  0.0730
29226W        W46750  18.152  15.213  11.396 -0.0947 -0.0522  0.2034
29227W        W46751   4.701   9.552   4.750  0.0941  0.1017 -0.1514
29228W        W46752   2.285  12.870  15.484  0.0864 -0.1566  0.1875
29229W        W46753  12.084   7.860  15.004  0.0116 -0.0762 -0.3229
29230W        W46754  11.257   4.675   1.697 -0.2231 -0.1328 -0.3026
29231W        W46755   5.503  12.354   0.477 -0.1249  0.1073 -0.0976
29232W        W46756   1.558  17.982   2.011 -0.0420  0.0454 -0.0948
29233W        W46757  15.442   0.229   4.312  0.0023 -0.0769 -0.0608
29234W        W46758  13.848   5.048   3.809 -0.1055  0.1120 -0.1236
29235W        W46759   9.673  11.466   4.136 -0.3867 -0.1820 -0.0226
29236W        W46760   1.615   7.711   0.650  0.1489 -0.2593  0.1578
29237W        W46761  12.845  16.572  12.471 -0.1847  0.4582  0.1692
29238W        W46762  10.895   1.638   3.931 -0.0584  0.0174  0.1171
29239W        W46763   5.483   4.309   1.758 -0.0435 -0.0856 -0.1653
29240W        W46764  18.185   4.605  13.220  0.1082  0.0590 -0.0278
29241W        W46765   9.770   2.300  13.139  0.1062  0.0086  0.0508
29242W        W46766  17.522  14.147  10.910  0.0315  0.3418 -0.1175
29243W        W46767  13.545  11.989   1.502 -0.2416  0.0872  0.0600
29244W        W46768   3.827   6.160   0.468 -0.0191 -0.1247  0.0198
29245W        W46769  17.485   3.718  14.696  0.1766 -0.0342  0.0116
29246W        W46770  11.544   9.306   9.942 -0.2704 -0.3072 -0.0046
29247W        W46771   6.187   8.984   1.603  0.0449 -0.0258  0.1064
29248W        W46772  13.383  11.837  13.954  0.0456 -0.1073 -0.0999
29249W        W46773   7.206   4.317   3.623  0.2501 -0.0636 -0.0216
29250W        W46774   8.897  12.965  11.783  0.2611 -0.2924  0.0555
29251W        W46775  17.700  14.590  11.017 -0.1139  0.1163  0.0906
29252W        W46776  15.574  12.722   4.145  0.0230 -0.1882  0.1935
29253W        W46777   6.939   8.506  12.325  0.0924  0.0706 -0.1100
29254W        W46778  12.694   4.524  15.338 -0.1110  0.1498 -0.0773
29255W        W46779  14.133   6.185  14.751 -0.2017  0.1972  0.1177
29256W        W46780   2.266   8.821  14.467  0.0699  0.0676  0.2339
29257W        W46781  10.676   9.483   1.572  0.0510  0.2206 -0.1591
29258W        W46782  15.374  14.368  14.505  0.2265  0.1329 -0.0059
29259W        W46783  15.934   6.127  13.487  0.0364 -0.0274  0.1075
29260W        W46784  11.478  11.141  14.411 -0.3931 -0.0056  0.1214
29261W        W46785  15.805   3.253   3.804 -0.3807 -0.1644 -0.1642
29262W        W46786   3.420  16.181   5.498  0.3130  0.0150  0.0722
29263W        W46787   2.929   7.961  13.935 -0.1526 -0.0025  0.0329
29264W        W46788  11.931   7.016  11.455 -0.2255 -0.0916 -0.0216
29265W        W46789  17.116  12.008   5.532 -0.1270 -0.0000 -0.0134
29266W        W46790   7.369  13.068  13.095  0.1951  0.0714 -0.1248
29267W        W46791   4.869   4.104  13.683 -0.1187  0.1271 -0.0558
29268W        W46792  18.279   3.994  14.117 -0.1432  0.2626 -0.1531
29269W        W46793   3.706   9.557  11.358 -0.0295  0.1133  0.1127
29270W        W46794   3.995  10.075   1.539 -0.3376 -0.0844  0.1336
29271W        W46795   3.972   7.929   0.128 -0.1760  0.0301 -0.0354
29272W        W46796   9.145   7.225  14.712  0.2641 -0.1120 -0.1922
29273W        W46797  14.440  17.724  13.320  0.0964 -0.0963  0.1032
29274W        W46798   9.221  10.896  15.443  0.1146  0.1704  0.2103
29275W        W46799  16.324  17.072  11.841 -0.0188 -0.1323 -0.3486
29276W        W46800  12.350   7.526  15.565  0.0090  0.0509  0.0293
29277W        W46801  16.681   4.288   1.357 -0.4056 -0.2170 -0.1676
29278W        W46802  15.878   7.805  11.523  0.1174  0.2128 -0.5108
29279W        W46803  14.113   7.597   2.216 -0.0028 -0.1407 -0.1805
29280W        W46804   3.612   3.907   0.648 -0.0721 -0.1317 -0.1446
29281W        W46805  15.032  11.970   9.845 -0.1158 -0.1579 -0.1225
29282W        W46806   3.243  11.584   2.441  0.2075  0.0869  0.0767
29283W        W46807   0.155  11.504   3.208  0.1019  0.2146  0.1328
29284W        W46808  13.562  14.386   5.504 -0.1530 -0.3917  0.0843
29285W        W46809   4.993  13.944   2.540  0.0546  0.2131  0.1468
29286W        W46810   0.252   4.377  15.500  0.0224 -0.1828  0.0046
29287W        W46811  12.024  16.519  12.297 -0.2000  0.1944  0.0224
29288W        W46812   3.970  10.162   4.253 -0.0683 -0.0256 -0.1328
29289W        W46813   7.479   5.420  11.096  0.0849 -0.3645  0.1126
29290W        W46814  10.462   3.322   4.443 -0.0581 -0.0727 -0.0984
29291W        W46815  10.651   1.861   1.132 -0.0018  0.1389  0.2018
29292W        W46816  14.119  16.380   2.574 -0.0148  0.3483 -0.0693
29293W        W46817   4.192  13.588   1.803  0.1790 -0.4745 -0.0118
29294W        W46818  16.734  16.858   0.016  0.3685  0.2485 -0.0272
29295W        W46819   5.335   6.995  13.107  0.0867  0.1184  0.2197
29296W        W46820  13.213  11.627   4.352 -0.0522  0.0257  0.1783
29297W        W46821   0.543  16.788   1.766  0.3132  0.2488  0.0439
29298W        W46822  15.262  10.245  10.874  0.0200  0.0214  0.1317
29299W        W46823  17.689   7.270   4.706  0.2281  0.1957  0.0134
29300W        W46824   8.683   4.420  13.561  0.2090 -0.0210  0.0412
29301W        W46825   9.826  16.465  13.436 -0.0599 -0.1869 -0.3617
29302W        W46826  17.041   5.185   0.768 -0.1063 -0.2884 -0.0195
29303W        W46827   5.668   7.563  12.372 -0.1385 -0.2163 -0.2342
29304W        W46828   0.833   4.153   3.378 -0.0297 -0.0575  0.1500
29305W        W46829  17.907  17.883  12.398 -0.0801 -0.2135  0.0342
29306W        W46830  18.421   4.185   9.871 -0.2926 -0.0496 -0.2339
29307W        W46831   5.976  11.187  13.923 -0.0400  0.0724  0.0557
29308W        W46832   5.920   0.336  14.961 -0.1372 -0.0124  0.0955
29309W        W46833   3.024  14.858   5.168  0.2905 -0.0591 -0.2129
29310W        W46834  10.112  10.190  14.654 -0.0685  0.0884  0.1138
29311W        W46835  17.091   2.681   2.576  0.1016  0.1925 -0.0496
29312W        W46836   6.751   5.988  11.869 -0.0357  0.2471  0.0911
29313W        W46837  13.377   5.507   0.046 -0.2140 -0.2584 -0.0995
29314W        W46838  12.115   0.195  11.676 -0.2685  0.1306  0.0120
29315W        W46839   4.641  15.572  11.170 -0.1413  0.3529 -0.0282
29316W        W46840   0.784  11.143   4.404  0.0649 -0.0254 -0.3922
29317W        W46841   3.887   6.601   4.290  0.0802 -0.0740 -0.0333
29318W        W46842  10.343   6.806  12.756  0.2062  0.0605 -0.0807
29319W        W46843  15.897  13.343   5.592 -0.1469  0.1553 -0.1461
29320W        W46844   9.363   0.190   1.407  0.2578  0.1359 -0.2765
29321W        W46845  13.208   2.990  11.150  0.2073  0.1422 -0.1450
29322W        W46846   9.047  16.542   0.656  0.0713 -0.0690  0.1518
29323W        W46847  14.121  12.066  11.394  0.1574 -0.1647 -0.2902
29324W        W46848   8.698  12.351  15.083 -0.0217 -0.3223  0.1278
29325W        W46849   3.017  10.784  13.089 -0.0805  0.1219 -0.0252
29326W        W46850  18.471  16.826   1.722 -0.3544 -0.1505 -0.2229
29327W        W46851   7.085  14.254   4.381  0.1053  0.0640 -0.2025
29328W        W46852  11.769  17.723   3.306 -0.0379  0.3510 -0.2099
29329W        W46853   9.630  11.566   3.568  0.1539  0.0665  0.1491
29330W        W46854   6.858  15.538  12.066 -0.1063  0.1570 -0.0679
29331W        W46855  15.783   7.000  11.201 -0.0674  0.0080 -0.1567
29332W        W46856  12.604   9.544  14.861  0.1632  0.2910  0.1170
29333W        W46857   2.944  16.227  11.627 -0.1746  0.1162  0.1799
29334W        W46858  11.260   5.837   1.930  0.0583 -0.0791  0.0217
29335W        W46859  12.634   1.374   4.032 -0.3083 -0.2062 -0.2380
29336W        W46860  13.132   5.487   0.786 -0.0590 -0.1823  0.3136
29337W        W46861  15.305  13.271  13.097 -0.0915  0.1553 -0.1395
29338W        W46862  17.146  17.668  15.097 -0.0320  0.0947  0.3325
29339W        W46863  14.353   7.864   3.180  0.1221  0.1731 -0.1749
29340W        W46864   7.386  12.194  10.013  0.0481 -0.2872  0.0784
29341W        W46865   6.724   8.229  11.016 -0.2386  0.0466 -0.1815
29342W        W46866   8.435   3.152   0.785 -0.1347 -0.0807  0.0197
29343W        W46867   3.837   1.343  13.421  0.1241 -0.0283 -0.1025
29344W        W46868   8.107  16.109   3.627 -0.0364 -0.0177 -0.0923
29345W        W46869   4.837  16.068  13.392  0.0846  0.0680  0.2148
29346W        W46870   4.078  13.558  14.875  0.2296 -0.0097  0.2202
29347W        W46871   3.895   4.337  12.383 -0.1823  0.1556 -0.0658
29348W        W46872   5.269   4.984  14.813 -0.0448 -0.0237 -0.1217
29349W        W46873  14.211   7.772  12.060 -0.2281  0.1140  0.1039
29350W        W46874  11.921  12.625  14.880 -0.3501 -0.0375  0.1223
29351W        W46875   0.095   0.270   2.531 -0.2409  0.1529 -0.1467
29352W        W46876   2.451  18.474   4.948  0.3250  0.0176  0.1140
29353W        W46877  16.713   2.051   4.045  0.1440 -0.0206  0.1324
29354W        W46878   3.858  11.245   3.576  0.0154 -0.2247 -0.0450
29355W        W46879  15.920   0.152   0.024  0.1190  0.1344 -0.0854
29356W        W46880  16.196   2.904   2.749  0.1883 -0.0825  0.0797
29357W        W46881  10.710   0.632   4.864  0.0835 -0.1648 -0.0332
29358W        W46882  11.775  10.747  12.459  0.2099  0.0087 -0.2265
29359W        W46883   7.178  11.077  13.312  0.3294  0.1347  0.3141
29360W        W46884  10.100  16.210  11.920 -0.0521  0.0778  0.2617
29361W        W46885   8.328   2.613  12.730  0.0276 -0.0732  0.1364
29362W        W46886   6.712  14.669  13.485  0.0905 -0.0629 -0.0556
29363W        W46887   5.392  10.667  11.176  0.0211 -0.0380  0.1010
29364W        W46888  18.220   8.429  15.379 -0.0418 -0.0754 -0.2603
29365W        W46889  17.812  11.783  14.638 -0.1866 -0.0643 -0.0058
29366W        W46890   1.693  17.619   0.721 -0.1303 -0.1890 -0.1171
29367W        W46891  15.190   9.130  12.882 -0.0042  0.1855  0.3704
29368W        W46892  12.827  17.627   4.682  0.1347 -0.0976  0.2450
29369W        W46893   4.787   1.015  15.624 -0.0461 -0.0585  0.2050
29370W        W46894   5.093  10.471   4.154 -0.1324 -0.1312 -0.1000
29371W        W46895   1.555   9.166  12.806  0.0432 -0.1694 -0.1885
29372W        W46896  10.255   3.298   0.140 -0.0647 -0.0521 -0.2459
29373W        W46897   7.708   8.832   2.808  0.0173  0.2618 -0.1750
29374W        W46898   5.621  18.209  11.369 -0.1752  0.0001 -0.3252
29375W        W46899  10.943  18.317  14.704  0.0026 -0.0933 -0.0092
29376W        W46900  11.747  15.616  15.493 -0.0233 -0.0230  0.1803
29377W        W46901   9.130   3.571  11.252 -0.1840 -0.0058 -0.1296
29378W        W46902  10.321  16.686  15.317 -0.0458 -0.0350 -0.4365
29379W        W46903  13.749   2.841  10.941 -0.1360 -0.1583  0.1813
29380W        W46904   2.762  10.491  15.573 -0.1866 -0.1238  0.0635
29381W        W46905   2.091   6.403  15.639 -0.3198  0.2922 -0.0825
29382W        W46906   2.927   7.620  13.556  0.1320 -0.3111  0.3239
29383W        W46907  15.098   2.847   1.231 -0.1721  0.0685  0.0786
29384W        W46908   4.369   2.205  14.572 -0.1185  0.3146 -0.0375
29385W        W46909   1.326   2.378  14.819 -0.0931  0.3313 -0.1469
29386W        W46910  13.158  12.873  15.401 -0.1651  0.0687  0.0580
29387W        W46911   9.444   0.152  13.349 -0.0682 -0.0694 -0.0813
29388W        W46912   7.799  12.876  13.261  0.2230  0.1219 -0.1896
29389W        W46913  10.264   3.008  12.209  0.0949  0.3947  0.0650
29390W        W46914   4.985  16.288   2.606  0.0797  0.0914 -0.1563
29391W        W46915   1.646  14.808  13.725 -0.0090 -0.3796 -0.0998
29392W        W46916  13.465  15.774   2.196  0.0822  0.0287  0.2773
29393W        W46917  17.493  11.737   3.879  0.2417  0.1667 -0.2953
29394W        W46918   4.804   0.835   3.989  0.0868 -0.1623  0.2769
29395W        W46919  17.571   4.219   5.676  0.0694  0.1054  0.1866
29396W        W46920   4.550  18.197  11.676 -0.0205 -0.1000 -0.2576
29397W        W46921   0.345  10.062   1.127  0.2153  0.0936  0.1485
29398W        W46922   4.067   6.395   3.311 -0.0756 -0.0417 -0.1037
29399W        W46923   3.942  12.109  11.654 -0.0992  0.1195  0.0218
29400W        W46924  13.289   6.120  13.802 -0.0798  0.3742 -0.2943
29401W        W46925   1.867   3.907   0.073  0.2086 -0.2080  0.3597
29402W        W46926  13.113   6.804   1.919  0.0250  0.0161  0.1284
29403W        W46927   1.508  10.498  14.786  0.0665 -0.1506  0.0983
29404W        W46928  12.845   0.289   2.703 -0.0525 -0.2423  0.3108
29405W        W46929  13.086   4.994   2.330  0.0076  0.0131  0.1471
29406W        W46930  13.210   5.782  12.758 -0.1895  0.1039 -0.1284
29407W        W46931  14.232   5.218   5.249  0.1295  0.3152  0.1894
29408W        W46932  11.374   7.575   4.367  0.1350  0.1739 -0.1434
29409W        W46933   5.731  18.419  12.791  0.0174 -0.0620 -0.1586
29410W        W46934  10.981  10.140  14.390 -0.0597  0.4754  0.0346
29411W        W46935  18.097   9.865  12.543  0.2069 -0.0605 -0.1181
29412W        W46936   4.699   1.612   1.977 -0.0352 -0.0455  0.3071
29413W        W46937   6.454   6.212  10.666 -0.0105 -0.0194 -0.2082
29414W        W46938   8.264  10.562   2.232 -0.2268 -0.1987 -0.1468
29415W        W46939  15.531  13.973  14.261 -0.0942  0.1096  0.0008
29416W        W46940  10.859   9.969   1.549 -0.0782 -0.0422  0.1362
29417W        W46941   7.420   7.916   4.884 -0.0548 -0.0817 -0.1376
29418W        W46942  13.124  11.193   4.154  0.4996  0.0864  0.1510
29419W        W46943   9.913   7.874  12.618  0.4506  0.1861  0.0571
29420W        W46944  16.491  18.367   0.447 -0.1428  0.0841 -0.0447
29421W        W46945   2.681  17.575   0.479  0.3921  0.0389 -0.1966
29422W        W46946   1.245   1.264   2.576  0.3973  0.1474  0.3108
29423W        W46947  17.698  14.929  13.163  0.1487 -0.2300 -0.0736
29424W        W46948   6.248  15.346  10.634 -0.0031 -0.2790  0.1590
29425W        W46949  11.572  10.779   1.264 -0.1723  0.1454 -0.2134
29426W        W46950  12.764  10.267  10.796  0.0935  0.2399 -0.1582
29427W        W46951   0.465  13.657  13.130  0.0828 -0.2191 -0.0090
29428W        W46952   0.998  11.704   0.864  0.0002  0.0294 -0.0547
29429W        W46953   4.336  17.438  15.211  0.0850 -0.0540  0.3945
29430W        W46954   5.410  16.154   0.700  0.2806 -0.2330 -0.1810
29431W        W46955  18.468  15.576   4.021 -0.0786  0.1265 -0.1450
29432W        W46956   9.410   9.634  11.284 -0.1766 -0.1684  0.1893
29433W        W46957  12.806  16.946  10.560 -0.1110  0.1370  0.1181
29434W        W46958  11.178   7.741   0.715 -0.4004 -0.2053  0.0287
29435W        W46959   9.205  18.269   0.141 -0.1057 -0.0513  0.2092
29436W        W46960   0.274  12.073  15.619  0.1648 -0.0003 -0.1148
29437W        W46961   3.215   6.276  14.414  0.0363  0.1543 -0.2953
29438W        W46962   4.046  16.585   4.082  0.2254  0.2769 -0.2033
29439W        W46963  13.965   9.054  14.543 -0.1478 -0.1770 -0.0424
29440W        W46964   4.118  16.125   2.224 -0.0647  0.0790  0.1320
29441W        W46965  14.627   1.742  10.770 -0.0285  0.1427 -0.0216
29442W        W46966   6.487   2.326  13.620 -0.1617  0.0697 -0.0320
29443W        W46967   8.951  17.525   2.885  0.0915  0.1347  0.1731
29444W        W46968  15.498  13.975   2.435 -0.1575 -0.1020  0.3602
29445W        W46969  15.247  10.495   2.983 -0.0449 -0.2280 -0.2706
29446W        W46970   6.708  12.161  11.424 -0.0742 -0.0232 -0.2802
29447W        W46971   2.087   8.425   2.839 -0.3706  0.1123 -0.1747
29448W        W46972  15.852   8.006  13.142  0.2210  0.2254  0.1198
29449W        W46973   4.870   5.350   4.548  0.1914 -0.1556  0.1092
29450W        W46974   6.098   1.380   2.489  0.1531  0.2645  0.0014
29451W        W46975   8.953  15.286   0.628  0.0538 -0.0218  0.1491
29452W        W46976  16.651  12.810  14.794 -0.0389 -0.0862  0.0607
29453W        W46977   9.438  17.061  14.683 -0.3891 -0.0293  0.3119
29454W        W46978  14.388  14.600   1.751 -0.2794  0.2382 -0.0737
29455W        W46979   1.527   2.327  11.608  0.0629 -0.7588 -0.0120
29456W        W46980   1.012  15.846   6.294 -0.0190  0.2345 -0.2081
29457W        W46981   9.096  14.534  14.296  0.0922  0.1672 -0.1920
29458W        W46982   5.598   3.602  12.747 -0.0957  0.0649  0.2863
29459W        W46983  11.360   8.245  13.662  0.1015  0.0930 -0.0739
29460W        W46984  14.576   0.505   4.787  0.3256 -0.1147 -0.1740
29461W        W46985  10.586   1.226   1.975 -0.0533 -0.1638  0.0894
29462W        W46986  16.087   9.160   5.592 -0.0537  0.1310  0.0304
29463W        W46987  15.312   5.314  11.986 -0.1597  0.1060 -0.0762
29464W        W46988  13.861  11.832  11.833 -0.1523 -0.0656 -0.2321
29465W        W46989  10.004  14.542  12.135 -0.0109  0.0336  0.1061
29466W        W46990   6.690   1.694  13.390  0.1118 -0.2700 -0.1914
29467W        W46991  13.543   4.159  12.799  0.0090 -0.2409  0.0078
29468W        W46992   2.959   4.594  12.187 -0.0646 -0.1399 -0.1078
29469W        W46993   6.629  14.580  12.185  0.0357  0.2067 -0.0403
29470W        W46994  12.465  13.547  15.179  0.1299  0.1208 -0.2540
29471W        W46995   5.821  17.235  11.022 -0.3048  0.1753 -0.1791
29472W        W46996  16.310   0.643  14.651  0.0291 -0.2245  0.2718
29473W        W46997  14.277  10.046  11.649 -0.0057 -0.2632  0.1049
29474W        W46998  15.861  17.517  12.733  0.0059 -0.1102  0.0659
29475W        W46999  12.183  10.955   3.598 -0.2247 -0.0277 -0.1402
29476W        W47000  11.261  10.410   1.057 -0.3370  0.2741 -0.0999
29477W        W47001   2.338  16.721   0.101  0.1506  0.0145 -0.0308
29478W        W47002   4.772  12.301   4.420 -0.0289  0.0022  0.1222
29479W        W47003  15.627   7.440   3.142 -0.0880  0.1368 -0.0988
29480W        W47004  17.224  16.412   0.381 -0.1148 -0.2155 -0.1138
29481W        W47005  10.908  15.500  13.033 -0.2816 -0.4861 -0.0827
29482W        W47006   0.836   0.558   3.281  0.0438  0.1261 -0.0071
29483W        W47007  16.131  10.058  14.024 -0.0579 -0.0203  0.2839
29484W        W47008  14.120  13.215  13.074  0.1070 -0.1867 -0.0146
29485W        W47009  12.358  16.779  12.622  0.0146 -0.1723  0.1712
29486W        W47010  15.601   0.825  15.023  0.1998  0.0866  0.0317
29487W        W47011   8.358   5.435   4.902 -0.0684 -0.1250 -0.2654
29488W        W47012  18.099  12.049  12.424  0.0267  0.0978  0.3526
29489W        W47013   8.065   0.705   3.319  0.1022 -0.1385  0.0477
29490W        W47014   6.533  18.230   1.698 -0.1526 -0.2076 -0.2627
29491W        W47015  18.196   9.554  14.504 -0.0362  0.2062  0.0068
29492W        W47016  17.128   1.911  11.969 -0.3499  0.0701  0.1854
29493W        W47017  17.101   1.688   2.394 -0.1864  0.1711  0.0127
29494W        W47018   2.679   6.386   4.267  0.0975  0.0554  0.2908
29495W        W47019  13.929   3.203   0.323  0.2592 -0.2196 -0.0645
29496W        W47020  16.555   9.021   1.856  0.0248  0.3863  0.0230
29497W        W47021  17.637   2.349   0.476 -0.0230  0.3341  0.0017
29498W        W47022   6.572   4.738   2.125  0.0986 -0.2648  0.1168
29499W        W47023   9.221   2.667   1.044  0.0871 -0.0683 -0.3449
29500W        W47024  16.530  18.042   4.762 -0.2113 -0.4096  0.1005
29501W        W47025   9.167   4.618  13.525 -0.2269  0.1268  0.0947
29502W        W47026  13.197   7.090  15.017 -0.0372  0.1785 -0.0538
29503W        W47027  17.769   8.926  13.300 -0.0044 -0.0520 -0.4696
29504W        W47028  16.697   6.663  10.968  0.1884  0.1298 -0.1741
29505W        W47029   2.031   4.340   3.911 -0.0547 -0.3133  0.2410
29506W        W47030  17.571   4.179  14.849  0.0309  0.2460  0.3362
29507W        W47031   1.289   8.499   0.649  0.0265  0.1588 -0.1322
29508W        W47032  15.746  11.933   2.277 -0.1189  0.1805 -0.1186
29509W        W47033   2.045  11.935   3.801 -0.2256  0.1571  0.1265
29510W        W47034  17.127   1.675  12.577 -0.1547  0.0593 -0.0999
29511W        W47035   7.929  11.280  14.655  0.0144 -0.1121 -0.0956
29512W        W47036   1.887   1.420   4.800 -0.1291  0.2711 -0.0233
29513W        W47037  12.739   5.626   3.008  0.4324 -0.0416 -0.1907
29514W        W47038   9.997   6.063  10.819 -0.4337  0.0079  0.3533
29515W        W47039  16.331  17.316   0.924  0.3157 -0.0014 -0.0915
29516W        W47040  14.262   8.342   3.363  0.2237  0.3772 -0.0475
29517W        W47041   2.226  14.009   2.674  0.1634  0.2576 -0.2944
29518W        W47042   1.747  11.317   0.933  0.1862 -0.0252 -0.2070
29519W        W47043  17.019   9.142   2.252 -0.0294 -0.1887 -0.0155
29520W        W47044   3.573   8.754  11.191 -0.4158  0.0876 -0.0367
29521W        W47045  10.978   9.499  11.058  0.1518 -0.1086  0.0964
29522W        W47046  10.540  18.246   3.973  0.0533 -0.1816  0.1035
29523W        W47047  16.241   6.439  14.300  0.0256 -0.0038  0.1780
29524W        W47048   8.411   5.469   3.362  0.0449  0.1383  0.0218
29525W        W47049   1.041  17.783  10.952  0.0774 -0.0153  0.4268
29526W        W47050   0.708   4.692  10.726 -0.1063  0.0996  0.0228
29527W        W47051  17.470   4.434  15.660 -0.0070 -0.0981 -0.2690
29528W        W47052  16.437  10.341   1.064  0.1562 -0.2237  0.3105
29529W        W47053   5.937   1.475   3.322 -0.0550  0.1841  0.3252
29530W        W47054  12.179   4.805  10.865 -0.2216  0.2382  0.3349
29531W        W47055   9.456  15.711   3.280  0.2827 -0.1177 -0.0490
29532W        W47056   0.968   1.181  13.078  0.3344 -0.0291 -0.1446
29533W        W47057  13.857  18.379   2.534 -0.4169 -0.0244 -0.0204
29534W        W47058   6.454   3.284  13.800 -0.2755 -0.0861  0.1337
29535W        W47059   7.194  17.774  13.180 -0.2082 -0.1999  0.3003
29536W        W47060   4.091   7.065  14.744  0.0356 -0.1872  0.0118
29537W        W47061   5.446   0.864   2.674 -0.1593  0.2034  0.0595
29538W        W47062   8.512  13.273   1.410  0.2491 -0.0878  0.0404
29539W        W47063  17.609   4.110  11.542  0.1744 -0.0503 -0.0207
29540W        W47064   5.213  10.122  13.480 -0.2973 -0.0192 -0.0123
29541W        W47065   9.741  17.217   3.648  0.0017  0.4734  0.4658
29542W        W47066  11.598   8.409   1.839 -0.1783  0.0376  0.0929
29543W        W47067   9.128   6.880   2.224 -0.2380  0.1475  0.2415
29544W        W47068   1.840  14.816   2.349 -0.4226  0.1021  0.0045
29545W        W47069   9.902   3.941   5.529 -0.2018  0.1808  0.2948
29546W        W47070  13.972   3.709  12.176  0.1256  0.1619  0.1016
29547W        W47071   6.918  11.738   4.896  0.1722 -0.0619  0.0470
29548W        W47072  15.357   5.286   1.796  0.0960  0.1926  0.0462
29549W        W47073  11.504  18.307  15.095  0.2481 -0.1747  0.1964
29550W        W47074   7.888  14.572   4.503 -0.0367  0.1699  0.3217
29551W        W47075  10.269   5.342  15.660 -0.0837 -0.2014  0.0852
29552W        W47076   5.461   9.423  15.034  0.0522 -0.0808  0.1198
29553W        W47077   1.172   7.579   1.752 -0.1505 -0.3922 -0.0695
29554W        W47078   4.522  11.300  13.067 -0.0247 -0.0156  0.0155
29555W        W47079  16.707   5.812  13.108  0.2023 -0.2648 -0.2993
29556W        W47080  10.870   9.866  14.821  0.4008  0.2411  0.2992
29557W        W47081  11.239   2.002  11.185  0.0656  0.0860 -0.0118
29558W        W47082  10.041  10.075   1.586 -0.0162 -0.0081 -0.1413
29559W        W47083  17.622  13.796   2.523  0.4710  0.2009 -0.0551
29560W        W47084   7.593  13.773  13.020 -0.3079 -0.0446  0.0110
29561W        W47085  10.044   7.610  14.553 -0.0324  0.0316 -0.1332
29562W        W47086  12.115   0.686   0.358 -0.0398 -0.1833 -0.1418
29563W        W47087   1.892   2.613   1.835 -0.1092 -0.1247  0.1677
29564W        W47088   8.021   6.209   5.320 -0.4387 -0.1613  0.1433
29565W        W47089  14.798  10.359  12.418 -0.0871 -0.2078  0.0825
29566W        W47090  14.614  16.806   3.867  0.4370 -0.2533 -0.2371
29567W        W47091  15.665  15.953   5.127  0.2912 -0.2192  0.2231
29568W        W47092   9.753   8.748   2.632 -0.3005 -0.2248  0.2333
29569W        W47093  15.221   6.095   3.404  0.0485 -0.0168 -0.1852
29570W        W47094   8.761   0.688  13.364 -0.0847  0.1639 -0.0148
29571W        W47095  17.025  11.846   3.590 -0.0064  0.0242 -0.0157
29572W        W47096   8.554  14.453   3.283  0.0727  0.0402  0.0587
29573W        W47097   4.224   3.671  15.720  0.0992 -0.1211 -0.2347
29574W        W47098   3.394   1.812   1.328 -0.0443  0.0075 -0.0387
29575W        W47099  10.471  13.489  11.193  0.4927 -0.4049  0.3235
29576W        W47100   2.037  13.894   2.152  0.1459  0.1794 -0.0224
29577W        W47101  14.334   6.159  14.089 -0.1570  0.2925  0.3250
29578W        W47102  11.313  17.881   4.194 -0.0119 -0.2846 -0.0187
29579W        W47103   1.980  15.818  12.502 -0.1455  0.0951  0.1312
29580W        W47104   8.713   9.641  15.166  0.0322 -0.2194  0.4337
29581W        W47105   4.885  13.974  14.025  0.1059  0.0114  0.0524
29582W        W47106  11.004  17.528  12.268  0.0815  0.0304  0.2711
29583W        W47107  11.612  10.238   0.239 -0.1155 -0.0704 -0.0330
29584W        W47108   3.120   6.430   0.882 -0.0812 -0.0603  0.1162
29585W        W47109   7.534   6.616   3.045  0.2284  0.2855  0.2154
29586W        W47110   7.114  16.437   2.177  0.0906 -0.0098  0.0550
29587W        W47111  11.059  16.290   0.921 -0.1727  0.2107 -0.0531
29588W        W47112   5.063   8.007  15.434  0.2077 -0.1124 -0.2099
29589W        W47113  17.409   1.900   5.058  0.0830 -0.2983  0.0417
29590W        W47114  14.390  12.644  15.280  0.0851 -0.1507  0.1553
29591W        W47115  12.645   8.876   1.060  0.0732  0.1404  0.0558
29592W        W47116  16.026  15.649  14.638 -0.2001 -0.0165 -0.3072
29593W        W47117  10.690   7.202  11.983 -0.1232  0.3130 -0.0415
29594W        W47118   0.803  13.068  14.237  0.0588 -0.1497 -0.1264
29595W        W47119   5.219   6.996  15.595 -0.2226 -0.2793  0.2102
29596W        W47120   1.764   5.187   3.407 -0.1314  0.2951  0.0178
29597W        W47121  15.415  14.711   5.130 -0.1161  0.1761 -0.2301
29598W        W47122  11.337  16.802  14.083 -0.2266 -0.2034  0.1516
29599W        W47123  17.722   8.047   1.938 -0.2332 -0.5656  0.1099
29600W        W47124  14.147  14.306   0.019  0.0114  0.1529  0.0501
29601W        W47125   4.938  17.722  12.810 -0.0730  0.0418 -0.1436
29602W        W47126   0.283   0.431   0.258 -0.0273  0.3260 -0.0041
29603W        W47127  14.822   3.828  11.177  0.0825  0.0174  0.0797
29604W        W47128   2.572  17.394   1.975  0.1249  0.1632  0.0412
29605W        W47129  12.608  16.327  14.663  0.2559 -0.1766  0.2017
29606W        W47130   4.078   0.307   0.887  0.5332  0.1012 -0.0546
29607W        W47131  11.371  10.996   4.384 -0.0288  0.2271 -0.1420
29608W        W47132   8.933  14.209  11.584 -0.0986 -0.0622 -0.4410
29609W        W47133   2.977  17.818  12.690  0.2129 -0.0855 -0.2057
29610W        W47134  10.705  11.896   3.482  0.0256 -0.2240 -0.1219
29611W        W47135   1.883   2.094   3.343 -0.0713 -0.0096 -0.0565
29612W        W47136  17.787  10.270   3.277 -0.3966  0.0832 -0.1789
29613W        W47137  14.155  18.004   4.092 -0.0085  0.1819 -0.3013
29614W        W47138  12.333  17.398  15.292  0.0005 -0.1035 -0.0388
29615W        W47139   5.826   1.133   0.743 -0.0726 -0.1030 -0.2044
29616W        W47140  13.775  14.925  13.190  0.1798 -0.0659  0.0156
29617W        W47141   0.406  15.979  13.988 -0.5574  0.1857 -0.0764
29618W        W47142   3.006   7.388   1.941 -0.0363 -0.0130  0.0364
29619W        W47143  10.844   6.890  12.410 -0.3389 -0.1171 -0.2026
29620W        W47144   6.382   6.892   1.696  0.0835  0.0588  0.1035
29621W        W47145   8.367  14.693  14.980  0.0831 -0.1727 -0.0098
29622W        W47146  16.384   4.638   2.645  0.0976 -0.0043 -0.1896
29623W        W47147   3.723  13.140  14.763 -0.1706 -0.1240  0.1563
29624W        W47148  15.032  12.116   4.543  0.0843  0.0080 -0.0770
29625W        W47149  16.737  16.026  13.450 -0.0030 -0.1330 -0.4240
29626W        W47150   9.389   6.243  14.665 -0.1756 -0.0874  0.0950
29627W        W47151  12.215   9.349  15.084  0.1889 -0.1988  0.0328
29628W        W47152  12.884  13.215  15.059  0.0102  0.0242  0.0223
29629W        W47153   8.720  16.155  13.500  0.1566 -0.3244 -0.0749
29630W        W47154  10.701   0.667  13.446  0.4006  0.1441 -0.0752
29631W        W47155   2.898   3.085  13.559  0.3652 -0.2689  0.1157
29632W        W47156   3.772   6.388   2.171 -0.1156 -0.2477  0.0193
29633W        W47157   2.845   6.789   0.667  0.3337 -0.0179 -0.3250
29634W        W47158  18.398   2.458  10.709 -0.3168  0.0430 -0.1555
29635W        W47159  10.967  10.352  13.010  0.0758  0.2443 -0.3474
29636W        W47160   5.081  13.079  10.019 -0.1082  0.0259 -0.1146
29637W        W47161   9.573  13.945   4.374 -0.2950  0.2438 -0.0040
29638W        W47162  11.556  13.781  14.101  0.2076 -0.1123  0.1015
29639W        W47163  15.084  14.346  15.532 -0.3318  0.0698 -0.5690
29640W        W47164   8.895   1.707  15.292 -0.0659  0.1829 -0.1797
29641W        W47165   5.454   9.790  12.623 -0.1141 -0.2855  0.1753
29642W        W47166  12.394   7.349   0.412  0.3152  0.2046  0.1634
29643W        W47167  14.352   7.915  14.711 -0.0782  0.0856 -0.3139
29644W        W47168  12.893   7.640   1.854 -0.2300 -0.3009  0.0081
29645W        W47169   8.184   6.640  11.273 -0.1696 -0.2370  0.1641
29646W        W47170  14.664  12.820   1.765  0.1951  0.1877 -0.0698
29647W        W47171  14.054  16.325  15.119  0.1299  0.1147 -0.1138
29648W        W47172  10.071   5.066  13.843  0.1088 -0.0761 -0.1127
29649W        W47173   3.343  18.040   2.934  0.2394 -0.2610  0.1781
29650W        W47174   0.191  18.326  12.427 -0.5060  0.2238 -0.0122
29651W        W47175  17.400   4.427  12.579  0.1145  0.0234  0.1339
29652W        W47176   1.116   2.832   1.338  0.0895 -0.1877 -0.2026
29653W        W47177  11.627   0.264   0.706  0.0421  0.1405  0.1208
29654W        W47178   8.486  16.639  14.784  0.0045 -0.0121  0.1414
29655W        W47179  13.624  13.138  14.442 -0.1266 -0.1409  0.1237
29656W        W47180   8.324   1.252   4.514  0.0465  0.1179 -0.2248
29657W        W47181   6.679   5.504   0.518  0.1497  0.0746  0.3914
29658W        W47182  10.648   1.511   2.413 -0.1317 -0.1090  0.2201
29659W        W47183   1.012   7.284  14.585  0.5081 -0.0484 -0.1299
29660W        W47184  13.715  10.606  10.965  0.0375  0.0649  0.4421
29661W        W47185   5.211  12.500  14.773  0.1960 -0.0264  0.0330
29662W        W47186   6.294  13.323   1.382 -0.0827  0.0874 -0.2383
29663W        W47187  13.386  10.111   1.332 -0.1450 -0.1835  0.0314
29664W        W47188  11.399  11.825   5.897  0.1038 -0.1495 -0.2090
29665W        W47189  15.095   9.884   3.895  0.1651  0.1057 -0.0255
29666W        W47190  16.782   0.989  10.501 -0.2858  0.1228  0.1997
29667W        W47191   7.586   0.185   4.152 -0.2261  0.0749 -0.2428
29668W        W47192  12.384   6.826   2.806  0.1101 -0.1164  0.0472
29669W        W47193  14.866   1.127  12.120  0.0305  0.1441 -0.0145
29670W        W47194  15.511   1.009   5.923 -0.1368  0.1153 -0.0929
29671W        W47195   2.978  15.039   1.293  0.2839 -0.1561 -0.1680
29672W        W47196  11.432   6.006  13.893  0.1892 -0.3806  0.0557
29673W        W47197  18.480   6.827  11.868 -0.1517  0.2548 -0.0060
29674W        W47198  14.323   6.295  12.989 -0.0667  0.1883 -0.1630
29675W        W47199  10.370   7.309  11.026  0.1697  0.0716  0.1282
29676W        W47200  10.983   3.944   3.820  0.1494  0.0365  0.0106
29677W        W47201   6.768   5.447  11.777  0.1046  0.2093 -0.0752
29678W        W47202  12.593   8.110   2.835  0.1752 -0.1934  0.1300
29679W        W47203   9.421   5.953  13.179 -0.1847 -0.4988 -0.0726
29680W        W47204   3.278  13.406   3.920 -0.1487 -0.0021  0.1406
29681W        W47205   4.035  18.474  15.153 -0.0780 -0.2731  0.2087
29682W        W47206  17.167   3.958  15.062  0.3147 -0.0706 -0.1957
29683W        W47207  11.268  17.594   1.450 -0.1111 -0.0227  0.1221
29684W        W47208  10.400  17.377   2.608  0.1429  0.0612 -0.1361
29685W        W47209  13.409  16.822   0.412  0.0449  0.0556  0.0192
29686W        W47210   9.935   1.119  15.723 -0.2367  0.1010  0.0166
29687W        W47211  14.956   3.584   4.272  0.0517  0.2242  0.2035
29688W        W47212   5.432   6.057  13.508  0.2396  0.0267 -0.0858
29689W        W47213   6.936  14.091   3.499 -0.1164  0.0599  0.0931
29690W        W47214  15.901  15.781   2.111 -0.3259  0.2418 -0.0121
29691W        W47215   1.310  15.920   2.810  0.4754 -0.0133 -0.2523
29692W        W47216  15.230  16.134   3.420  0.0219 -0.0522 -0.1369
29693W        W47217   2.250   0.946  14.337  0.1384 -0.0021 -0.3307
29694W        W47218   4.412   5.726  14.509  0.1644 -0.2410 -0.1568
29695W        W47219   2.969   0.021  12.958  0.2204 -0.1858  0.2367
29696W        W47220  11.441   3.289  14.613  0.1919  0.3483 -0.2535
29697W        W47221  13.206  13.643   0.733 -0.1406  0.0368 -0.1142
29698W        W47222   5.011  13.231  11.894 -0.1104 -0.1492 -0.2526
29699W        W47223   0.524   9.165  14.021 -0.0821  0.0067 -0.0859
29700W        W47224  11.090   1.287  12.437 -0.4305 -0.2790 -0.0561
29701W        W47225   6.655  10.883  10.354  0.0568  0.0298 -0.0781
29702W        W47226   6.621   1.588   2.468  0.0448  0.0375 -0.0944
29703W        W47227   6.297   2.360  15.532 -0.0046  0.3932  0.1947
29704W        W47228   2.229   7.772   1.170 -0.1435  0.0190  0.1937
29705W        W47229   5.145   2.004  11.002 -0.0968  0.3811 -0.0851
29706W        W47230  14.428   6.586  15.712  0.0144 -0.2371  0.1685
29707W        W47231   5.196  10.228   0.404 -0.0836 -0.1047 -0.2149
29708W        W47232   6.401   3.847  13.663  0.0824 -0.2109 -0.0834
29709W        W47233  14.086   5.823  14.396 -0.3901  0.1156 -0.1146
29710W        W47234   0.027   2.647   4.632  0.1577 -0.0973 -0.2033
29711W        W47235   2.358  15.604  14.976  0.1779 -0.0715  0.4555
29712W        W47236   6.919   9.868  15.361  0.0611  0.0405  0.0818
29713W        W47237   7.534   7.772  12.018 -0.2802 -0.0322 -0.1065
29714W        W47238   4.457   9.986  11.764 -0.0595 -0.4102 -0.0156
29715W        W47239   3.951   8.019   1.386  0.1309 -0.3291  0.1026
29716W        W47240  12.124   2.575   0.225 -0.3620  0.1853  0.0641
29717W        W47241   1.256  17.655   4.666  0.0560 -0.1259 -0.0898
29718W        W47242  14.633   4.551  12.266  0.1126 -0.0391 -0.0508
29719W        W47243   0.571   2.223  15.714  0.0846 -0.1307 -0.1792
29720W        W47244   6.130  11.674  13.905 -0.1612 -0.0082 -0.2124
29721W        W47245   3.457   0.311  12.244 -0.2499  0.1311  0.4850
29722W        W47246   4.161   2.657  14.761  0.0732  0.2822  0.2135
29723W        W47247   8.884  11.562   1.741 -0.1148  0.0000 -0.1065
29724W        W47248  15.411  18.459  14.542 -0.3234 -0.1327  0.0805
29725W        W47249   5.046  15.208   4.626 -0.2009  0.1479  0.1482
29726W        W47250   1.568   1.777   2.431 -0.1860  0.1092 -0.0570
29727W        W47251  18.462  14.927   0.732  0.1237 -0.1756 -0.1066
29728W        W47252   8.582  13.997   0.522 -0.1383 -0.1918  0.2986
29729W        W47253   7.260   3.982  15.399  0.2197 -0.0176  0.0457
29730W        W47254   1.081   0.711  13.060 -0.0227 -0.1491  0.1039
29731W        W47255  12.867  11.250   0.320 -0.3757 -0.1296  0.2839
29732W        W47256  15.598   7.746   4.646  0.0464 -0.0114 -0.0772
29733W        W47257  15.730   0.995   2.369  0.2251 -0.1634 -0.0771
29734W        W47258  15.799   1.123   2.832  0.0339  0.0135 -0.1688
29735W        W47259   4.000  10.058   2.338  0.0019 -0.0384  0.5142
29736W        W47260  11.484   8.542   3.400 -0.1941  0.1133  0.4461
29737W        W47261   5.274   2.698  11.165  0.0894  0.1445 -0.0021
29738W        W47262  11.596   2.457   1.332  0.0024  0.1939  0.1517
29739W        W47263  12.733  14.956   0.622 -0.0928 -0.1448  0.3261
29740W        W47264  14.883   6.353  14.824 -0.2481 -0.0109  0.1441
29741W        W47265   3.110   8.952  15.004 -0.3074  0.3952  0.2376
29742W        W47266   9.003   5.720   0.895  0.2269  0.0779 -0.0117
29743W        W47267   1.143  17.099  14.940 -0.2303 -0.0092  0.6672
29744W        W47268   7.120   0.303  15.243 -0.0836  0.0441 -0.0053
29745W        W47269   9.926  16.120  15.021 -0.1544  0.0593  0.2486
29746W        W47270   4.935   2.609   4.217 -0.2729  0.0866 -0.0572
29747W        W47271  13.181  17.193   1.417 -0.1803 -0.1129 -0.0686
29748W        W47272   9.468  17.458   2.981 -0.1239  0.0569 -0.1305
29749W        W47273  16.654   9.749   1.091 -0.0885 -0.0025 -0.3143
29750W        W47274   6.867  11.348  11.722 -0.0094  0.0623  0.3546
29751W        W47275   1.446  18.103  14.424 -0.0164 -0.0022  0.0158
29752W        W47276  15.567   5.218  14.363 -0.0543 -0.0405  0.0519
29753W        W47277   9.836   1.395   2.929 -0.3197  0.1487  0.1408
29754W        W47278   3.987  11.263   4.929  0.0975 -0.4582 -0.0904
29755W        W47279  17.498  16.649  12.409 -0.1105  0.3803  0.0568
29756W        W47280  13.597   5.901   4.945  0.2254 -0.0268 -0.0263
29757W        W47281   4.233  11.036   3.273 -0.1810  0.0423 -0.1252
29758W        W47282   2.374   6.804   4.184  0.2434 -0.1279  0.1972
29759W        W47283   3.188   7.599   3.963  0.0598  0.1845 -0.1463
29760W        W47284   5.113  18.109   2.036 -0.1269 -0.3262  0.0010
29761W        W47285  12.844  13.963   0.491 -0.0987 -0.1420 -0.1834
29762W        W47286   3.081   0.244  13.604  0.0902 -0.0599  0.1435
29763W        W47287   8.855  10.320  12.570  0.2319  0.2310 -0.0291
29764W        W47288  11.423   2.853   2.871  0.3734  0.1129  0.0205
29765W        W47289  11.990   1.175  13.521  0.1671 -0.0922  0.0711
29766W        W47290  15.944   1.848  14.099 -0.1241  0.1438  0.2313
29767W        W47291   4.741   1.912   3.032 -0.0438 -0.0069 -0.2899
29768W        W47292   0.281  13.002  14.058 -0.0858  0.2137 -0.1081
29769W        W47293   4.846  18.030  10.877 -0.0601 -0.0326  0.2780
29770W        W47294  16.949   1.553   0.896 -0.1196  0.2520 -0.4928
29771W        W47295   0.463   1.740   4.194 -0.0179 -0.0067  0.2812
29772W        W47296   2.291  10.838  15.422  0.1326  0.1066 -0.2087
29773W        W47297   9.501  14.426   4.226  0.0185 -0.1721 -0.3082
29774W        W47298  17.667   5.917   4.103 -0.2527  0.1612 -0.0366
29775W        W47299  12.406  17.468  14.344 -0.1608  0.3356  0.0412
29776W        W47300   3.029  10.396   2.447  0.5437 -0.1773 -0.0489
29777W        W47301   0.921  17.678   5.475  0.1145 -0.1216  0.1813
29778W        W47302  14.165   6.617   0.876 -0.0529  0.1833  0.1617
29779W        W47303  17.310   0.699  14.239  0.0404 -0.0210 -0.0198
29780W        W47304  17.917   4.464  12.424  0.3798 -0.0012  0.0599
29781W        W47305   4.733  17.744   3.370 -0.1765  0.2344  0.1482
29782W        W47306   3.506   7.127  13.314  0.2769  0.3116  0.2103
29783W        W47307   6.562  18.095   2.426  0.1411 -0.1199  0.1865
29784W        W47308  15.982   9.091   3.344 -0.0252 -0.1096  0.2134
29785W        W47309  13.446  15.088  13.611 -0.0255  0.1494  0.0484
29786W        W47310   9.905  17.092  14.098 -0.2358 -0.1140  0.3887
29787W        W47311  14.173   4.239   3.228  0.2364  0.1753 -0.0135
29788W        W47312  15.976  15.426  13.368  0.0170  0.0387  0.3803
29789W        W47313   5.962  12.505   0.860 -0.0570 -0.0297  0.0305
29790W        W47314   9.468   4.177   1.763 -0.1099  0.0112  0.2346
29791W        W47315  17.649  12.716   2.839  0.0295 -0.0698 -0.0594
29792W        W47316   3.189   6.734  14.664  0.2136 -0.2048 -0.0702
29793W        W47317  13.589  14.530  14.536  0.1531  0.0896 -0.0705
29794W        W47318   0.816   8.774   4.988 -0.1873 -0.0257 -0.2224
29795W        W47319   9.805  15.088   3.876  0.2191  0.1939 -0.0576
29796W        W47320  15.252  17.873  14.840  0.2445  0.1872 -0.0453
29797W        W47321   0.478  18.200   3.740  0.0156 -0.2431  0.1525
29798W        W47322   7.096   4.836   4.465 -0.1000  0.4773  0.0634
29799W        W47323  12.203  14.713   0.045  0.0529  0.1602 -0.0567
29800W        W47324   6.479  11.402   2.564  0.0891  0.3227 -0.0870
29801W        W47325   5.425  10.071   4.046  0.1415  0.1446  0.2740
29802W        W47326  13.789  18.207   2.094 -0.1431  0.0850  0.3213
29803W        W47327   7.494   5.944   1.194 -0.2706 -0.1349  0.0111
29804W        W47328  17.001   0.137   1.805  0.0979 -0.1690  0.1658
29805W        W47329  15.879   2.427   0.648 -0.3791 -0.0309 -0.0232
29806W        W47330   7.467  12.933  15.281  0.0971 -0.0220 -0.2410
29807W        W47331   3.330   6.157  13.932  0.0686 -0.0765 -0.2909
29808W        W47332  17.464  15.647  12.539  0.0365  0.0685 -0.1299
29809W        W47333   0.396  15.001   5.215 -0.2669 -0.1968  0.1051
29810W        W47334   2.656   8.267  14.228  0.0330 -0.0981  0.0535
29811W        W47335   1.695  17.346  13.600  0.3486 -0.1521  0.1769
29812W        W47336   3.807   3.377   2.825  0.0439  0.0622  0.0780
29813W        W47337   1.389  17.749  12.311  0.2400  0.0288 -0.0173
29814W        W47338  17.079  15.625   3.680 -0.2408  0.3697 -0.1110
29815W        W47339   6.266  12.214   3.255 -0.0408  0.3934  0.1526
29816W        W47340  12.571  16.817  11.633  0.0344 -0.0093 -0.0028
29817W        W47341  15.322   7.366  13.955  0.1095  0.0758 -0.0848
29818W        W47342   0.538  11.633   0.166  0.1793  0.1403 -0.0500
29819W        W47343   8.356  16.161  12.754 -0.0781  0.0643  0.1183
29820W        W47344   9.538   9.128  14.265  0.0247 -0.0327  0.1930
29821W        W47345  10.958  15.796   2.240 -0.1590 -0.1514 -0.0586
29822W        W47346   3.776  13.997   4.603  0.3317  0.3845  0.1303
29823W        W47347   5.304  16.126   0.154 -0.4081  0.1033  0.0981
29824W        W47348   1.648   5.820   1.899  0.0465  0.0266 -0.0338
29825W        W47349  10.233  11.864   1.163 -0.0912 -0.1909 -0.0140
29826W        W47350   2.289   0.196   4.496 -0.2308 -0.1561  0.1735
29827W        W47351   8.817  17.864  11.842  0.1982 -0.2847  0.1202
29828W        W47352   2.063   0.457   0.651  0.1648  0.1070  0.1535
29829W        W47353   6.310  12.328   9.692  0.1894  0.0416 -0.2673
29830W        W47354  17.987  14.403  13.570  0.1878 -0.0843  0.1823
29831W        W47355  16.260  11.383   9.863  0.1790 -0.0315 -0.1492
29832W        W47356  14.174  15.653  12.904  0.1815 -0.3012  0.3122
29833W        W47357  13.395   4.842   0.281 -0.1160  0.1315 -0.1531
29834W        W47358   4.288  10.940  15.009 -0.1272  0.4208  0.1078
29835W        W47359   1.440  14.950   1.780  0.1702 -0.3394  0.0035
29836W        W47360   6.824   9.581   2.017 -0.2327  0.0158  0.0236
29837W        W47361  15.234   2.676   2.096  0.0900  0.1125 -0.1578
29838W        W47362   2.201   3.258  15.489 -0.1885  0.0686 -0.1696
29839W        W47363   4.774  14.344   0.183 -0.1017  0.1980 -0.0346
29840W        W47364   6.017  15.890  12.133  0.0778 -0.0939  0.1488
29841W        W47365  14.488   8.513  14.457 -0.0163 -0.1552  0.0266
29842W        W47366  12.841  12.079   0.583  0.1014 -0.2313  0.2691
29843W        W47367  15.843   8.053   2.550 -0.2572  0.1267 -0.0522
29844W        W47368  15.984  17.756   0.248 -0.0948 -0.3731 -0.1345
29845W        W47369   6.135  15.441  13.606  0.1894  0.1055 -0.0377
29846W        W47370   4.145   7.743   4.104 -0.0341 -0.1044  0.0947
29847W        W47371   5.833  14.491  12.787  0.0771  0.2114 -0.0584
29848W        W47372  12.859   7.931   1.384 -0.1538  0.1658  0.2134
29849W        W47373   9.742   0.650   0.017 -0.1640  0.0366  0.2312
29850W        W47374  15.549   4.877  10.895 -0.0426  0.4993  0.1225
29851W        W47375  14.782   8.732   2.054  0.1409  0.1007  0.0026
29852W        W47376   0.515   6.227  13.560  0.3838 -0.2259  0.2438
29853W        W47377  17.647  14.963   5.755 -0.1243 -0.2858  0.1034
29854W        W47378   5.842  17.250  10.558 -0.2448 -0.2711  0.2208
29855W        W47379   8.079   5.168   3.667  0.2383 -0.3079  0.0303
29856W        W47380   5.475  15.061  11.113 -0.0092 -0.2035  0.1124
29857W        W47381   6.472   7.907  12.931 -0.2459  0.5040  0.0252
29858W        W47382  18.264   1.483   0.195  0.0685  0.2598  0.1498
29859W        W47383   8.055  18.329  13.933 -0.0567 -0.2577  0.0857
29860W        W47384  12.849  14.140   3.408  0.3497 -0.1325 -0.3022
29861W        W47385  13.770   3.586   0.025 -0.0714 -0.1233 -0.0361
29862W        W47386   9.439  13.490  14.992  0.0837 -0.2716 -0.1066
29863W        W47387   6.233   3.700   0.765  0.3113  0.0489 -0.0583
29864W        W47388  18.005  16.599   2.652  0.0549 -0.0241  0.0348
29865W        W47389   8.161   2.842   3.915  0.0898 -0.0321  0.0390
29866W        W47390   1.322   3.748   2.145  0.1343 -0.0551 -0.0105
29867W        W47391  14.469  12.097  11.984  0.3048  0.1861 -0.1991
29868W        W47392  10.396  12.956   0.144  0.0702  0.3105 -0.1531
29869W        W47393   7.974   2.331   0.962  0.1064  0.0455  0.2326
29870W        W47394   1.217  17.922  13.747 -0.3189 -0.2358  0.0853
29871W        W47395   9.520   3.001   3.898  0.0252 -0.0137 -0.3313
29872W        W47396  12.797  15.553  13.822 -0.2177  0.0377 -0.2729
29873W        W47397   2.212  17.794  15.680 -0.0361  0.1979 -0.3382
29874W        W47398  11.320   6.136  11.247  0.1201 -0.1698  0.0262
29875W        W47399  10.006  13.240  10.745 -0.0839  0.1558  0.0116
29876W        W47400   2.433   6.116  11.585 -0.2066  0.0935 -0.0348
29877W        W47401  12.886  14.666  10.927 -0.1249  0.1286  0.0215
29878W        W47402  16.731   0.493  12.672 -0.1789  0.1960  0.0070
29879W        W47403  11.882  14.264   3.532 -0.0782 -0.1516  0.1271
29880W        W47404   9.691   1.295   1.812 -0.0231  0.3329  0.0633
29881W        W47405  15.290   2.747   2.681  0.1095  0.2824  0.0448
29882W        W47406   3.828  11.456   0.346 -0.0093  0.2144  0.1305
29883W        W47407   4.557  13.549  14.670 -0.0519 -0.0102 -0.0668
29884W        W47408  12.861  15.393   4.756  0.4216  0.1403 -0.1315
29885W        W47409   3.593  13.947   1.013 -0.1797  0.3709  0.4768
29886W        W47410  13.699  16.047   1.340 -0.0880  0.1403 -0.3130
29887W        W47411   5.898   3.620   0.271 -0.0595 -0.2194  0.0923
29888W        W47412   7.660   4.547  15.714 -0.1896  0.1563 -0.0159
29889W        W47413   7.923   3.032   0.734  0.1597  0.0210 -0.2687
29890W        W47414   9.872  11.063  13.733 -0.3090  0.0896 -0.0188
29891W        W47415  14.249   2.044   3.118  0.1715 -0.0098 -0.0367
29892W        W47416   1.236  12.185   4.438 -0.4143 -0.1742 -0.2020
29893W        W47417   7.695   7.806   2.051  0.3899 -0.0243  0.0097
29894W        W47418   5.266  16.232   4.734 -0.1204 -0.1648  0.2497
29895W        W47419  16.380  10.759   1.451 -0.2692 -0.2268  0.2034
29896W        W47420  14.215  17.622   3.188  0.2239  0.3315 -0.1756
29897W        W47421  16.266  14.556   2.593  0.0714  0.1620 -0.0528
29898W        W47422  15.087   1.529  11.824  0.0611  0.1696  0.0554
29899W        W47423   0.261   9.070  15.336 -0.0895  0.1523 -0.0236
29900W        W47424   4.286   3.337   4.022 -0.0789  0.2286  0.0519
29901W        W47425   1.389   5.272  15.156  0.1150  0.2523 -0.0841
29902W        W47426   2.283   8.770  13.800 -0.0795  0.0974  0.1778
29903W        W47427   5.092  12.481   0.157 -0.3006  0.0411  0.0923
29904W        W47428   5.906  12.515  11.110  0.3407  0.1034  0.1236
29905W        W47429  16.763  17.950  13.875  0.1435 -0.2550  0.0885
29906W        W47430  17.054  12.817   4.452 -0.0824  0.2548  0.3141
29907W        W47431   3.927   6.814   3.050  0.0297 -0.0665 -0.0388
29908W        W47432   1.436   9.281  13.779 -0.1372 -0.1725 -0.3071
29909W        W47433  15.300   4.177   1.757  0.2419  0.1241  0.0694
29910W        W47434   3.095  10.302   3.002 -0.0881 -0.0259 -0.0837
29911W        W47435   5.652   2.638  14.123 -0.0599 -0.1265 -0.1645
29912W        W47436  11.751   8.439   2.381 -0.1957 -0.1410 -0.0102
29913W        W47437   9.518  10.725  13.528 -0.0438 -0.0552 -0.1040
29914W        W47438   7.908   0.102  13.531 -0.1228  0.1878 -0.2020
29915W        W47439   0.559  18.395  15.192  0.1006 -0.1105 -0.0092
29916W        W47440  10.936   8.246   4.734 -0.0581 -0.1258  0.0640
29917W        W47441   4.670   5.829  11.886 -0.0691  0.1410  0.0914
29918W        W47442   1.771   0.077   4.640 -0.0069 -0.0066  0.3918
29919W        W47443   0.024  11.721   9.887 -0.1982  0.4848 -0.2559
29920W        W47444  18.176  11.927  12.905 -0.0287  0.3347 -0.0253
29921W        W47445   2.831  11.485  14.036 -0.1757  0.0663  0.2701
29922W        W47446  12.752   6.916   5.010 -0.2111 -0.0581  0.1119
29923W        W47447   2.782   1.044   1.217 -0.1937 -0.1402  0.0653
29924W        W47448  10.550   3.736   0.346  0.2305 -0.0721  0.0756
29925W        W47449   2.844   7.685  14.462  0.2746 -0.1253 -0.2648
29926W        W47450   8.494   0.515  11.434 -0.2447  0.2406 -0.4253
29927W        W47451   5.151  14.305  11.295  0.1987 -0.1351 -0.3039
29928W        W47452   5.490  14.725   2.322 -0.3176 -0.1873 -0.0464
29929W        W47453   4.459   0.649  13.501  0.0637  0.2136 -0.0587
29930W        W47454   6.174  15.079   1.255 -0.3257  0.1546 -0.2474
29931W        W47455   8.651   9.330   2.738  0.1001 -0.3330  0.3097
29932W        W47456   6.236  16.610  11.319  0.1996  0.0589 -0.2538
29933W        W47457   5.360  10.542   3.271 -0.1259  0.1159  0.0123
29934W        W47458  10.325  17.162  13.360  0.1262 -0.1486  0.3588
29935W        W47459   6.237   5.720   2.266  0.0710  0.1493  0.1818
29936W        W47460   3.281   6.302  11.008 -0.1216 -0.2678  0.1759
29937W        W47461  17.424   4.336   1.110  0.0639  0.0542  0.0974
29938W        W47462   5.589  14.304  11.538  0.1351  0.0792  0.0051
29939W        W47463  18.159   9.898  11.551 -0.0528 -0.2144 -0.2829
29940W        W47464   0.567   0.142  14.090 -0.6529 -0.0069 -0.1358
29941W        W47465  12.777   7.073   3.388  0.3672  0.0052  0.0805
29942W        W47466  11.061   8.007   3.204 -0.1487 -0.3147 -0.2400
29943W        W47467   2.469   1.327  12.404  0.3948 -0.2432 -0.1088
29944W        W47468  10.767  10.105   3.423 -0.1137  0.3469 -0.0336
29945W        W47469   6.415  16.143  15.204 -0.3120 -0.1151 -0.0085
29946W        W47470   7.246   5.250   4.840  0.1061 -0.0409  0.1666
29947W        W47471   9.001  18.202   2.273 -0.0681 -0.2813  0.0092
29948W        W47472   6.216   1.863   3.737 -0.1744 -0.2344  0.1550
29949W        W47473   8.978   7.294  12.365  0.0493  0.2005 -0.1474
29950W        W47474   1.987   6.842   5.072 -0.0962 -0.2936 -0.0154
29951W        W47475   6.250   8.866   0.610  0.2372  0.1180 -0.0475
29952W        W47476  13.257  16.264   1.636  0.1194  0.0015  0.2215
29953W        W47477  13.468   7.048  12.504  0.0697  0.1977  0.0747
29954W        W47478  13.328   1.096  13.651 -0.3170  0.0028  0.1556
29955W        W47479  17.143   4.072  15.641  0.2521 -0.0580  0.0329
29956W        W47480   4.814  12.997   0.521 -0.2066  0.0520  0.1301
29957W        W47481   3.350   4.830   4.243 -0.3166  0.0690 -0.0698
29958W        W47482   0.395   3.508  12.671  0.2339  0.1028  0.0824
29959W        W47483  15.782  17.941  11.928  0.0984 -0.2166  0.4764
29960W        W47484  18.464   7.326   1.792 -0.2249 -0.0067 -0.1955
29961W        W47485   5.549   0.211   3.630 -0.1292 -0.1714 -0.1808
29962W        W47486   8.697  15.955   0.519 -0.0089  0.1752  0.1355
29963W        W47487  15.199   5.502  14.198  0.2138 -0.1718 -0.0585
29964W        W47488   3.145   5.014   2.962  0.1479  0.2231 -0.1391
29965W        W47489   4.636   2.392   0.327 -0.0210  0.6223 -0.2810
29966W        W47490   0.265   4.341   2.686 -0.0311 -0.0480  0.0803
29967W        W47491   1.297   1.981  11.918  0.6145 -0.1699 -0.0952
29968W        W47492   8.552  15.323   4.393  0.1244  0.2917 -0.2345
29969W        W47493  15.480   8.997   1.610 -0.0636  0.0220 -0.3313
29970W        W47494   8.776  12.854   1.285  0.0329 -0.3348  0.0685
29971W        W47495   3.139   1.372   1.248 -0.1600 -0.2474  0.1002
29972W        W47496   9.402  15.890   4.116  0.0373 -0.1524  0.0478
29973W        W47497   0.505   2.626  15.391  0.0083 -0.1596 -0.2190
29974W        W47498   5.152   0.056  13.211  0.1395 -0.3745  0.4038
29975W        W47499   4.164  18.002  13.541 -0.0714 -0.0522 -0.1622
29976W        W47500  13.646   4.905   1.468  0.0376  0.0192 -0.2571
29977W        W47501   7.451  16.000  13.015  0.0681  0.0848 -0.4233
29978W        W47502   1.392  13.900   0.806  0.1280 -0.1582  0.2009
29979W        W47503   8.989  13.121   9.932 -0.4844 -0.1336  0.1696
29980W        W47504  14.258  14.042  15.304  0.0340  0.0682  0.0319
29981W        W47505   2.607   4.012   2.543 -0.1796  0.0927 -0.0252
29982W        W47506  13.701  12.483   2.250  0.1322  0.3470 -0.1533
29983W        W47507  11.483  14.819  13.347 -0.0763 -0.1464 -0.0655
29984W        W47508  17.722   5.419  14.659  0.1227 -0.1797 -0.2407
29985W        W47509   9.218  16.961   0.725  0.2055 -0.1243  0.0731
29986W        W47510  17.737   7.769  14.844 -0.2184  0.0319  0.0849
29987W        W47511  18.254  18.124  14.441 -0.2107  0.0338  0.2618
29988W        W47512  16.272  14.336   1.522  0.0479 -0.1549 -0.2088
29989W        W47513  13.750  11.049  15.344  0.3233  0.3349  0.1929
29990W        W47514   1.746   6.657   3.891  0.0995 -0.1891  0.0142
29991W        W47515  11.349   4.573  14.871 -0.1686  0.1653  0.1586
29992W        W47516   8.118   7.359  13.703 -0.3360 -0.1699  0.0751
29993W        W47517   4.912   3.074   0.909 -0.0398  0.2016  0.2171
29994W        W47518   6.896   9.637   0.980 -0.1377  0.0629 -0.2041
29995W        W47519  17.648   9.950   4.161  0.0759 -0.1212 -0.1692
29996W        W47520  10.614   6.105   0.244 -0.3083  0.1229  0.3012
29997W        W47521  12.551  11.507  13.124  0.1766  0.2155  0.2304
29998W        W47522   5.150   0.574  13.351 -0.2154 -0.0139 -0.0390
29999W        W47523   5.038  15.212   0.504 -0.0542 -0.0259 -0.1868
30000W        W47524   7.713   3.509   0.853  0.1143  0.0018  0.0358
30001W        W47525  17.972  17.113  15.572  0.0880 -0.0712  0.3351
30002W        W47526   6.874   1.451   2.951  0.3088 -0.1970  0.1324
30003W        W47527   0.855  16.280   3.521  0.3401 -0.0475 -0.2739
30004W        W47528  16.240   4.638   4.056  0.1809 -0.1653  0.1169
30005W        W47529   9.861  14.752  13.711  0.0556 -0.0655 -0.1191
30006W        W47530  13.164  17.946   3.895  0.1215  0.3513 -0.1190
30007W        W47531   6.494   4.539  15.025  0.0977 -0.2754 -0.1478
30008W        W47532   8.465   6.279   0.154 -0.0495 -0.0800 -0.1542
30009W        W47533   0.330  10.739  12.178  0.1006  0.2424 -0.0230
30010W        W47534   5.359   1.610  14.123  0.1501 -0.1457  0.2111
30011W        W47535   9.805   0.567  13.098 -0.0223  0.0320  0.0297
30012W        W47536  12.337  12.223   2.954 -0.2510  0.2284 -0.1394
30013W        W47537   2.446   4.644  14.007 -0.5678  0.0818 -0.0353
30014W        W47538  15.304  12.986   4.617 -0.2975  0.2339 -0.1314
30015W        W47539  13.991   2.967  14.037 -0.2826  0.3561 -0.3494
30016W        W47540   8.090  10.970  12.997 -0.2889 -0.0301  0.1660
30017W        W47541  14.418   1.609  13.334  0.2613 -0.0572 -0.0038
30018W        W47542   1.655  16.618   0.977 -0.1561  0.1010 -0.3194
30019W        W47543  15.201  14.446  11.133 -0.2421 -0.0018 -0.4463
30020W        W47544  16.649   7.780   2.377  0.2016  0.0775 -0.3548
30021W        W47545  11.933  18.162  14.693 -0.1492  0.0401 -0.1823
30022W        W47546   6.135  15.242   1.978 -0.3661 -0.0915 -0.0542
30023W        W47547  12.808   8.989  13.715 -0.0184  0.0568 -0.0543
30024W        W47548  11.574   0.983  15.333 -0.0435  0.1241 -0.1408
30025W        W47549  12.422   9.680   1.430 -0.2492 -0.3491 -0.1910
30026W        W47550   6.638   1.442  15.328  0.0164 -0.1924  0.2702
30027W        W47551  16.977   5.652  13.503 -0.0695  0.0537  0.1329
30028W        W47552   2.188   8.637   2.339 -0.0241 -0.1234  0.0637
30029W        W47553   6.107  17.442   3.497  0.3299 -0.0771 -0.0768
30030W        W47554   9.503  16.621   3.550  0.1237 -0.0495  0.0725
30031W        W47555   0.327  13.066  13.148  0.0924  0.1130  0.3102
30032W        W47556  11.169  17.112  14.477  0.4128 -0.0039  0.0457
30033W        W47557  10.007   4.067  14.312  0.1655  0.2597 -0.0728
30034W        W47558   2.131  15.534  15.568  0.0290  0.1496  0.1544
30035W        W47559  16.442   7.362   2.695  0.0734 -0.0286  0.0427
30036W        W47560   5.466  11.093  13.640 -0.1654  0.0545  0.0383
30037W        W47561  15.157   8.729  15.558  0.3749  0.0824 -0.2189
30038W        W47562   0.090  10.162  12.934  0.2459  0.2687 -0.1751
30039W        W47563  11.531  17.773  13.504 -0.2663 -0.0636 -0.0788
30040W        W47564   7.588   6.168  15.004  0.2377 -0.1125 -0.2059
30041W        W47565   1.669  10.418   0.898 -0.1228 -0.0861 -0.1391
30042W        W47566  16.989   6.028  14.563  0.1131  0.0746 -0.0914
30043W        W47567   3.355  14.001   4.845 -0.0613  0.0524 -0.0524
30044W        W47568  13.354   1.728   3.908  0.1908 -0.2609  0.0746
30045W        W47569  18.213   8.625  11.086 -0.3660 -0.1195  0.1261
30046W        W47570   4.982  18.002   4.795  0.0722 -0.1842 -0.1166
30047W        W47571   7.419  17.638  15.088 -0.1143 -0.2210 -0.0481
30048W        W47572  13.529  12.867   1.939  0.0410  0.0823  0.0065
30049W        W47573   8.732   8.661   1.363 -0.0339 -0.2036 -0.0689
30050W        W47574  18.329   9.820  15.434 -0.0409  0.0159  0.1622
30051W        W47575  15.980  15.255  12.607 -0.1978  0.0937  0.1535
30052W        W47576  11.424  15.186   5.280  0.0900  0.1226 -0.1404
30053W        W47577  12.722   5.422   0.023  0.1736  0.0324  0.2723
30054W        W47578   4.232   9.850   3.365 -0.0447 -0.0932  0.2866
30055W        W47579   5.143   1.376  12.698  0.2981 -0.0726  0.0238
30056W        W47580   8.866   3.266  14.223 -0.2700 -0.0821  0.0609
30057W        W47581   7.804  10.498  14.498  0.0354 -0.2201 -0.0511
30058W        W47582  11.736  12.268  12.985  0.1093  0.1113 -0.3431
30059W        W47583   5.844   9.660   2.196 -0.0221  0.1990  0.0802
30060W        W47584   9.717   5.057   1.140 -0.0085  0.0046  0.1591
30061W        W47585   3.879  17.469   4.956 -0.1891 -0.1233  0.1237
30062W        W47586  12.282   3.992   0.293 -0.3810  0.0095  0.1192
30063W        W47587  17.480  15.678  12.055  0.1107 -0.2552  0.2243
30064W        W47588  10.809   0.914  14.674 -0.2023 -0.1607 -0.3730
30065W        W47589   4.414  14.522   4.205  0.2815 -0.2452  0.2465
30066W        W47590   2.702   2.592  11.414 -0.0872 -0.0872  0.1348
30067W        W47591  16.928  12.127  15.176  0.2925  0.2523 -0.1465
30068W        W47592   8.363   9.223   3.583  0.3409  0.3347 -0.1191
30069ION     NA47593   0.366  11.263   5.499  0.0675  0.1433 -0.0593
30070ION     NA47594  13.151  16.171  14.263  0.1834  0.0740 -0.0352
30071ION     NA47595   1.923   1.515   5.687  0.1573 -0.0067 -0.2089
30072ION     NA47596   7.533   7.083   5.149 -0.0881  0.2130  0.1976
30073ION     NA47597  10.932   9.899   3.866 -0.1500  0.0363  0.1697
30074ION     NA47598   0.390  13.891  14.899 -0.0917  0.1330  0.0498
30075ION     NA47599   0.266  16.823   6.005 -0.1030 -0.0335 -0.1085
30076ION     NA47600   0.220   5.062   4.953 -0.1440  0.0455 -0.0913
30077ION     NA47601  15.862   9.649  10.529 -0.2442 -0.1146 -0.1036
30078ION     NA47602   9.052  14.849  10.527 -0.0753 -0.3818 -0.0204
30079ION     NA47603  16.813  13.123  10.328 -0.0326 -0.1658  0.0601
30080ION     NA47604   6.074   2.965   4.417 -0.2923  0.1649 -0.0242
30081ION     NA47605  14.819  10.771  10.032 -0.1224  0.2507 -0.2144
30082ION     NA47606  10.121   6.413   5.474 -0.0283  0.1508  0.0177
30083ION     NA47607  16.505   3.821   0.091 -0.1290 -0.4659 -0.2340
30084ION     NA47608   5.309  10.743  10.095  0.0667 -0.1150 -0.2732
30085ION     NA47609   9.907  11.169  10.267  0.1241 -0.0907 -0.2369
30086ION     NA47610  11.735  17.259  10.599  0.0934  0.1115 -0.3021
30087ION     NA47611   2.867   0.662   5.258  0.0208 -0.0564 -0.0594
30088ION     NA47612  14.242  18.192  10.856  0.2339 -0.1282 -0.2394
30089ION     NA47613   4.961   7.417   2.960 -0.0990 -0.0385 -0.0190
30090ION     NA47614  11.167   8.499   5.613 -0.0502  0.0459 -0.3195
30091ION     NA47615  18.159  17.978  10.909  0.0313 -0.1858  0.2227
30092ION     NA47616   2.168   6.016  10.240  0.3654 -0.0385 -0.0582
30093ION     NA47617  14.021   9.368   5.078  0.3724  0.0563  0.0838
30094ION     NA47618  10.118   0.653   5.577 -0.1174 -0.0509  0.1770
30095ION     NA47619  16.873   8.000  10.114  0.1090  0.0738  0.0896
30096ION     NA47620  12.408  10.776  13.297  0.3521 -0.4732  0.0076
30097ION     NA47621   2.666  12.732  10.096  0.0821  0.0934  0.1221
30098ION     NA47622   3.102   0.595   3.900  0.3744  0.0373 -0.0410
30099ION     NA47623   0.043   2.301   5.443 -0.1361  0.2220  0.0457
30100ION     NA47624  15.652   6.748   5.105  0.0931  0.1515  0.1117
30101ION     NA47625   3.225   8.839  13.172  0.2957  0.0708  0.0889
30102ION     NA47626   2.562  12.860   1.970 -0.2176  0.0820  0.1078
30103ION     NA47627   6.309  17.433  10.267 -0.2693  0.3512  0.0218
30104ION     NA47628   6.497   0.353   0.323 -0.3784 -0.0413  0.0258
30105ION     NA47629  16.953  17.209   5.713  0.2289 -0.2555  0.2040
30106ION     NA47630   1.179  13.547   0.025 -0.1094 -0.0699 -0.0387
30107ION     NA47631   2.495   3.558   4.641 -0.3373  0.2139 -0.2471
30108ION     NA47632   4.625   3.721  10.179 -0.2052  0.0140  0.2253
30109ION     NA47633  17.048  18.040   1.217  0.0708  0.0677 -0.1774
30110ION     NA47634  16.588  14.748  10.334 -0.4067  0.0862 -0.0716
30111ION     NA47635  15.780   0.178  10.584 -0.1680 -0.2566  0.0345
30112ION     NA47636  14.272  18.478   1.967  0.0253  0.0806 -0.0674
30113ION     NA47637   5.200  11.855   5.453  0.1665  0.1235  0.0975
30114ION     NA47638  16.093   5.062   4.777 -0.0048 -0.2507  0.0529
30115ION     NA47639   3.656  15.740  10.562 -0.2868  0.0216 -0.3754
30116ION     NA47640  15.877   4.286   5.292  0.1033  0.3644 -0.3465
30117ION     NA47641   0.013   1.335   5.632 -0.1989 -0.0751  0.3401
30118ION     NA47642   1.503  15.505   5.842 -0.1189  0.0933  0.4769
30119ION     NA47643  12.676  14.439   1.198  0.0913  0.0708  0.2177
30120ION     NA47644   7.810  18.174   5.333  0.0409  0.2408  0.1575
30121ION     NA47645  17.445   1.997   1.914 -0.0631  0.3082 -0.0227
30122ION     NA47646   5.949   1.417  14.003 -0.0871  0.1382  0.1597
30123ION     NA47647  13.411   7.277   0.772  0.1258 -0.0542  0.0228
30124ION     NA47648   8.516   7.029   5.214 -0.4053 -0.2391  0.0526
30125ION     NA47649   7.643  11.762   9.951  0.1705  0.0034  0.0588
30126ION     NA47650   3.377   5.598   5.554 -0.0617  0.0000  0.1274
30127ION     NA47651   9.321  12.330   5.493 -0.2980 -0.2739 -0.0892
30128ION     NA47652  13.041  14.159  10.823  0.0781  0.4357 -0.1064
30129ION     NA47653  12.559  16.823  11.008 -0.1751 -0.0172 -0.2046
30130ION     NA47654  17.211  15.455   5.867 -0.1030  0.5294  0.2038
30131ION     NA47655  10.688   4.282   5.333  0.1033 -0.2685  0.1586
30132ION     NA47656   9.305   9.223  11.675  0.0357 -0.0490 -0.0579
30133ION     NA47657  16.940   4.715   5.302 -0.1610 -0.0630 -0.3335
30134ION     NA47658   0.251  16.602   0.417  0.1910 -0.0906  0.0819
30135ION     NA47659  16.301  16.089  10.675  0.0833  0.1355 -0.1226
30136ION     NA47660   9.020   8.474  10.759 -0.1127  0.2066 -0.2550
30137ION     NA47661  18.485   7.911   2.423 -0.5766 -0.0484  0.1314
30138ION     NA47662  12.710  12.501  10.391  0.0227  0.0868  0.3117
30139ION     NA47663  16.899  13.855   5.267 -0.0812  0.0835  0.0798
30140ION     NA47664  10.104  16.141  13.043 -0.0082  0.1997 -0.2100
30141ION     NA47665  14.721   9.155  15.511 -0.2174  0.2936  0.2589
30142ION     NA47666   6.972   1.246  14.400 -0.1342 -0.1249 -0.4117
30143ION     NA47667   4.668  10.149   0.278 -0.0649  0.0205 -0.0478
30144ION     NA47668  16.273  10.373  10.054 -0.1949 -0.2475 -0.4688
30145ION     NA47669  15.264   7.709   9.849 -0.0427  0.0707 -0.0307
30146ION     NA47670  17.724   0.322   4.021 -0.2651 -0.0147 -0.0915
30147ION     NA47671  18.088   7.862   5.319 -0.2081 -0.1385  0.3122
30148ION     NA47672  16.353   8.717   4.713  0.1479 -0.4899  0.0812
30149ION     NA47673   5.972  16.213   1.125 -0.1234  0.3069 -0.1001
30150ION     NA47674  15.777  10.772   1.467  0.1020 -0.0984 -0.1503
30151ION     NA47675  11.169  14.747   6.426 -0.1466 -0.2108 -0.0257
30152ION     NA47676   3.125   4.435  10.037 -0.4115  0.2564  0.1731
30153ION     NA47677  11.269   8.185  10.269 -0.1396  0.0137  0.0085
30154ION     NA47678   2.521   8.448   9.991 -0.3971  0.1110  0.1510
30155ION     NA47679  17.888  11.048   5.115 -0.0078  0.0831 -0.1140
30156ION     NA47680   7.851   9.031  11.811 -0.2944  0.1533 -0.1433
30157ION     NA47681   5.593   5.595   5.317  0.1107  0.2802 -0.0387
30158ION     NA47682  16.355   5.079   2.384  0.1408 -0.2727 -0.1401
30159ION     NA47683   3.196   4.308   4.385 -0.0763  0.2332 -0.3303
30160ION     NA47684   5.833   7.854   0.248 -0.0528  0.1134 -0.0995
30161ION     NA47685   7.669  15.962  10.228  0.0413  0.0408 -0.1375
30162ION     NA47686   7.915   8.382   1.933  0.2520 -0.0612  0.1173
30163ION     NA47687  17.902   3.147   5.460  0.2531 -0.1840  0.0888
30164ION     NA47688   0.075   2.720   5.256  0.2687  0.2620  0.0873
30165ION     NA47689  11.891  11.229   3.232 -0.2201 -0.1055  0.1660
30166ION     NA47690  14.179   6.215  10.121  0.4002 -0.0592 -0.0824
30167ION     NA47691   2.956  15.516   1.743  0.0755 -0.1196  0.1186
30168ION     NA47692   9.592  16.984  10.342 -0.0777  0.0801  0.3733
30169ION     NA47693   7.275   5.548   1.370  0.2784 -0.1399 -0.1507
30170ION     NA47694   3.579  18.341  14.857  0.1710  0.0186  0.2809
30171ION     NA47695   7.115   1.663  14.736  0.0082  0.0598  0.0684
30172ION     NA47696   1.531  15.924  15.205 -0.0028 -0.1696 -0.0435
30173ION     NA47697   9.725   5.562   5.551  0.1216  0.2577  0.1224
30174ION     NA47698   6.621  12.790   2.933  0.1546 -0.0381 -0.1993
30175ION     NA47699   0.921   5.034   5.318  0.2452  0.2588  0.0584
30176ION     NA47700  13.776   5.617   5.361  0.0550  0.2934 -0.2424
30177ION     NA47701  15.688   7.172  10.436 -0.1530  0.0217  0.1740
30178ION     NA47702   0.982   1.441  15.550  0.2105  0.3146  0.0998
30179ION     NA47703   7.278  10.487   5.323  0.2795 -0.0010  0.2030
30180ION     NA47704   8.263  16.839  13.453  0.0261 -0.0056 -0.0615
30181ION     NA47705   0.800   4.993   0.843  0.1394 -0.1701 -0.1534
30182ION     NA47706   6.391   4.091   9.658  0.1101 -0.1064  0.0137
30183ION     NA47707  11.502   7.544   5.668  0.0029 -0.3069 -0.0812
30184ION     NA47708  12.391   1.436   5.584  0.0629  0.0939 -0.2476
30185ION     NA47709   5.018   2.456  14.444 -0.0525 -0.0340 -0.0329
30186ION     NA47710   6.769  18.070  10.001 -0.2159 -0.0520 -0.3924
30187ION     NA47711   3.188  14.308  14.724  0.1811 -0.0266 -0.1086
30188ION     NA47712   6.332  14.642  10.123  0.3027  0.0565  0.0241
30189ION     NA47713  10.641  14.317  13.011  0.2566  0.0190 -0.4765
30190ION     NA47714   7.598   9.266  14.811  0.5076 -0.0054 -0.0268
30191ION     NA47715  18.132   0.613   6.050  0.0925 -0.1127 -0.2735
30192ION     NA47716   4.926  12.188  10.162 -0.2827  0.2528 -0.0048
30193ION     NA47717   4.833   7.107   9.912  0.0761 -0.1466  0.0341
30194ION     NA47718   9.479   1.060   4.726  0.1155 -0.0472  0.1766
30195ION     NA47719   7.906   8.594   4.216  0.1687 -0.0720 -0.3323
30196ION     NA47720   8.201   9.926  10.125  0.0548 -0.4050  0.1598
30197ION     NA47721   2.382  18.024   3.256  0.2877  0.0148  0.2092
30198ION     NA47722  12.468  16.336  12.726 -0.0913 -0.1408 -0.1272
30199ION     NA47723   7.707  11.898   0.363 -0.0850 -0.2138 -0.0605
30200ION     NA47724  15.806   1.018  10.608 -0.2020  0.2918  0.0124
30201ION     NA47725   0.104   1.011  13.042 -0.0936  0.0171 -0.1490
30202ION     NA47726   8.106   1.956  10.076  0.0214  0.2171  0.0875
30203ION     NA47727  14.783  14.001   5.392  0.0722  0.0426  0.2128
30204ION     NA47728  12.714   6.672   3.672 -0.2034  0.3337  0.1732
30205ION     NA47729  15.659   5.982   9.779  0.0036  0.0832  0.0581
30206ION     NA47730   5.518  12.891   5.361  0.2017 -0.3308  0.0269
30207ION     NA47731   4.273   6.355   9.802 -0.3138  0.0547  0.1201
30208ION     NA47732   0.463  14.625  10.410 -0.2758  0.0960  0.0605
30209ION     NA47733   5.269   9.869   9.982  0.0076  0.2153 -0.2513
30210ION     NA47734  18.378   8.391   0.149  0.0074  0.0900 -0.1906
30211ION     NA47735   0.584  17.078  12.366 -0.2096  0.0893  0.1585
30212ION     NA47736   1.546  18.451  11.177 -0.0486 -0.1354 -0.0581
30213ION     NA47737  17.329   7.159   5.567 -0.0542  0.1047 -0.2303
30214ION     NA47738  15.030   5.160  10.016 -0.0568 -0.1089  0.2440
30215ION     NA47739   5.944  10.243   9.948 -0.1210  0.0704 -0.0470
30216ION     NA47740   0.731   8.334  10.096  0.2105  0.1243  0.2823
30217ION     NA47741  13.633   9.776   3.847  0.1283 -0.1510 -0.0806
30218ION     NA47742   9.535   3.214  10.430 -0.3003  0.1004 -0.2468
30219ION     NA47743  18.334  14.474  12.547  0.0023  0.3823  0.4998
30220ION     NA47744   8.907   9.797   5.278  0.0180 -0.0541  0.0933
30221ION     NA47745  14.968   9.329  10.095  0.2138 -0.0148 -0.1523
30222ION     NA47746  15.196   5.967  14.544  0.0337 -0.0884  0.1688
30223ION     NA47747  17.510  12.043  14.376  0.3986 -0.0857 -0.4352
30224ION     NA47748   3.780   1.138  15.364 -0.0103 -0.0901  0.0889
30225ION     NA47749  16.102   4.598  11.705  0.2440  0.0987 -0.0924
30226ION     NA47750   1.139   0.688   2.216  0.0919  0.1276 -0.1693
30227ION     NA47751   5.843  16.222  10.028  0.2908 -0.1568 -0.0442
30228ION     NA47752  11.424   1.284   5.570  0.1118  0.1365  0.3564
30229ION     NA47753   0.686  13.415   5.286  0.0632 -0.1697 -0.2076
30230ION     NA47754  11.316  10.707  10.368  0.2299  0.1528  0.0550
30231ION     NA47755   0.098   4.864   1.825 -0.3924  0.3085 -0.0275
30232ION     NA47756   4.784  10.609   5.439  0.0987 -0.0007  0.0950
30233ION     NA47757  11.069  15.488   6.107  0.0931 -0.1245 -0.0263
30234ION     NA47758   3.918  16.957   5.666 -0.2066  0.1601  0.3351
30235ION     NA47759  10.543  10.161   5.195  0.0526  0.1881  0.0945
30236ION     NA47760  12.641  16.453   6.194  0.0123 -0.0144  0.0024
30237ION     NA47761  17.932  14.523   1.994  0.1767  0.0631  0.0152
30238ION     NA47762   4.254   6.031  13.535  0.0097 -0.0280  0.0930
30239ION     NA47763  11.869   1.587   1.427 -0.0560 -0.1660  0.0822
30240ION     NA47764   1.411  14.250  10.521 -0.0611  0.0915 -0.0019
30241ION     NA47765  12.377  15.677   6.192  0.0188  0.3524  0.1545
30242ION     NA47766  14.397   4.217   5.245  0.1053  0.0364  0.1592
30243ION     NA47767   9.327   4.333   2.541  0.2394  0.2815 -0.1816
30244ION     NA47768  17.085  14.738   3.644  0.0517  0.1732 -0.0218
30245ION     NA47769  15.048  14.400   5.902  0.1970 -0.1585  0.1362
30246ION     NA47770  12.486   8.881   2.170  0.1186 -0.1076 -0.1404
30247ION     NA47771  11.287   7.290  10.280 -0.4015  0.3844 -0.0665
30248ION     NA47772  10.744   8.944  12.918 -0.1880 -0.2065 -0.3274
30249ION     NA47773  11.877   7.102   3.464  0.1558  0.0713 -0.1834
30250ION     NA47774   6.305   6.101   5.498  0.1638 -0.1383 -0.1849
30251ION     NA47775  17.096  16.775  10.651  0.2240  0.2588 -0.1081
30252ION     NA47776   4.605  15.794  10.269 -0.0665 -0.0031  0.2050
30253ION     NA47777   1.332   5.132   2.516 -0.1743 -0.0179  0.2803
30254ION     NA47778  14.887   6.232   2.364 -0.0519 -0.0260  0.0040
30255ION     NA47779  10.807  12.075  14.286  0.0552  0.2160  0.0140
30256ION     NA47780   3.945   8.392   0.004 -0.0762  0.0363  0.1197
30257ION     NA47781  15.084  16.596  10.674  0.2073 -0.1014 -0.1904
30258ION     NA47782   2.970  17.622   5.947  0.2609 -0.1593  0.0245
30259ION     NA47783   6.485  10.905   9.844  0.0174 -0.3448  0.1662
30260ION     NA47784  16.356  10.788   0.606 -0.3921 -0.0882 -0.0074
30261ION     NA47785   8.159  10.021  13.815  0.5292  0.2156 -0.1252
30262ION     NA47786   6.825   9.378  13.630  0.0411 -0.1146 -0.2139
30263ION     NA47787  17.483  11.022   0.237 -0.0789  0.1933  0.2405
30264ION     NA47788   1.461  14.521  15.364  0.2077  0.0732  0.1271
30265ION     NA47789  15.075   9.806   4.427  0.0617 -0.3329  0.1383
30266ION     NA47790   8.990   2.633   5.516  0.0971  0.2542 -0.2600
30267ION     NA47791   0.369  16.380  14.794  0.1410 -0.0183  0.2430
30268ION     NA47792   1.482   9.890  10.165 -0.3572 -0.1139 -0.0078
30269ION     NA47793  13.497   1.180  10.398 -0.0465  0.0672 -0.1798
30270ION     NA47794  17.895  13.939   0.595  0.0786 -0.1640  0.2456
30271ION     NA47795  11.483   9.813   5.266  0.1103  0.0645 -0.0754
30272ION     NA47796   8.455  10.396  12.991 -0.1170  0.1187 -0.0198
30273ION     NA47797  17.745   9.121  11.204  0.2285  0.0202 -0.2582
30274ION     NA47798  16.849   3.823   4.321  0.1116 -0.0852  0.3020
30275ION     NA47799   1.877  13.550  10.390  0.1270 -0.0554  0.0666
30276ION     NA47800  13.410  17.544  12.559  0.3705  0.1720 -0.0950
30277ION     NA47801   6.762   0.825   5.484 -0.0998 -0.3716 -0.0601
30278ION     NA47802  13.622  16.121   5.909 -0.2390  0.0826  0.0319
30279ION     NA47803   9.192  15.135   1.068  0.0944  0.1059 -0.1434
30280ION     NA47804  12.655   4.011  10.022 -0.0837  0.0193  0.0226
30281ION     NA47805  10.859   7.696   4.569  0.0006  0.1575 -0.1190
30282ION     NA47806   2.171  13.206   5.566  0.2371  0.1658 -0.0230
30283ION     NA47807   7.412  11.367  10.314  0.0792 -0.1916 -0.3358
30284ION     NA47808   2.003   0.743  15.616  0.0911 -0.1460  0.2552
30285ION     NA47809   6.397   3.580  11.435  0.1681 -0.1715  0.1586
30286ION     NA47810   8.095   2.409   5.559 -0.0459  0.3043  0.0578
30287ION     NA47811   6.831  16.827   5.321  0.2614 -0.0038 -0.2165
30288ION     NA47812   5.396  18.256  10.139 -0.2366  0.4145 -0.0531
30289ION     NA47813  14.577  13.043   5.623 -0.0444  0.1364 -0.4145
30290ION     NA47814   4.774   4.535  10.002 -0.0460  0.2530 -0.0788
30291ION     NA47815   2.498   6.220   0.251  0.2107  0.4178  0.0593
30292ION     NA47816  14.764   2.386   2.118  0.0101 -0.0212 -0.3995
30293ION     NA47817   9.830   7.218   5.506  0.1120 -0.0152  0.0599
30294ION     NA47818   7.690  14.750   5.460 -0.2140 -0.0287  0.0209
30295ION     NA47819   2.902  16.997   1.218  0.0445 -0.0576 -0.1757
30296ION     NA47820  14.320   8.395   0.690  0.0692  0.1465 -0.0838
30297ION     NA47821   5.375  15.154  15.288 -0.1818 -0.0847  0.0728
30298ION     NA47822  16.522   6.819   2.819 -0.2252 -0.1395 -0.2053
30299ION     NA47823  16.595   6.570   9.889 -0.0797 -0.1267  0.1380
30300ION     NA47824   5.908  15.437   5.603 -0.0377  0.4708 -0.0030
30301ION     NA47825  10.997  17.543  14.662 -0.1214  0.0113  0.1725
30302ION     NA47826   7.174   5.840  10.207  0.2062 -0.0686 -0.0698
30303ION     NA47827  12.379   3.905   5.174  0.1988 -0.6090 -0.0956
30304ION     NA47828  11.099   2.814  12.106 -0.2550  0.1507 -0.0071
30305ION     NA47829   3.076   2.404   0.368  0.0850 -0.4414  0.1066
30306ION     NA47830  10.278  15.019   6.031 -0.1792  0.3013 -0.0970
30307ION     NA47831  17.400   7.165   9.989  0.0580  0.2633  0.3502
30308ION     NA47832   1.914   9.040   9.908 -0.0332 -0.1810 -0.0284
30309ION     NA47833   3.578  18.430   5.543 -0.0790 -0.1070  0.1646
30310ION     NA47834   6.305   3.367   5.171 -0.0939  0.0611  0.3484
30311ION     NA47835  15.420   7.210   2.625 -0.0105  0.1360  0.1066
30312ION     NA47836   4.365   9.715  10.091  0.1766  0.1215  0.2213
30313ION     NA47837  18.195   1.715  15.524 -0.1151  0.1126 -0.1834
30314ION     NA47838   1.154  11.543  11.789  0.0577 -0.0754 -0.1659
30315ION     NA47839   8.365   0.416  13.302  0.0992 -0.2368 -0.0699
30316ION     NA47840   6.832   8.245  10.147  0.1241  0.2012 -0.1492
30317ION     NA47841   9.118  10.439   1.187 -0.0934 -0.0059 -0.2490
30318ION     NA47842   8.484  14.206  10.263 -0.0680  0.3986  0.3843
30319ION     NA47843  10.792   8.819   3.819 -0.1639 -0.2012  0.2783
30320ION     NA47844  11.618  14.329   3.059 -0.0090 -0.0530  0.0379
30321ION     NA47845  18.136   7.302   1.366  0.3470  0.3053 -0.1659
30322ION     NA47846  17.723  11.432   5.384  0.1504 -0.3919  0.0862
30323ION     NA47847   0.794  10.219  13.101  0.0469  0.1511  0.1286
30324ION     NA47848   6.267   8.549   4.540  0.1625 -0.1450 -0.2632
30325ION     NA47849   5.945   3.584   2.635  0.0982 -0.1448 -0.0122
30326ION     NA47850   7.386  12.059   3.025  0.2677  0.1816  0.1280
30327ION     NA47851   4.156   5.774   5.105 -0.1963  0.1388  0.2017
30328ION     NA47852  13.782   7.633   1.343 -0.0932 -0.3150  0.0361
30329ION     NA47853   1.307  10.024   5.757 -0.1102 -0.3769  0.0159
30330ION     NA47854   2.253  11.740  10.459  0.2235 -0.0164  0.2344
30331ION     NA47855   1.414   6.436   5.557 -0.0584  0.0756 -0.1376
30332ION     NA47856   0.268  12.502   0.189  0.0192  0.2242  0.0172
30333ION     NA47857   1.163  13.363  10.103 -0.1294 -0.0694  0.0681
30334ION     NA47858   9.573  12.430   3.518 -0.1463 -0.1588 -0.2359
30335ION     NA47859   9.812   6.598  10.056 -0.0574 -0.0269 -0.3115
30336ION     NA47860  17.554   4.093   4.889  0.3199  0.3801 -0.0125
30337ION     NA47861   9.161   2.285  10.587 -0.0823 -0.3518  0.1519
30338ION     NA47862  16.237  10.350   5.019  0.0871  0.1089 -0.1070
30339ION     NA47863   0.604  10.106  10.398 -0.1019  0.0371  0.2838
30340ION     NA47864   5.601   2.270  13.134 -0.1426  0.3088  0.4174
30341ION     NA47865   8.401  11.789   5.523  0.1214  0.0831  0.1221
30342ION     NA47866  11.720   1.522  14.939 -0.1639 -0.1306 -0.1149
30343ION     NA47867  16.041   5.191  10.001 -0.1464 -0.1571 -0.0046
30344ION     NA47868   1.695   3.523   5.403 -0.1828  0.0708  0.3459
30345ION     NA47869  16.179   6.742   5.127 -0.1099 -0.2225  0.1163
30346ION     NA47870   4.713  14.367  14.420  0.3600 -0.0306 -0.0351
30347ION     NA47871  13.677  12.852  10.333  0.4148 -0.1053 -0.1451
30348ION     NA47872  18.355   6.956   5.525  0.0846  0.3814  0.3697
30349ION     NA47873   7.441  12.489   5.378  0.2648 -0.1639 -0.2860
30350ION     NA47874   0.214   3.369   2.836 -0.0959 -0.2112  0.3110
30351ION     NA47875  14.671   8.807   5.455 -0.2156  0.1644  0.1724
30352ION     NA47876  14.996  14.948  11.102 -0.1656 -0.1101  0.0205
30353ION     NA47877  13.780  15.258   1.438  0.0223 -0.1741 -0.2021
30354ION     NA47878   8.000  15.194   1.503  0.2699 -0.2059 -0.2933
30355ION     NA47879  10.750  10.491  10.398 -0.2246 -0.3638  0.0699
30356ION     NA47880   9.191  14.067   5.731  0.0193  0.1043 -0.0877
30357ION     NA47881   7.421  17.221  13.909  0.0344 -0.1976  0.0431
30358ION     NA47882  13.302   7.898   2.080  0.1030 -0.0468  0.1924
30359ION     NA47883   2.817   2.571  10.368  0.0168 -0.1882  0.3611
30360ION     NA47884   3.712   4.775   1.314 -0.2028  0.0100  0.0119
30361ION     NA47885  14.260  15.692   0.205  0.0819  0.2963 -0.1550
30362ION     NA47886  11.646  11.104  13.922  0.3764 -0.0625 -0.0309
30363ION     NA47887   7.298  17.538  10.207  0.3712 -0.1967  0.0737
30364ION     NA47888   8.025  18.265  10.225  0.1903  0.1552 -0.2232
30365ION     NA47889  18.478  10.413   5.144  0.0492  0.1626 -0.1690
30366ION     NA47890  18.132  13.236   2.092 -0.0152  0.1698 -0.1006
30367ION     NA47891   1.318   3.966   1.675  0.1031 -0.3227 -0.0590
30368ION     NA47892   1.124  16.326   5.612  0.1376  0.1282 -0.3040
30369ION     NA47893  11.873   2.067   5.330 -0.1121  0.3591  0.0250
30370ION     NA47894  15.765   6.850   9.508  0.0096  0.0260  0.2335
30371ION     NA47895  18.262   0.139   2.148  0.0217 -0.1007  0.1703
30372ION     NA47896  15.794   3.049  14.725  0.0517 -0.0239  0.1308
30373ION     NA47897  18.106  17.762   0.523  0.1659 -0.1634 -0.0759
30374ION     NA47898  11.215   2.502   3.866  0.2214  0.3790 -0.1555
30375ION     NA47899   0.082   9.661  10.269  0.1132 -0.1082  0.2555
30376ION     NA47900  16.138   3.636  12.783  0.0038  0.1737  0.0721
30377ION     NA47901   7.361  17.452   2.406 -0.3733 -0.0296  0.4060
30378ION     NA47902   9.691  10.370   5.382 -0.0985 -0.0566  0.2006
30379ION     NA47903  14.022   1.297   4.399 -0.1262  0.1905 -0.2977
30380ION     NA47904  10.424   6.696  14.434  0.2158 -0.2580 -0.0050
30381ION     NA47905   3.331   9.280   5.487  0.0479  0.1229  0.0520
30382ION     NA47906   3.858  13.497   5.654 -0.2382 -0.1280 -0.2206
30383ION     NA47907  10.844  13.225  10.431 -0.1006  0.2284  0.0540
30384ION     NA47908   5.607   5.404   9.968 -0.1906  0.1240  0.0036
30385ION     NA47909  13.555  10.914   4.866  0.1876  0.1162  0.0911
30386ION     NA47910   0.572   0.206  15.591 -0.3072  0.3618 -0.2129
30387ION     NA47911   1.631  12.494   5.458 -0.1988 -0.0635 -0.1087
30388ION     NA47912   6.453  14.179  10.325  0.3403 -0.0237 -0.2229
30389ION     NA47913  15.377  10.140   5.374 -0.1164  0.0321  0.0663
30390ION     NA47914  12.056   5.601   5.374 -0.1205  0.0495  0.0096
30391ION     NA47915  14.475   2.408   4.410  0.3627  0.0405 -0.0965
30392ION     NA47916  15.830  11.444   5.331 -0.1239 -0.0534  0.0549
30393ION     NA47917   5.075   6.362  12.331 -0.0682  0.4499  0.3477
30394ION     NA47918   8.257   1.808  13.326  0.1839  0.0659  0.0984
30395ION     NA47919  15.866  17.422   4.211  0.1062  0.0325  0.1143
30396ION     NA47920   1.041  11.891   2.811 -0.0669  0.3906  0.0456
30397ION     NA47921   9.683   7.325   4.250  0.1664 -0.2958  0.0033
30398ION     NA47922   0.570  15.256   6.030 -0.0152  0.0395 -0.0223
30399ION     NA47923  12.023  11.574  13.295 -0.2669 -0.0849 -0.0236
30400ION     NA47924  15.683  17.080   3.297  0.1134  0.2172  0.3733
30401ION     NA47925  12.071  11.390  10.582  0.1630 -0.1121 -0.2466
30402ION     NA47926  17.220  13.880   4.840 -0.2334 -0.2002  0.0153
30403ION     NA47927  17.562   3.696   9.999 -0.1393  0.1571 -0.0164
30404ION     NA47928   7.930   9.743   5.523 -0.3416 -0.3269 -0.2658
30405ION     NA47929   9.276  14.327  10.827 -0.0009  0.2558  0.1127
30406ION     NA47930   7.669   3.687   5.163 -0.2649 -0.0874 -0.1456
30407ION     NA47931   0.367  16.317   1.827  0.0378 -0.0299  0.2968
30408ION     NA47932  10.739  17.983  13.233 -0.0733  0.1551 -0.0368
30409ION     NA47933  15.199   1.579   5.419  0.1728  0.0096 -0.2793
30410ION     NA47934   6.211   3.281   0.077 -0.2183  0.1707 -0.2743
30411ION     NA47935   1.515  11.485  12.665 -0.0174 -0.1788  0.2065
30412ION     NA47936  18.455  12.636  10.067 -0.1954  0.2374 -0.0912
30413ION     NA47937  16.411   2.173  10.783 -0.0463  0.1609 -0.1767
30414ION     NA47938   4.258  10.733  10.080 -0.0412 -0.0031 -0.0776
30415ION     NA47939  18.072  18.397   1.078 -0.1657  0.1825 -0.0509
30416ION     NA47940  13.164   3.940   5.085 -0.0600 -0.0095 -0.2941
30417ION     NA47941  16.191   3.023  10.258  0.2416 -0.0785  0.0101
30418ION     NA47942  17.440  17.805   3.919  0.0130 -0.0662  0.1119
30419ION     NA47943   0.809   6.618  10.198 -0.2114 -0.0164 -0.1669
30420ION     NA47944  11.091   5.391   5.259 -0.0020 -0.0790  0.0563
30421ION     NA47945   9.585   3.521   5.226  0.3363  0.3070 -0.2035
30422ION     NA47946  15.745   2.883  11.835 -0.0702  0.0639 -0.0847
30423ION     NA47947   6.962   4.419  10.139 -0.0900  0.0187  0.2003
30424ION     NA47948  14.942   0.947   0.606  0.2327  0.0111 -0.1531
30425ION     NA47949   2.989  11.960   5.257  0.0964 -0.2931  0.3189
30426ION     NA47950   5.998  18.086   2.223 -0.3660  0.0778  0.1631
30427ION     NA47951  10.577   7.425  10.146  0.0671  0.0692 -0.3762
30428ION     NA47952   1.406  18.457   5.838  0.0212  0.1598  0.1710
30429ION     NA47953  17.693  12.054   0.265 -0.3705 -0.3418 -0.0792
30430ION     NA47954   8.721  12.625   0.878 -0.0504 -0.1887  0.2175
30431ION     NA47955   5.933  12.266  14.746  0.2505  0.1363  0.1110
30432ION     NA47956  15.655  17.812  10.846 -0.1776 -0.0193  0.2242
30433ION     NA47957   8.718  17.750   2.436 -0.0746 -0.2019 -0.2317
30434ION     NA47958  14.407  17.231  10.760 -0.1765  0.1346  0.2360
30435ION     NA47959  16.998   1.385  10.725  0.0598  0.0873  0.0376
30436ION     NA47960   2.065   7.326  10.217 -0.2621  0.1693  0.1619
30437ION     NA47961   6.066   6.926   9.947 -0.2397 -0.4656 -0.1224
30438ION     NA47962   5.615   0.672  12.122 -0.0540  0.1840  0.0113
30439ION     NA47963   1.831  14.534   2.820  0.0602 -0.5748  0.2163
30440ION     NA47964  11.963  17.210   4.608 -0.1772 -0.2314  0.1701
30441ION     NA47965  12.558   8.079   5.652 -0.1182  0.0044  0.1082
30442ION     NA47966  11.537   3.824   5.409  0.2079  0.0522 -0.1014
30443ION     NA47967   1.424  18.408  15.350 -0.0805  0.1289 -0.0263
30444ION     NA47968  10.020   2.337  10.445  0.1485 -0.0696 -0.0374
30445ION     NA47969   5.606  11.948   4.083  0.2173 -0.0983  0.2075
30446ION     NA47970  11.767   8.360   3.777 -0.1509 -0.0595 -0.2366
30447ION     NA47971   4.335   8.541   9.875 -0.5100 -0.0266  0.1426
30448ION     NA47972  13.624   8.538   4.647 -0.2343  0.1321 -0.1191
30449ION     NA47973  17.814   7.910   9.904 -0.0582 -0.1499 -0.2934
30450ION     NA47974  16.120   7.542   9.716  0.2379 -0.0258 -0.2775
30451ION     NA47975  14.795  17.097   0.872 -0.1675 -0.1362 -0.0053
30452ION     NA47976   2.481   2.785  14.983  0.0043  0.2410  0.0495
30453ION     NA47977  11.160   8.983   5.454  0.0573  0.0061  0.1244
30454ION     NA47978   3.222   3.787   5.267 -0.2300 -0.1570 -0.0936
30455ION     NA47979  15.234   0.754  10.255 -0.3142  0.3535  0.0656
30456ION     NA47980  18.159   2.124   5.826 -0.0807  0.0138 -0.3034
30457ION     NA47981   6.356   6.001   9.720 -0.2680  0.0469 -0.2392
30458ION     NA47982  15.051  17.753  14.164 -0.0507 -0.1213 -0.3832
30459ION     NA47983   9.897  12.714   5.922  0.1078  0.2033  0.2485
30460ION     NA47984   8.146  14.235   1.462  0.1269  0.3260  0.1449
30461ION     NA47985  14.895   7.017   5.438  0.0617 -0.0680 -0.1043
30462ION     NA47986   5.442   1.900   5.746 -0.1340  0.1441  0.1354
30463ION     NA47987  15.663   3.763  10.097 -0.1321  0.1285  0.0645
30464ION     NA47988  12.022   0.676   5.857 -0.1412  0.0331 -0.0426
30465ION     NA47989  11.408  13.165  10.544  0.0477 -0.0619 -0.0457
30466ION     NA47990  12.876   5.068   4.833  0.1753 -0.1487  0.0478
30467ION     NA47991   5.476   2.122  15.524  0.4603  0.0378  0.1771
30468ION     NA47992   3.655   3.755   9.963  0.2295  0.0471 -0.0563
30469ION     NA47993  10.018   1.452  10.435 -0.2999 -0.1405  0.2865
30470ION     NA47994  15.206  10.751  10.811 -0.3784  0.1462 -0.1288
30471ION     NA47995   8.048   2.212  15.033  0.2629 -0.0921  0.2173
30472ION     NA47996   7.017  15.351   1.600  0.2721 -0.0966  0.3489
30473ION     NA47997   8.154   0.640  10.292 -0.0524  0.0378 -0.2128
30474ION     NA47998   8.364   8.886   5.314  0.2608  0.0572  0.2313
30475ION     NA47999  13.682  10.562  13.635  0.0088  0.1371  0.0863
30476ION     NA48000   0.244  10.930  10.495 -0.2388  0.3843 -0.0090
30477ION     NA48001  15.107   9.172  14.416  0.0675 -0.2273  0.3752
30478ION     NA48002   2.084  16.901  12.266 -0.0224 -0.3695 -0.2553
30479ION     NA48003  18.075  11.506  10.130 -0.1434 -0.0661  0.1204
30480ION     NA48004  13.251  16.138  10.693 -0.0731 -0.1338 -0.0631
30481ION     NA48005  18.159  14.703   0.358  0.0911  0.1339 -0.1862
30482ION     NA48006   7.878   0.045   1.433  0.1221  0.2707  0.1351
30483ION     NA48007   1.782  14.672   5.994  0.0592  0.2832  0.2135
30484ION     NA48008  10.032  14.673  14.795  0.1509  0.0104  0.0836
30485ION     NA48009   2.654   0.009   1.084 -0.3399  0.0041 -0.2576
30486ION     NA48010  15.285   8.241  15.048 -0.0554  0.1812 -0.0350
30487ION     NA48011   8.751   0.061  10.332 -0.2741  0.0545  0.1009
30488ION     NA48012  17.747  13.737   5.157  0.2016 -0.1283  0.0169
30489ION     NA48013  17.033   3.040   5.527 -0.0093 -0.2712  0.1839
30490ION     NA48014   2.038   2.507   5.619 -0.3499 -0.1659 -0.1705
30491ION     NA48015   8.818   1.184   5.351 -0.5734  0.0760  0.2866
30492ION     NA48016   1.467   4.944  10.374  0.2533 -0.2237 -0.1609
30493ION     NA48017   5.097  16.631  10.341  0.3251 -0.2194 -0.2822
30494ION     NA48018   2.260  14.432  10.308 -0.1555 -0.0913  0.0662
30495ION     NA48019   3.976   1.203  10.772  0.3882  0.2227  0.2300
30496ION     NA48020   2.508  17.103  10.716  0.1797  0.3137  0.3214
30497ION     NA48021   9.453  14.536   0.220 -0.0672  0.1489 -0.3708
30498ION     NA48022   7.504  16.508  10.237  0.2063 -0.0794  0.1165
30499ION     NA48023   7.658   1.180   5.409  0.2086  0.1569  0.1189
30500ION     NA48024  11.169   2.841  14.346 -0.2877 -0.1218 -0.0376
30501ION     NA48025  18.112  15.675  13.687  0.0014  0.0555 -0.1385
30502ION     NA48026  14.013  10.245  13.402  0.2884  0.0021 -0.3323
30503ION     NA48027   7.047   3.638   2.353  0.2505 -0.0582 -0.4478
30504ION     NA48028  16.262   4.392  15.016 -0.3067 -0.0169 -0.3850
30505ION     NA48029  11.965   0.266   1.177 -0.4189 -0.1528 -0.0411
30506ION     NA48030   3.878  17.417  10.132  0.0060 -0.1053  0.2114
30507ION     NA48031  17.698   1.866  10.443 -0.3293 -0.3125 -0.0754
30508ION     NA48032  13.805   1.382  11.166 -0.1946  0.1387 -0.2729
30509ION     NA48033   7.029   1.786   5.364 -0.0955  0.1940  0.0293
30510ION     NA48034  17.286  12.027   5.058  0.0644  0.2424  0.1540
30511ION     NA48035  10.902  13.217   0.962 -0.0328  0.0279  0.0047
30512ION     NA48036   6.764  14.496   5.559  0.1581 -0.2040  0.1585
30513ION     NA48037   0.427   6.526   5.638  0.0376 -0.2805  0.3712
30514ION     NA48038   8.092  15.067  10.424  0.2291  0.0490  0.2427
30515ION     NA48039   5.614   8.136   5.447 -0.2253 -0.1708  0.0257
30516ION     NA48040   2.865  13.602   0.070  0.0118  0.0898  0.0546
30517ION     NA48041  17.040  10.959   4.293 -0.1093 -0.0988 -0.0491
30518ION     NA48042  13.773  10.054   5.097 -0.1259 -0.2024 -0.0725
30519ION     NA48043  12.134   3.306   0.973  0.0870  0.1410  0.2879
30520ION     NA48044   4.424   4.364   5.330 -0.1776 -0.2409 -0.1238
30521ION     NA48045  13.255  17.044   6.246  0.0976 -0.0348 -0.0633
30522ION     NA48046   0.795  12.865  13.183 -0.2536 -0.0554 -0.1065
30523ION     NA48047  10.169  11.421  13.942  0.1573  0.0067 -0.4164
30524ION     NA48048  17.554   9.289  10.249 -0.1342  0.2338  0.0523
30525ION     NA48049   3.811  16.216  12.626  0.2209  0.2591  0.3489
30526ION     NA48050   2.749   0.025  10.978 -0.1528  0.2233 -0.2580
30527ION     NA48051   0.052   1.810   3.362  0.2080 -0.0870  0.1506
30528ION     NA48052   5.492   5.271   2.625 -0.0434 -0.2186 -0.0753
30529ION     NA48053  13.350   5.798  10.211  0.0047 -0.2248 -0.2730
30530ION     NA48054  10.199  14.610  10.717  0.2032  0.2238 -0.0509
30531ION     NA48055   8.660   8.464   0.168 -0.0722  0.1243  0.1861
30532ION     NA48056  15.258   2.856   0.211 -0.1977  0.0214  0.0130
30533ION     NA48057   1.561   0.863  10.607  0.1609  0.3763 -0.2687
30534ION     NA48058   1.457   1.243  13.913  0.2091 -0.2078 -0.0919
30535ION     NA48059  12.924   0.752   5.827  0.0079  0.2114  0.0331
30536ION     NA48060  10.365   7.171  12.372  0.1962  0.0582 -0.2163
30537ION     NA48061   8.252  10.776   1.582  0.0657  0.2077  0.0053
30538ION     NA48062   3.856   4.745   9.960  0.1741  0.1273  0.1391
30539ION     NA48063   1.090   8.144   3.004  0.0640 -0.0618  0.0076
30540ION     NA48064  11.032   1.009  10.384  0.2181  0.0464 -0.2645
30541ION     NA48065   3.085  13.334   5.656 -0.0746 -0.1981  0.0909
30542ION     NA48066   2.519  11.743   2.339 -0.1114 -0.2193  0.0553
30543ION     NA48067  17.311  18.317  10.556 -0.1869  0.0965 -0.2083
30544ION     NA48068   1.621  15.595  11.605 -0.3044 -0.1256  0.0022
30545ION     NA48069  10.801   6.672   5.726  0.4562  0.0689 -0.1669
30546ION     NA48070   4.577  13.547   4.580 -0.2685  0.0616  0.0507
30547ION     NA48071  11.493  12.027   4.475  0.5164  0.4164  0.0434
30548ION     NA48072   4.087  14.673   0.642  0.0868  0.1903  0.0885
30549ION     NA48073   1.270   6.356   0.486 -0.1081 -0.0571 -0.1796
30550ION     NA48074   5.674  12.049   5.538 -0.3227  0.0529 -0.0319
30551ION     NA48075   8.513  16.250  14.447 -0.1592  0.1147  0.2255
30552ION     NA48076   0.960  16.745  10.627 -0.1309  0.0321 -0.0393
30553ION     NA48077   1.385  11.534   5.511  0.3052 -0.1863 -0.2396
30554ION     NA48078  14.756  14.329  10.521  0.0359  0.0474 -0.1327
30555ION     NA48079   6.132  14.510  12.347 -0.2528  0.1761 -0.1299
30556ION     NA48080   9.768  18.326   5.500 -0.1045  0.0196 -0.0665
30557ION     NA48081  11.199   3.518  10.371  0.0141  0.4843 -0.0871
30558ION     NA48082  12.751   7.493   5.783 -0.2033 -0.0360  0.0647
30559ION     NA48083   0.519  11.758  10.177  0.2930 -0.2326  0.0777
30560ION     NA48084   2.403   0.229   5.850 -0.1530  0.0807 -0.0277
30561ION     NA48085   5.005   4.374   0.643 -0.3716 -0.1505  0.1226
30562ION     NA48086  17.472   8.770   5.098 -0.2389 -0.0329 -0.0243
30563ION     NA48087  18.469  14.378   5.907  0.2149 -0.2059  0.0513
30564ION     NA48088   6.941   5.612  15.235 -0.1178  0.0571 -0.1178
30565ION     NA48089  12.683   0.731  10.355  0.1629  0.0696  0.0930
30566ION     NA48090  17.080   4.440  10.040 -0.2293  0.0813 -0.1664
30567ION     NA48091   3.789   1.172   5.961 -0.2402 -0.2126 -0.0495
30568ION     NA48092  12.609   0.070   5.577  0.2091 -0.0441  0.2543
30569ION     NA48093  11.773   6.478  10.101  0.0191  0.3510  0.0421
30570ION     NA48094  14.642   7.826   4.278  0.4170 -0.2041  0.2606
30571ION     NA48095   8.753  13.136   3.669 -0.1247 -0.0924 -0.1155
30572ION     NA48096   0.966   7.234   5.372 -0.0247  0.1089  0.0881
30573ION     NA48097   7.906   1.053   2.435 -0.0923  0.3250  0.0917
30574ION     NA48098  17.590  12.399   9.819 -0.1023 -0.3418 -0.2740
30575ION     NA48099  16.698   4.681  10.241 -0.3382  0.0014 -0.1269
30576ION     NA48100   0.299   2.405  10.361  0.0324 -0.1788 -0.0937
30577ION     NA48101   4.179  17.375  11.568  0.0826 -0.1946  0.0339
30578ION     NA48102   9.941  17.580  15.264  0.1445 -0.1639  0.0192
30579ION     NA48103   0.490   8.169   5.535 -0.1851  0.1736  0.0368
30580ION     NA48104   8.389   6.228   1.812 -0.0735 -0.0829  0.2649
30581ION     NA48105  13.119  15.234   6.031  0.3865  0.0639 -0.0109
30582ION     NA48106   4.394  15.364   5.431  0.1307  0.1875  0.2494
30583ION     NA48107   7.220   9.540   5.165  0.2847 -0.1479  0.0106
30584ION     NA48108  10.733  18.330   5.756 -0.0376  0.1872  0.0538
30585ION     NA48109  10.341   8.332  10.074  0.1057 -0.1360  0.1544
30586ION     NA48110   3.617  10.317  15.552  0.1872 -0.1305 -0.0581
30587ION     NA48111  16.896  11.147   5.173  0.0174  0.0734  0.0483
30588ION     NA48112   2.180   3.996  12.249 -0.0342  0.1853 -0.0684
30589ION     NA48113   7.557  13.372   2.872  0.2343  0.2481 -0.0767
30590ION     NA48114  16.768  14.155  10.206  0.2102 -0.3137 -0.2591
30591ION     NA48115   3.396  15.802   5.861 -0.3350 -0.1435  0.1468
30592ION     NA48116  16.301  13.645   1.022 -0.1334 -0.4639  0.1811
30593ION     NA48117   9.195   1.174  10.837  0.1933  0.0019 -0.5150
30594ION     NA48118   2.644   6.767   5.237  0.0238 -0.1729 -0.3132
30595ION     NA48119  13.761   2.522  14.196  0.1475 -0.2276  0.1280
30596ION     NA48120   2.847  13.809   5.509 -0.0663  0.0073 -0.3211
30597ION     NA48121  14.493  11.709   5.324  0.0632  0.0042 -0.0648
30598ION     NA48122   7.257   2.803  10.632 -0.1445  0.1968  0.1435
30599ION     NA48123  10.689   8.622  11.987 -0.1410  0.0877 -0.0943
30600ION     NA48124  12.907   8.267   5.228 -0.4055 -0.0530  0.0707
30601ION     NA48125   6.811   3.077   4.326 -0.0537  0.3807  0.5024
30602ION     NA48126   7.021   3.884  14.141  0.1637 -0.0453 -0.0171
30603ION     NA48127   3.979   6.317  15.627  0.2531  0.0645 -0.0429
30604ION     NA48128   6.492  10.136  15.216 -0.4435  0.0736 -0.1108
30605ION     NA48129  15.159  13.629   5.359  0.3289 -0.0774  0.0271
30606ION     NA48130   5.339   9.384   3.275  0.0362  0.1894 -0.0354
30607ION     NA48131   8.958   4.701  15.698 -0.0717 -0.1833 -0.0475
30608ION     NA48132   9.001  10.603  10.003 -0.2357 -0.1721 -0.2116
30609ION     NA48133   1.175   7.474  10.383  0.0349 -0.2698 -0.2593
30610ION     NA48134  12.035  17.052   5.773  0.0358  0.1062 -0.0475
30611ION     NA48135  17.364   1.083   5.957  0.1008  0.1134 -0.1840
30612ION     NA48136  16.780   5.220  13.158 -0.2756  0.0187  0.1172
30613ION     NA48137  10.377   0.081  10.296 -0.2129 -0.0392  0.1939
30614ION     NA48138  13.952   0.437  10.239  0.0278  0.0433  0.0158
30615ION     NA48139   5.485  13.379  10.471  0.0102  0.0441 -0.0454
30616ION     NA48140   3.288   6.571   5.567 -0.1136 -0.2950 -0.0755
30617ION     NA48141   4.517   7.252  14.991 -0.1202  0.2442 -0.1140
30618ION     NA48142   5.292   4.337   2.552 -0.0423 -0.0465  0.0207
30619ION     NA48143   6.356  17.688  12.089  0.1404  0.1166  0.1383
30620ION     NA48144   3.225  10.510  12.243 -0.0140 -0.1116 -0.1979
30621ION     NA48145   7.888  12.862  13.746  0.0193  0.2255 -0.1086
30622ION     NA48146  17.269   4.841   3.250 -0.1330  0.1342  0.1524
30623ION     NA48147   2.791   6.113   1.609  0.0916 -0.0575  0.0869
30624ION     NA48148   1.835   6.119   1.086 -0.1178  0.0623 -0.1646
30625ION     NA48149  11.846  13.331   5.653  0.4415  0.0673  0.1258
30626ION     NA48150  14.496   8.667  10.155  0.0582 -0.1466  0.1231
30627ION     NA48151  12.386   9.161  10.117  0.1466 -0.2370 -0.2383
30628ION     NA48152  11.513   5.220   2.380 -0.0294  0.0685 -0.2306
30629ION     NA48153  14.108  15.477  10.541 -0.0322 -0.0951 -0.0432
30630ION     NA48154   0.168  12.569  11.941  0.0006  0.1396  0.0860
30631ION     NA48155  17.486   8.252   0.268  0.5453 -0.2211  0.0405
30632ION     NA48156  16.914   7.014  15.414  0.0725  0.2883 -0.0021
30633ION     NA48157  11.129  13.781   6.118 -0.0148  0.3798  0.1141
30634ION     NA48158  15.069  11.989   2.985  0.0513 -0.2411  0.1865
30635ION     NA48159   3.886   7.758   1.829 -0.0135 -0.1678 -0.0421
30636ION     NA48160   3.959  12.292   3.902  0.0464  0.0553  0.0456
30637ION     NA48161   2.552  17.240   6.064  0.3758 -0.0423  0.0219
30638ION     NA48162  11.138   2.950   5.506  0.2825 -0.2659 -0.1331
30639ION     NA48163  16.669  11.229   2.221  0.0385  0.4862 -0.0711
30640ION     NA48164  10.070   9.198  10.048  0.0519  0.1624  0.1320
30641ION     NA48165   0.582   2.053   5.629 -0.0772 -0.0961  0.3048
30642ION     NA48166  15.923  16.684   2.094 -0.0622 -0.1472  0.0287
30643ION     NA48167   0.920  17.629   5.971  0.1030  0.1843  0.1219
30644ION     NA48168   7.391  16.056  15.450 -0.0633 -0.1363  0.2005
30645ION     NA48169   3.686   1.471  10.396  0.1216 -0.1381 -0.1606
30646ION     NA48170   7.653  11.473  12.133 -0.0176  0.0286 -0.2923
30647ION     NA48171   9.889   5.409  12.090 -0.0254 -0.1234  0.0159
30648ION     NA48172  18.136   5.035  13.780  0.1184  0.1222 -0.1471
30649ION     NA48173  10.341  10.424   1.678  0.1276 -0.2817  0.1241
30650ION     NA48174  14.397  16.655   5.715  0.1746 -0.2749 -0.0295
30651ION     NA48175   0.476  14.136  13.419  0.0380 -0.0788  0.4680
30652ION     NA48176   0.941   3.259  10.093  0.1353  0.4416 -0.2443
30653ION     NA48177  11.905   2.889  11.044 -0.1615 -0.3510  0.1516
30654ION     NA48178  14.666   2.412  10.792  0.1334 -0.2075 -0.0667
30655ION     NA48179  13.504   5.612   4.583 -0.1232 -0.3412 -0.1211
30656ION     NA48180  10.483   4.427   3.198  0.3509 -0.0614 -0.3453
30657ION     NA48181   4.626   1.533   5.981 -0.1056 -0.2610  0.1041
30658ION     NA48182  16.306  14.232  14.883 -0.3128 -0.1180  0.0696
30659ION     NA48183   9.859  15.141  10.859 -0.1569  0.0669  0.1978
30660ION     NA48184   2.430   5.064  10.220 -0.3849  0.1178  0.1704
30661ION     NA48185   6.797  15.284   5.182 -0.0009  0.2267  0.1144
30662ION     NA48186   0.674   0.231  10.536 -0.1738  0.1788 -0.4914
30663ION     NA48187   2.216  11.718   5.548 -0.2957  0.3290  0.0103
30664ION     NA48188  11.819  12.687   5.514 -0.3065  0.1951 -0.0237
30665ION     NA48189   3.639  17.533   4.511  0.0765  0.0927  0.1808
30666ION     NA48190  17.355  18.449   6.049  0.1419 -0.0707  0.1245
30667ION     NA48191  14.110  18.274   0.014  0.0308 -0.0593 -0.0724
30668ION     NA48192  15.041   8.697   2.888 -0.2480 -0.3295  0.1185
30669ION     NA48193   1.707   8.152  10.054  0.0603  0.1805  0.3285
30670ION     NA48194   6.368  17.488   0.187  0.0716  0.4266  0.0944
30671ION     NA48195   9.663   2.841   3.409 -0.1575 -0.0519  0.0995
30672ION     NA48196  11.552  14.853  10.694  0.2298  0.0828  0.0064
30673ION     NA48197  13.504  12.613   5.651  0.5044  0.1471  0.3520
30674ION     NA48198  12.462   2.444   2.080  0.0370 -0.1352  0.2518
30675ION     NA48199   2.554   8.748   5.171  0.1207  0.0425  0.2157
30676ION     NA48200  14.158   9.828  15.503  0.2018  0.2221  0.1536
30677ION     NA48201   6.368  16.080   5.260  0.1548 -0.2929 -0.1110
30678ION     NA48202  14.165   3.305   5.322  0.0232 -0.3419  0.2071
30679ION     NA48203   6.143   1.502   1.098 -0.0270 -0.1181  0.0470
30680ION     NA48204  14.405  12.583   5.670 -0.1150  0.0123 -0.2421
30681ION     NA48205  10.493   2.262   0.242  0.1152 -0.1200 -0.2365
30682ION     NA48206  14.809   8.415  10.974 -0.3064 -0.2007 -0.1278
30683ION     NA48207   5.070   4.924   3.284  0.3933 -0.3213 -0.2203
30684ION     NA48208   5.034  15.081  12.352  0.1838  0.2728  0.1293
30685ION     NA48209  14.068  11.377   9.997  0.2084  0.1850 -0.1334
30686ION     NA48210   7.937   0.082   0.255 -0.2219 -0.0592 -0.1846
30687ION     NA48211  13.108  13.548   5.565 -0.0178 -0.1975  0.1047
30688ION     NA48212   8.325   9.091  10.168 -0.0257  0.1510  0.0876
30689ION     NA48213   3.375   6.626  10.058  0.2294 -0.1612 -0.0124
30690ION     NA48214  17.251   2.523  10.144  0.1550  0.0918  0.3391
30691ION     NA48215  17.979  17.470   6.156 -0.3558  0.4584  0.0248
30692ION     NA48216  16.657   5.527   5.268 -0.1201 -0.0724 -0.3643
30693ION     NA48217  17.127  16.243  10.704  0.3284 -0.1350 -0.3240
30694ION     NA48218  14.131   9.259  13.628  0.1464 -0.2225 -0.0291
30695ION     NA48219  10.679   7.859   2.207 -0.0552 -0.0512 -0.0485
30696ION     NA48220  15.044  11.004   5.634  0.1235  0.1325 -0.2097
30697ION     NA48221   1.554   8.559  10.586  0.2346  0.2462  0.1224
30698ION     NA48222  13.289  10.384  10.854 -0.2177  0.3740 -0.0025
30699ION     NA48223  11.689  14.177   2.175 -0.0159 -0.4230  0.3482
30700ION     NA48224   0.040  16.507  10.583 -0.4033 -0.2134 -0.0634
30701ION     NA48225   8.050   6.413  10.258 -0.0920 -0.0050 -0.1335
30702ION     NA48226  16.735   9.614   3.808 -0.2903  0.3680 -0.1480
30703ION     NA48227   9.720  17.342   0.600  0.0704  0.1106 -0.1024
30704ION     NA48228   3.775   5.924  11.688  0.3738 -0.3462 -0.2076
30705ION     NA48229   5.002  14.537   5.434 -0.1117  0.0347 -0.0245
30706ION     NA48230  10.975  18.000   0.228  0.1559  0.0618 -0.0328
30707ION     NA48231   9.296  17.353   4.667  0.1221  0.2956 -0.0942
30708ION     NA48232  15.478  15.157   6.015 -0.0850 -0.1876  0.0425
30709ION     NA48233   6.424  13.762   0.227  0.2259 -0.0623  0.3222
30710ION     NA48234   4.597   9.388   5.528  0.0082 -0.3092 -0.0763
30711ION     NA48235   1.039   6.381  10.864  0.1921 -0.0488  0.1469
30712ION     NA48236  18.393   3.308  10.165 -0.0165  0.1045  0.1138
30713ION     NA48237  11.885  16.170  10.768  0.0582 -0.1195 -0.2238
30714ION     NA48238   5.225   6.365  10.058  0.0740 -0.1533  0.4270
30715ION     NA48239   6.219   5.302   1.358 -0.0655 -0.0362  0.1018
30716ION     NA48240  13.231  16.364   2.597 -0.3411 -0.1426 -0.0430
30717ION     NA48241  16.130  18.043   0.759 -0.0168  0.0047  0.2535
30718ION     NA48242  17.653  14.680  13.902  0.1348 -0.0227  0.1132
30719ION     NA48243  12.555  17.085   3.052  0.0417  0.0619  0.2510
30720ION     NA48244  18.183   0.463  10.572  0.4522  0.2761  0.1695
30721ION     NA48245   2.244   0.196  10.739  0.0763 -0.2779  0.0488
30722ION     NA48246  13.778  16.293   1.774  0.1196  0.0757  0.1324
30723ION     NA48247  16.198   8.810  10.176 -0.0831 -0.1018  0.2087
30724ION     NA48248   7.397   1.203  10.305 -0.0689  0.0970 -0.2460
30725ION     NA48249   0.252   2.847  14.989 -0.2620 -0.3383  0.2791
30726ION     NA48250  16.454  17.777  14.235  0.0620 -0.0897  0.1398
30727ION     NA48251  15.530  12.443   5.478  0.3486  0.1707 -0.0339
30728ION     NA48252   4.993   3.009  10.874  0.1452  0.3406  0.0343
30729ION     NA48253  16.301  16.598   4.857 -0.0556 -0.0318 -0.0753
30730ION     NA48254  11.638   9.859  14.694  0.3084 -0.1809  0.0283
30731ION     NA48255   5.360   2.503  10.203 -0.0647 -0.1710 -0.1813
30732ION     NA48256   2.418  16.113   3.404 -0.0293 -0.0786  0.1804
30733ION     NA48257  11.139  15.885   4.979 -0.1345 -0.1416 -0.2410
30734ION     NA48258  13.073   6.552   5.468  0.2096  0.2254  0.0079
30735ION     NA48259   5.536   8.835  14.807 -0.0871  0.3232 -0.2182
30736ION     NA48260  11.897   3.051   5.326 -0.0379 -0.2595 -0.2234
30737ION     NA48261  14.023   9.733   9.876 -0.1380 -0.1812 -0.0913
30738ION     NA48262   1.734  18.036   5.786 -0.3936  0.1154 -0.2670
30739ION     NA48263   2.581   9.402  10.254 -0.1562  0.2887 -0.1676
30740ION     NA48264   0.306  18.349  10.485 -0.1450  0.1628  0.1207
30741ION     NA48265   4.858  16.940   5.649  0.1142 -0.2320  0.0719
30742ION     NA48266  10.417   3.363   5.598  0.0514 -0.0256 -0.2293
30743ION     NA48267   2.066  11.578   1.681  0.2663  0.2554 -0.0315
30744ION     NA48268  13.725   8.082  10.323 -0.1164 -0.2219 -0.3929
30745ION     NA48269  16.677  11.905  14.346 -0.1937  0.2086 -0.0642
30746ION     NA48270  10.412   6.738  13.266  0.1786  0.0854  0.1330
30747ION     NA48271   8.538  11.432  10.163  0.1664 -0.0768  0.1359
30748ION     NA48272   8.293  12.368  10.166  0.0264  0.2189 -0.0920
30749ION     NA48273   6.221   4.894   9.871  0.2117 -0.1439 -0.0188
30750ION     NA48274  14.525  15.765   6.019  0.0227 -0.2074 -0.3373
30751ION     NA48275   2.715  11.680  10.141  0.2895 -0.2367 -0.1802
30752ION     NA48276   9.959   0.673   3.793 -0.0358  0.0195 -0.0213
30753ION     NA48277  14.289  11.605   1.345 -0.1539  0.0810  0.1182
30754ION     NA48278   9.993   8.627  14.445 -0.3085  0.0205 -0.1319
30755ION     NA48279  17.218   5.417  10.185  0.0453  0.1454  0.0418
30756ION     NA48280   8.825  18.272   5.225 -0.2377  0.3128 -0.1631
30757ION     NA48281   9.058  10.323  14.659 -0.2407 -0.0799 -0.1629
30758ION     NA48282  12.024   9.356   5.046  0.2633 -0.0517 -0.2801
30759ION     NA48283  10.121   1.008  13.217  0.3100 -0.2133  0.0306
30760ION     NA48284  17.112   0.854   0.277 -0.2255  0.1489  0.0571
30761ION     NA48285   7.993   2.889   5.240  0.0348 -0.0459 -0.1148
30762ION     NA48286  10.361  17.041  13.882 -0.3345 -0.1973  0.2058
30763ION     NA48287   9.349  13.544   0.787  0.5572 -0.1669  0.3873
30764ION     NA48288  10.352   4.910   5.381 -0.0571  0.1710 -0.2784
30765ION     NA48289   6.638  12.198   4.915 -0.0165  0.2558 -0.1682
30766ION     NA48290  16.629   3.190  10.172  0.3684  0.0910  0.2092
30767ION     NA48291   1.746   2.572  10.113 -0.0286  0.1251  0.0605
30768ION     NA48292   9.424  10.420  10.182 -0.0745 -0.0533 -0.1236
30769ION     NA48293  13.685   8.935  10.072 -0.0969  0.3085  0.0455
30770ION     NA48294  15.141   2.144  13.226 -0.0163  0.0524 -0.0297
30771ION     NA48295  10.236  17.422   5.688  0.1244  0.2923 -0.0769
30772ION     NA48296  13.635   0.791   4.418  0.2346  0.0570  0.2791
30773ION     NA48297   7.389   8.007   5.408 -0.2541 -0.2315  0.2570
30774ION     NA48298  13.370  11.377   0.479  0.3899  0.3300  0.3641
30775ION     NA48299  12.049  10.178   5.281 -0.0557  0.1414 -0.2563
30776ION     NA48300   8.895   5.901   5.504 -0.1025 -0.0069 -0.0080
30777ION     NA48301  12.443   1.595  10.357 -0.0494 -0.0757  0.1377
30778ION     NA48302  15.607  13.920  15.409 -0.4415  0.0459 -0.1193
30779ION     NA48303   3.549  14.225   5.816  0.1266 -0.0652  0.0791
30780ION     NA48304   7.678   5.555  10.387  0.0440 -0.0073 -0.1261
30781ION     NA48305   5.438   0.636  10.620 -0.0164 -0.1790  0.2058
30782ION     NA48306   9.192   9.533  10.192  0.2141  0.0102  0.3730
30783ION     NA48307  17.667  13.362  10.580 -0.0836  0.0726 -0.0702
30784ION     NA48308  18.481  15.431  10.383  0.1310 -0.2971 -0.1321
30785ION     NA48309   6.573  11.878   5.342 -0.0499 -0.1270  0.0543
30786ION     NA48310  16.895  16.243   5.525  0.1363  0.1403 -0.0807
30787ION     NA48311   6.042   7.920  14.718 -0.0307 -0.0914  0.0768
30788ION     NA48312  11.386  17.528   5.871 -0.0572  0.2108  0.1124
30789ION     NA48313  11.656  11.760   5.320  0.0095  0.0853 -0.2465
30790ION     NA48314   5.517   7.749  10.333 -0.0422 -0.2473 -0.1241
30791ION     NA48315   5.677  11.712   9.880 -0.0459  0.2135 -0.0102
30792ION     NA48316   4.217   3.587   5.433  0.0421 -0.0568 -0.0064
30793ION     NA48317   0.630  10.555   5.699 -0.1141  0.1837  0.1630
30794ION     NA48318   2.476   3.281  10.029 -0.2798  0.2331  0.1222
30795ION     NA48319  14.226   4.966   0.094  0.0093 -0.2551  0.1622
30796ION     NA48320   7.683   8.355  10.067  0.3667 -0.3351  0.0204
30797ION     NA48321   4.662   2.946  10.453 -0.0175  0.0467  0.0607
30798ION     NA48322   1.442  17.280  10.580  0.1492  0.1412  0.2106
30799ION     NA48323   3.859  11.155   5.452  0.2500  0.1204 -0.2048
30800ION     NA48324  15.390   8.561  10.506  0.1974 -0.1868  0.0506
30801ION     NA48325  16.784   1.973  12.774  0.1125 -0.0813 -0.2994
30802ION     NA48326   8.647  15.330   5.484 -0.1205  0.0395 -0.0679
30803ION     NA48327   8.159   3.085   1.686  0.2331  0.1285  0.2221
30804ION     NA48328   4.404  17.343   0.623  0.0286  0.4011  0.1738
30805ION     NA48329  17.085  11.467   9.956  0.1380  0.1500 -0.0301
30806ION     NA48330   1.020   5.425  12.521 -0.1107 -0.1760  0.2618
30807ION     NA48331   2.349   5.244  13.282 -0.2349  0.2194  0.1264
30808ION     NA48332   0.221  18.270   5.968 -0.2142  0.2273  0.4244
30809ION     NA48333  17.141  11.680   1.900 -0.0573 -0.1157 -0.4041
30810ION     NA48334   3.619  10.226  10.107 -0.3860  0.1052 -0.3910
30811ION     NA48335  18.389  18.243   6.346  0.0557  0.2367  0.2643
30812ION     NA48336   9.371  16.147  10.587 -0.3459  0.0802  0.0177
30813ION     NA48337   4.718  13.666   1.581  0.0444 -0.2578 -0.0439
30814ION     NA48338   5.328   9.935   5.488  0.0856  0.0787 -0.0874
30815ION     NA48339  14.339  11.678  15.564  0.0311 -0.0200  0.1626
30816ION     NA48340  17.769   9.453   5.481 -0.2098  0.4095  0.1557
30817ION     NA48341   1.174  10.844  14.960 -0.2590 -0.1374 -0.1316
30818ION     NA48342  14.922   0.188   5.681  0.0070 -0.1732 -0.0812
30819ION     NA48343  18.180  10.525  10.179 -0.1047  0.0123  0.0145
30820ION     NA48344   3.097  17.971  10.812 -0.0313  0.0152 -0.0015
30821ION     NA48345  12.847  12.018   5.478 -0.0668 -0.0757  0.0226
30822ION     NA48346  10.469   4.777  14.106 -0.0081 -0.0367  0.3375
30823ION     NA48347  14.391   2.498   5.649 -0.1724  0.1712  0.1965
30824ION     NA48348   6.339   9.961   5.286 -0.0126  0.0926 -0.0317
30825ION     NA48349   0.913   9.198  10.346  0.1283 -0.2382 -0.0760
30826ION     NA48350   8.590   5.046   5.342  0.0467  0.1144 -0.2754
30827ION     NA48351  16.661   9.953  14.689 -0.0641  0.0597  0.4192
30828ION     NA48352   1.905  16.510  10.754  0.1350  0.1645 -0.1034
30829ION     NA48353   4.665  18.082  10.286 -0.3390  0.2078 -0.1582
30830ION     NA48354  13.426  16.921   0.903  0.2506  0.0662 -0.3678
30831ION     NA48355  12.326  11.232   0.162 -0.0097 -0.0334  0.0337
30832ION     NA48356  16.854  12.227   9.847 -0.2057  0.0929  0.4073
30833ION     NA48357   1.274  10.703  10.339  0.0598 -0.4258 -0.2707
30834ION     NA48358  13.434   3.185   5.339  0.1415  0.1057  0.1617
30835ION     NA48359   0.399  17.362  10.926  0.1033 -0.3149 -0.1163
30836ION     NA48360  16.079   3.108   5.153  0.1148  0.1097 -0.2386
30837ION     NA48361  18.478   5.908   5.527 -0.2476 -0.1929  0.1172
30838ION     NA48362  10.422  10.977   5.583 -0.0721 -0.0102  0.0189
30839ION     NA48363   7.283  16.002   5.442  0.1416 -0.0644 -0.1883
30840ION     NA48364  17.562  16.481   5.953 -0.1588 -0.0934  0.0395
30841ION     NA48365  15.922  16.557  10.798  0.0374  0.0871  0.0726
30842ION     NA48366  15.588   9.303   5.580  0.1838 -0.1627  0.0268
30843ION     NA48367   9.218   4.049   3.019  0.0287 -0.0421 -0.2881
30844ION     NA48368  12.247   8.494  12.960  0.0215 -0.4194  0.0990
30845ION     NA48369  12.218   6.427   5.654 -0.0970 -0.2495 -0.1521
30846ION     NA48370   2.948   7.518  10.285 -0.0673 -0.1081 -0.0126
30847ION     NA48371   6.082  12.698   5.027  0.0874  0.0788 -0.0593
30848ION     NA48372  12.807   2.956   2.706  0.0326 -0.0083 -0.0603
30849ION     NA48373   9.046   6.401  13.152 -0.0813  0.0004  0.0717
30850ION     NA48374  15.384   3.086  13.239 -0.1812 -0.1942  0.3207
30851ION     NA48375  12.297  13.506  10.484  0.0601  0.1373  0.1290
30852ION     NA48376  15.576   7.912   5.604  0.3015 -0.3265  0.0849
30853ION     NA48377   8.156   0.496   5.412  0.1985  0.1821 -0.1410
30854ION     NA48378   3.747   3.268   5.647 -0.0532  0.0803  0.0932
30855ION     NA48379  12.448  14.452  10.622 -0.1823  0.1275 -0.0999
30856ION     NA48380  13.383   9.031   1.347 -0.3084 -0.2077  0.3154
30857ION     NA48381   5.286  12.847   3.433  0.2100  0.1170  0.1039
30858ION     NA48382  11.835  18.340   6.042 -0.3200 -0.0019  0.4087
30859ION     NA48383  16.045   4.954   5.391 -0.0251  0.1143 -0.0897
30860ION     NA48384   8.426   7.833  15.227 -0.0414 -0.1127 -0.1510
30861ION     NA48385   1.900   7.073   5.517 -0.0858 -0.2193  0.2654
30862ION     NA48386  12.733  16.299   0.874  0.0098  0.0552 -0.0937
30863ION     NA48387  10.939   0.757   1.832 -0.0036  0.1386 -0.2326
30864ION     NA48388   0.691  16.280  15.622 -0.2896  0.3665 -0.1615
30865ION     NA48389  16.831   9.681   5.187  0.2130 -0.1073 -0.0447
30866ION     NA48390  10.695   6.465  10.131  0.3116 -0.0512  0.1658
30867ION     NA48391  18.044   6.134   5.296  0.3230 -0.3106 -0.1576
30868ION     NA48392  14.684   8.266   5.563 -0.2122  0.0044  0.1103
30869ION     NA48393  14.097  13.632  15.028  0.0054  0.1226 -0.1972
30870ION     NA48394   2.088   0.869   1.345 -0.0566  0.1192 -0.1439
30871ION     NA48395  13.274   4.898   9.966  0.0141  0.1622 -0.0428
30872ION     NA48396  12.233  15.028   5.676 -0.1166  0.0545 -0.1529
30873ION     NA48397  12.236  15.894  11.109 -0.3183  0.2349 -0.0102
30874ION     NA48398   2.866  15.078   5.628 -0.3687 -0.0675  0.0136
30875ION     NA48399   3.722  15.189  13.341 -0.0726 -0.1004 -0.1976
30876ION     NA48400   8.838   8.133   5.739  0.0068  0.1335 -0.2113
30877ION     NA48401  16.242  15.791   5.818 -0.0325 -0.2065  0.0149
30878ION     NA48402   9.451  13.174   5.826  0.1004 -0.1696 -0.0993
30879ION     NA48403  15.389  16.275   6.003 -0.0219  0.0311 -0.2116
30880ION     NA48404  10.850   0.671   0.224 -0.3555 -0.0565  0.0965
30881ION     NA48405   6.759  14.444  13.912  0.0667  0.0925  0.0508
30882ION     NA48406   5.063  13.277  14.634  0.1096  0.0656  0.0615
30883ION     NA48407  12.016   0.096  10.140  0.1052 -0.2417  0.1823
30884ION     NA48408  17.295   8.859  15.358 -0.0828 -0.0073  0.0962
30885ION     NA48409   0.888   3.021  10.908  0.1199 -0.1773  0.0844
30886ION     NA48410   5.960   4.469   4.149 -0.5429 -0.1440  0.0509
30887ION     NA48411  17.985   5.560  10.215  0.1325 -0.1136  0.3524
30888ION     NA48412   1.791  17.424   5.431 -0.1563 -0.4140 -0.1401
30889ION     NA48413  10.068   2.281   5.552  0.2333 -0.0214  0.2390
30890ION     NA48414   6.250   8.937  10.185 -0.1112 -0.2183 -0.1060
30891ION     NA48415  13.533  18.278  14.267 -0.1390 -0.0582  0.1467
30892ION     NA48416  15.323  16.366   0.689 -0.0824 -0.0073  0.1510
30893ION     NA48417   4.073  18.406   1.984  0.3745  0.0275  0.1989
30894ION     NA48418   2.089  17.077   3.674 -0.0123  0.0417  0.1767
30895ION     NA48419   3.895  17.860   5.723 -0.0018  0.2257 -0.3568
30896ION     NA48420  11.829   7.021   0.732  0.3213 -0.2009 -0.0807
30897ION     NA48421   6.284   4.710   4.801  0.0906  0.4124 -0.1225
30898ION     NA48422   5.478   7.459   0.010 -0.1523 -0.0357  0.0997
30899ION     NA48423  18.165   1.657   0.633 -0.0568 -0.0225 -0.1165
30900ION     NA48424   0.957   1.717  10.539  0.0852  0.1007  0.1834
30901ION     NA48425  17.868   3.957  14.447 -0.0149  0.0375  0.2142
30902ION     NA48426  17.857   9.370  13.024 -0.0209  0.3874  0.0459
30903ION     NA48427   4.358  10.688   1.179  0.2627  0.3850  0.0992
30904ION     NA48428  16.128  14.139   5.227 -0.1800 -0.2757 -0.2363
30905ION     NA48429  12.255   8.377  10.014  0.0349  0.0523 -0.1563
30906ION     NA48430   7.789   4.256   1.160 -0.0097 -0.0376 -0.0237
30907ION     NA48431  17.969  12.387   5.388 -0.1827 -0.1486 -0.0963
30908ION     NA48432  10.079   5.999   3.717 -0.0152 -0.2455 -0.1839
30909ION     NA48433  16.689   2.838  13.821  0.0176 -0.1322 -0.0318
30910ION     NA48434  16.772   5.637   9.998  0.2982  0.0008 -0.0805
30911ION     NA48435   3.801   2.939  10.245  0.0365  0.2552  0.3158
30912ION     NA48436  10.430  10.446  13.216 -0.0902  0.0604 -0.0574
30913ION     NA48437   2.128  10.411  12.869 -0.2909  0.0230  0.0025
30914ION     NA48438  16.380   0.988   5.638 -0.1253  0.0326  0.1322
30915ION     NA48439   3.016  14.415  10.337  0.0853 -0.1635  0.0068
30916ION     NA48440   6.755   8.825   5.197 -0.0771  0.2624  0.4427
30917ION     NA48441  16.754   8.740  14.192 -0.2942 -0.2058 -0.2728
30918ION     NA48442   3.121  10.473   5.552  0.1401  0.1898  0.1281
30919ION     NA48443  17.328   3.897   5.336  0.3450  0.4473  0.2939
30920ION     NA48444  11.681   4.681   5.214  0.2624  0.0910 -0.0358
30921ION     NA48445   4.532   7.308  14.038  0.1570 -0.1838  0.1338
30922ION     NA48446   6.889  10.834   5.110  0.1087 -0.1134 -0.0826
30923ION     NA48447   1.987  16.273   5.934  0.0478 -0.2131  0.0135
30924ION     NA48448   7.789   1.129  15.030 -0.0238  0.2631 -0.2392
30925ION     NA48449  17.500  15.119  12.137 -0.1964 -0.0783  0.0753
30926ION     NA48450   8.362   7.751  10.605  0.3123  0.2094  0.3630
30927ION     NA48451   2.639   4.806   5.231 -0.3214  0.0531  0.0299
30928ION     NA48452  11.340  16.776  10.718  0.1214  0.0820  0.2296
30929ION     NA48453   2.784   0.830  14.764  0.1443  0.4622 -0.0568
30930ION     NA48454  11.985  13.557  15.156  0.0715  0.1418 -0.2181
30931ION     NA48455   3.874  13.133  10.134  0.1399  0.2845  0.3905
30932ION     NA48456  16.704   0.498  10.692 -0.0294  0.0374 -0.2659
30933ION     NA48457  13.394   7.737   5.356 -0.1129  0.2137  0.3444
30934ION     NA48458   4.673   5.486   9.976  0.0493 -0.1796  0.0132
30935ION     NA48459   7.311   5.590   5.192  0.3473  0.1822  0.0107
30936ION     NA48460  14.294  16.251  10.709 -0.2500  0.2862  0.0812
30937ION     NA48461  13.627   3.143   2.883  0.0951  0.0257 -0.2303
30938ION     NA48462  11.787  15.406   5.014  0.4141  0.0911  0.1201
30939ION     NA48463   4.864   6.322   3.030 -0.3007  0.1500 -0.3375
30940ION     NA48464  14.406  17.593   5.745  0.1785  0.1169 -0.0160
30941ION     NA48465  15.976  12.556  10.170 -0.0206  0.0160 -0.0367
30942ION     NA48466  10.866  12.279  10.478  0.1139  0.1443 -0.1398
30943ION     NA48467  16.440  10.078   1.490 -0.0332 -0.0265 -0.2918
30944ION     NA48468   9.326  17.545   5.491 -0.0489 -0.0732  0.0095
30945ION     NA48469   6.143   1.424   5.587 -0.1128 -0.0286 -0.1793
30946ION     NA48470  10.239  13.555   6.075  0.1443 -0.0452 -0.1429
30947ION     NA48471  13.261  15.317  14.133  0.1625  0.1476 -0.0177
30948ION     NA48472  10.737  15.165  11.714 -0.2508 -0.2719 -0.2421
30949ION     NA48473   3.874  16.467  10.395  0.2279  0.4855 -0.1303
30950ION     NA48474  13.624   2.732  10.306 -0.1907  0.2738 -0.1649
30951ION     NA48475  16.413  16.263  14.888 -0.0588 -0.2928  0.0376
30952ION     NA48476   5.397   0.331   5.415  0.0940 -0.2331 -0.1468
30953ION     NA48477  12.459  11.753   3.529 -0.0814 -0.0752  0.0084
30954ION     NA48478   5.896  14.349   5.478 -0.0321  0.2656  0.0004
30955ION     NA48479   9.083   3.899   1.650 -0.2022 -0.0025 -0.1931
30956ION     NA48480  14.426  15.135  13.917 -0.1445 -0.0932  0.1359
30957ION     NA48481  12.409   9.869  10.197 -0.2490  0.1141 -0.1957
30958ION     NA48482   3.292   1.217   5.634  0.4437  0.4528  0.0244
30959ION     NA48483   2.317  11.115   4.603  0.1252  0.0932  0.2528
30960ION     NA48484   0.668   0.323   6.097 -0.1849  0.1729 -0.0126
30961ION     NA48485   2.510   7.799   5.334 -0.2205  0.1264  0.3326
30962ION     NA48486  11.919   3.124   0.081 -0.2246 -0.1594 -0.3433
30963ION     NA48487  11.024   4.580  10.035  0.0707  0.1785 -0.0778
30964ION     NA48488   0.378  16.763   4.679 -0.2588 -0.3830  0.0226
30965ION     NA48489  18.430   8.911   5.399  0.2895 -0.2458 -0.0779
30966ION     NA48490  14.378   2.072   0.786  0.2615  0.1756  0.1806
30967ION     NA48491  15.714  18.254   5.181  0.2416 -0.2855  0.0908
30968ION     NA48492   1.917   8.882   1.022 -0.2220  0.1239 -0.1692
30969ION     NA48493   5.289  16.250   5.652  0.0193  0.1211 -0.0795
30970ION     NA48494  11.425  11.541   0.694 -0.2926 -0.0120  0.1603
30971ION     NA48495   3.853   3.749  11.337  0.3006 -0.2099 -0.1665
30972ION     NA48496   5.000   7.776  10.867 -0.2797  0.1140  0.1700
30973ION     NA48497   6.738   9.202   3.869  0.1927 -0.0241 -0.0268
30974ION     NA48498  10.013  11.863   5.774  0.1289  0.3797 -0.1721
30975ION     NA48499   0.161   3.712   5.026  0.0405 -0.1716 -0.2134
30976ION     NA48500   7.841  14.562  14.947  0.0353 -0.0488 -0.0788
30977ION     NA48501   1.013  10.506  11.336 -0.1813  0.1119 -0.2978
30978ION     NA48502  14.958   9.383   5.473 -0.4053  0.0860  0.0831
30979ION     NA48503  10.770  17.443   3.746  0.0099  0.0517 -0.0440
30980ION     NA48504  12.310   0.159  12.944 -0.0237 -0.0716  0.0625
30981ION     NA48505  11.846   6.161   3.969 -0.2784  0.0352 -0.1059
30982ION     NA48506  13.067  17.457  10.607  0.1198 -0.1340  0.1487
30983ION     NA48507  15.354  11.043  11.421 -0.1784  0.3492 -0.1646
30984ION     NA48508   0.056  10.744   2.401  0.2263  0.2289  0.2266
30985ION     NA48509  13.206   7.576  10.365  0.0046 -0.5297  0.0809
30986ION     NA48510  13.358   1.993  10.558  0.0586 -0.0762  0.0315
30987ION     NA48511   4.365  15.657  12.138  0.0598  0.0903  0.0926
30988ION     NA48512   5.604   4.058   4.984 -0.0243 -0.1352  0.0281
30989ION     NA48513  16.347  14.853   5.822 -0.0155  0.1033 -0.1996
30990ION     NA48514  11.970   5.388  13.964  0.1475  0.1180 -0.0672
30991ION     NA48515   9.527  15.918  15.279  0.1756  0.2310  0.0656
30992ION     NA48516   2.180   5.503   5.186 -0.0840 -0.0711  0.4819
30993ION     NA48517  12.834  10.934  10.245  0.0391  0.1072 -0.1929
30994ION     NA48518  16.951  12.967   5.237  0.1240  0.1100 -0.0908
30995ION     NA48519   9.777  15.285   3.356  0.1347 -0.1438 -0.0213
30996ION     NA48520   2.973   3.796  14.356  0.3672 -0.0257 -0.0840
30997ION     NA48521  10.704  15.640  10.726  0.3984  0.1644  0.1963
30998ION     NA48522   7.366  14.455  10.398  0.1192  0.4411  0.1435
30999ION     NA48523  17.158  15.579  10.185  0.1312  0.2281 -0.1371
31000ION     NA48524  17.904  16.982   0.746  0.1934 -0.0564  0.0043
31001ION     NA48525   4.256   0.806  10.304  0.0651  0.0612 -0.0248
31002ION     NA48526  15.032   3.123  10.340 -0.2282 -0.2537 -0.4198
31003ION     NA48527  16.381   3.556   5.415 -0.0055  0.4214 -0.0328
31004ION     NA48528   5.993   7.841  10.098  0.1369 -0.0798  0.2911
31005ION     NA48529  18.310  13.962  10.649  0.2695  0.0985  0.0756
31006ION     NA48530   8.753  16.293   5.608  0.1298  0.2810 -0.0773
31007ION     NA48531   2.608   3.240   5.549  0.0113  0.0192  0.2022
31008ION     NA48532  13.806   4.731   4.798  0.2788  0.1241  0.1001
31009ION     NA48533  13.181  15.366   4.197  0.1122 -0.0679  0.1886
31010ION     NA48534  10.079  10.622   2.470  0.3979  0.0234 -0.4700
31011ION     NA48535  16.911   2.143   5.196 -0.3289 -0.0414  0.2065
31012ION     NA48536  18.065  15.212   5.904  0.1876  0.2732 -0.2451
31013ION     NA48537   7.125   1.156   1.149 -0.1411 -0.0851  0.1776
31014ION     NA48538  13.528  11.641   5.364  0.0392 -0.0780 -0.1386
31015ION     NA48539   0.518   6.276   3.789 -0.1587  0.2949 -0.1133
31016ION     NA48540   1.417   9.889   5.320  0.2354  0.1931  0.0956
31017ION     NA48541   4.513  17.887  12.629 -0.2205 -0.2827 -0.3336
31018ION     NA48542  11.225   6.438  14.525  0.0432  0.1400 -0.2812
31019ION     NA48543  11.868   9.593   1.364  0.3126  0.2380 -0.0432
31020ION     NA48544   4.941  16.794  11.772 -0.1782 -0.0296 -0.2452
31021ION     NA48545   9.215   3.212   4.959  0.2322  0.0550 -0.0285
31022ION     NA48546  11.454   3.117  10.549 -0.2376 -0.1324  0.0516
31023ION     NA48547   1.128  17.240   5.613 -0.2554 -0.1290  0.2991
31024ION     NA48548   3.498   8.232   9.921 -0.0718 -0.1378 -0.0882
31025ION     NA48549   6.056   1.165  10.399 -0.0318 -0.0755 -0.2472
31026ION     NA48550  14.332   5.316  10.775  0.3001  0.3500  0.3376
31027ION     NA48551   8.030  13.311  10.553 -0.0594  0.0085 -0.0634
31028ION     NA48552   1.797   3.843   2.607 -0.0910 -0.0606  0.1749
31029ION     NA48553   4.186  11.740  10.198 -0.1881 -0.0661  0.1700
31030ION     NA48554   4.600  11.840  13.627 -0.2693 -0.2842  0.1033
31031ION     NA48555   2.367  10.789   9.910  0.0048 -0.1456  0.2453
31032ION     NA48556  11.081  12.046   5.493 -0.2394 -0.1574  0.0214
31033ION     NA48557  10.822   0.309  10.069 -0.1194 -0.0345  0.2920
31034ION     NA48558   5.747  15.352  12.812  0.1843 -0.2805 -0.1900
31035ION     NA48559  13.864   8.480   0.279 -0.4373  0.0244  0.0865
31036ION     NA48560   3.103   5.838   5.151 -0.3187  0.3323  0.2000
31037ION     NA48561  10.000   4.079  10.040  0.3638 -0.0898 -0.0774
31038ION     NA48562   8.392  10.600   5.711  0.1858  0.0838  0.0020
31039ION     NA48563   9.754  17.983  10.836 -0.3719  0.1983 -0.1265
31040ION     NA48564  11.977   8.646   5.196 -0.2947  0.4145  0.2379
31041ION     NA48565  12.865  18.256  10.544 -0.2388  0.0924  0.0764
31042ION     NA48566  16.551  18.081  10.982  0.0584  0.2017 -0.0650
31043ION     NA48567   0.592   9.606   5.413 -0.0513  0.3612 -0.3054
31044ION     NA48568  14.197  12.212  10.187  0.0512  0.0412  0.1823
31045ION     NA48569   2.427   9.805  12.728  0.0367  0.2962  0.0566
31046ION     NA48570  12.427  18.423   2.533 -0.1927  0.0020 -0.0606
31047ION     NA48571  11.408  10.866   2.409 -0.0224 -0.0060  0.3029
31048ION     NA48572   2.665   1.946   5.814  0.0449  0.2447  0.1596
31049ION     NA48573   7.108   2.433  12.322  0.1322  0.0060  0.0135
31050ION     NA48574   3.003  16.424  10.739 -0.0793 -0.0243  0.1247
31051ION     NA48575  18.376   8.723  10.124  0.2620 -0.3480 -0.0210
31052ION     NA48576  10.066  12.721  10.492 -0.1767 -0.1762  0.2954
31053ION     NA48577   4.517   6.578   5.243 -0.0437  0.0957 -0.0435
31054ION     NA48578   5.682   5.536  10.446  0.2463  0.2432  0.1306
31055ION     NA48579  14.872  13.267  14.172 -0.0066 -0.1617  0.3970
31056ION     NA48580  12.664  12.888   5.423 -0.0577 -0.6914  0.1076
31057ION     NA48581   0.956  12.044   3.385 -0.5220  0.1210  0.0603
31058ION     NA48582   6.037  16.033  15.601 -0.0845 -0.0200 -0.2388
31059ION     NA48583  11.994   8.014  15.465  0.0352 -0.0484  0.2910
31060ION     NA48584  17.467  14.467   5.764 -0.0788 -0.1783  0.0135
31061ION     NA48585   4.391  10.748   0.269 -0.2872 -0.0356  0.0400
31062ION     NA48586   8.464  16.691  10.242 -0.3241  0.1109 -0.1795
31063ION     NA48587  18.031   4.397  10.092 -0.1839 -0.3713 -0.2224
31064ION     NA48588  12.453  17.343   1.683  0.1032  0.1581 -0.4558
31065ION     NA48589   0.883  14.489   5.977  0.0887 -0.0753 -0.0680
31066ION     NA48590  15.107  14.529  15.063  0.1139 -0.0987 -0.2658
31067ION     NA48591   8.446   1.687  15.120 -0.5844  0.3611  0.2231
31068ION     NA48592  17.627   5.384   5.412  0.1995  0.2165  0.1416
31069ION     NA48593   0.973  15.838   4.561 -0.1391  0.1596  0.0090
31070ION     NA48594  10.046  17.507  14.386  0.1570 -0.1233 -0.0369
31071ION     NA48595   7.826  16.621   5.444  0.2923 -0.1892 -0.2928
31072ION     NA48596   2.858  13.196   0.983  0.1872 -0.0119 -0.0348
31073ION     NA48597  15.671   1.036  11.497 -0.1033 -0.2011  0.1748
31074ION     NA48598  16.954  16.819   0.602 -0.0135  0.1539 -0.0339
31075ION     NA48599   3.759  13.903  10.415 -0.1783 -0.1491 -0.1094
31076ION     NA48600   8.282  10.347   0.576  0.2365  0.0770  0.0203
31077ION     NA48601   7.287  12.857  10.310 -0.0793  0.0704  0.3002
31078ION     NA48602  15.674  11.236  15.295 -0.2592 -0.2390  0.0741
31079ION     NA48603  14.881  11.746  10.282 -0.0331  0.1955  0.0397
31080ION     NA48604   8.112  12.445   2.928  0.2680  0.1028  0.3350
31081ION     NA48605   0.499   1.150   5.992 -0.2754  0.0369 -0.0969
31082ION     NA48606  14.564   4.442   2.131  0.0825  0.2002  0.0451
31083ION     NA48607   8.611   7.406  13.681  0.2101 -0.3049  0.0977
31084ION     NA48608   5.194   3.186   5.365 -0.1400 -0.1619 -0.1706
31085ION     NA48609   0.200   6.476   1.391  0.0255  0.2287  0.1299
31086ION     NA48610  12.302  12.975  14.864  0.0076 -0.3076  0.0313
31087ION     NA48611  13.407   4.360  10.214  0.0301  0.2203  0.0409
31088ION     NA48612   3.410   7.709   5.179 -0.2331  0.1007  0.3520
31089ION     NA48613  17.444  14.078  12.784 -0.0545  0.0747 -0.1148
31090ION     NA48614   8.852  15.823  10.626 -0.0088  0.1595  0.0277
31091ION     NA48615  15.040   2.345   5.648 -0.3509  0.2066  0.1183
31092ION     NA48616   5.698  10.798   5.504 -0.1219 -0.0261 -0.1547
31093ION     NA48617   1.593   4.846  13.269 -0.1321 -0.0195  0.2197
31094ION     NA48618  17.952   0.580   0.406 -0.2019 -0.1098 -0.0927
31095ION     NA48619  10.397   9.575  10.186  0.0392 -0.1580  0.0410
31096ION     NA48620  10.981  12.088  15.248  0.0441  0.0017 -0.1945
31097ION     NA48621  16.200   5.704  12.134 -0.0103  0.1036 -0.1692
31098ION     NA48622   4.086   9.992   5.556 -0.0077 -0.2973 -0.0248
31099ION     NA48623   8.960   9.138   2.395 -0.0276 -0.0029  0.1018
31100ION     NA48624   7.530  10.518   9.981 -0.0659  0.0799 -0.1917
31101ION     NA48625   5.942  15.320  15.552 -0.0427  0.4290  0.1737
31102ION     NA48626   6.152   2.351   5.255  0.0145 -0.2140  0.1521
31103ION     NA48627  13.491  17.989   5.737  0.1868  0.2595 -0.1250
31104ION     NA48628  13.771   0.247   5.531 -0.2211  0.0539 -0.0892
31105ION     NA48629  17.596   7.729   2.319 -0.1304 -0.0994 -0.1224
31106ION     NA48630  17.449   8.577  13.311  0.0875 -0.4504  0.0370
31107ION     NA48631   5.703   9.598   4.719  0.3255 -0.0806  0.2230
31108ION     NA48632  12.616   2.625  10.428 -0.3614  0.1569 -0.0189
31109ION     NA48633   9.274   6.763   5.799 -0.0408 -0.1519  0.0759
31110ION     NA48634   3.679  12.756   5.477 -0.2895  0.2643  0.0346
31111ION     NA48635  15.795   2.325   5.293 -0.0060 -0.1297 -0.0487
31112ION     NA48636  18.303  15.911  12.701  0.0763 -0.2454  0.3252
31113ION     NA48637   4.359   4.599   2.389  0.0324 -0.0892  0.0386
31114ION     NA48638  17.566  17.280  10.702  0.3344 -0.2380  0.2190
31115ION     NA48639   0.906   8.321   0.316  0.0655 -0.1844  0.2504
31116ION     NA48640   0.005   1.369  10.377 -0.1223 -0.3328 -0.1800
31117ION     NA48641  10.812  16.856   5.954  0.2652  0.0550  0.0227
31118ION     NA48642   2.341  11.384   3.725 -0.5217 -0.0609  0.1350
31119ION     NA48643  10.920  16.622  10.920  0.0269  0.3158 -0.1310
31120ION     NA48644   3.873  14.723  10.869 -0.1253  0.1191 -0.1113
31121ION     NA48645  13.368  10.342  10.009  0.3918 -0.0667  0.0689
31122ION     NA48646  10.835   1.490   5.420 -0.2993  0.0461 -0.0600
31123ION     NA48647  11.469  14.073  10.600 -0.0281  0.0809  0.0093
31124ION     NA48648   4.744  14.826  10.436 -0.1484  0.0154  0.0607
31125ION     NA48649  10.190  14.871  13.393 -0.0437 -0.0674  0.2439
31126ION     NA48650   9.134  13.058  15.382 -0.1096  0.0190  0.1057
31127ION     NA48651  10.187  17.073   2.228 -0.3688  0.0569  0.2513
31128ION     NA48652   0.210   5.172  10.073  0.0131  0.2014 -0.0217
31129ION     NA48653   8.274  14.056   5.693 -0.0284 -0.0177  0.1006
31130ION     NA48654  12.291   1.543   0.036 -0.2047  0.0786 -0.1268
31131ION     NA48655   8.463  15.389   3.225  0.0187  0.1066  0.1109
31132ION     NA48656   3.699  14.973   5.575  0.1781 -0.0325 -0.2452
31133ION     NA48657  11.294  11.976   1.927 -0.4675  0.1886  0.1817
31134ION     NA48658   3.383   5.586   9.906  0.1333  0.0769 -0.2444
31135ION     NA48659  11.909   7.306   5.330  0.4186 -0.4437  0.0002
31136ION     NA48660  18.199  18.378  14.868 -0.1706 -0.0738  0.1403
31137ION     NA48661   6.285   3.363  14.356 -0.0637 -0.0738 -0.0055
31138ION     NA48662   1.798  13.553  12.601  0.0998 -0.1004 -0.0269
31139ION     NA48663  14.221  13.918   6.122 -0.1144 -0.0239  0.1094
31140ION     NA48664  17.594   9.970   5.432 -0.1060  0.1709  0.0641
31141ION     NA48665  11.098  11.437  10.426 -0.0319 -0.0754 -0.0857
31142ION     NA48666   1.367   4.122  10.050  0.1540 -0.3167 -0.1311
31143ION     NA48667  15.454   5.560  12.886 -0.1718 -0.2125 -0.3998
31144ION     NA48668  12.658   8.015  13.773  0.3067  0.0944  0.2674
31145ION     NA48669  11.381   4.454  15.519  0.0240  0.0233 -0.1921
31146ION     NA48670  15.812   3.885  11.924 -0.1929 -0.2637 -0.2534
  18.48653  18.48653  15.72494
